<event>
 6    0  0.1631680E+002  0.9260779E+02  0.7546771E-02  0.1296657E+00
         21   -1    0    0  503  502  0.00000000000E+00  0.00000000000E+00  0.16186091832E+02  0.16186091832E+02  0.00000000000E+00 0.  1.
          2   -1    0    0  505    0 -0.00000000000E+00 -0.00000000000E+00 -0.25810384036E+04  0.25810384036E+04  0.00000000000E+00 0.  1.
         21    1    1    2  503  501  0.53662775656E+02 -0.43770991630E+02 -0.14315552445E+03  0.15902546142E+03  0.00000000000E+00 0.  1.
         21    1    1    2  504  502 -0.28036827798E+02  0.32321541554E+02 -0.12540378492E+03  0.13250228313E+03  0.00000000000E+00 0.  1.
         21    1    1    2  505  504 -0.20640831467E+02  0.94838054454E+02 -0.17839231252E+04  0.17865615067E+04  0.00000000000E+00 0.  1.
          2    1    1    2  501    0 -0.49851163907E+01 -0.83388604378E+02 -0.51236987711E+03  0.51913524413E+03  0.00000000000E+00 0.  1.
<scales pt_clust_3="43.02634" pt_clust_4="42.78721" pt_clust_5="92.60779" pt_clust_6="14000.00000"></scales>
<clustering>
<clus scale="   42.787">  1  4  2 -1</clus>
<clus scale="   43.026">  1  3  2 -1</clus>
<clus scale="   92.608">  2  5  1 -1</clus>
<clus scale="   42.787">  1  3  2 -1</clus>
</clustering>
</event>
<event>
 6    0  0.1631680E+002  0.1639613E+03  0.7546771E-02  0.1184296E+00
         21   -1    0    0  504  502  0.00000000000E+00  0.00000000000E+00  0.38198634083E+03  0.38198634083E+03  0.00000000000E+00 0.  1.
          2   -1    0    0  505    0 -0.00000000000E+00 -0.00000000000E+00 -0.43287077622E+04  0.43287077622E+04  0.00000000000E+00 0.  1.
         21    1    1    2  503  502 -0.85097222754E+02 -0.99541685579E+02  0.28612908681E+03  0.31467433770E+03  0.00000000000E+00 0.  1.
         21    1    1    2  504  501 -0.94409231244E+01  0.54583428993E+02  0.64073623391E+02  0.84698943113E+02  0.00000000000E+00 0.  1.
         21    1    1    2  505  503 -0.54240344019E+02  0.14726959585E+03 -0.13986168342E+04  0.14073945423E+04  0.00000000000E+00 0.  1.
          2    1    1    2  501    0  0.14877848990E+03 -0.10231133927E+03 -0.28983072973E+04  0.29039262799E+04  0.00000000000E+00 0.  1.
<scales pt_clust_3="105.04031" pt_clust_4="55.39388" pt_clust_5="14000.00000" pt_clust_6="163.96126"></scales>
<clustering>
<clus scale="   55.394">  1  4  2 -1</clus>
<clus scale="  105.040">  1  3  2 -1</clus>
<clus scale="  163.961">  2  6  1 -1</clus>
<clus scale="   55.394">  1  3  2 -1</clus>
</clustering>
</event>
<event>
 6    0  0.1631680E+002  0.1809575E+03  0.7546771E-02  0.1166880E+00
          2   -1    0    0  502    0 -0.00000000000E+00  0.00000000000E+00  0.70702414590E+03  0.70702414590E+03  0.00000000000E+00 0.  1.
         21   -1    0    0  504  502  0.00000000000E+00 -0.00000000000E+00 -0.16468495361E+03  0.16468495361E+03  0.00000000000E+00 0.  1.
         21    1    1    2  503  505 -0.16699604658E+02  0.49442512751E+02  0.45681187789E+02  0.69355675908E+02  0.00000000000E+00 0.  1.
         21    1    1    2  504  503  0.45255423048E+02 -0.59120053768E+02 -0.10130745610E+03  0.12572364429E+03  0.00000000000E+00 0.  1.
         21    1    1    2  505  501  0.86401190190E+02  0.11634777342E+03  0.18577803460E+03  0.23561716446E+03  0.00000000000E+00 0.  1.
          2    1    1    2  501    0 -0.11495700858E+03 -0.10667023241E+03  0.41218742600E+03  0.44101261484E+03  0.00000000000E+00 0.  1.
<scales pt_clust_3="50.52981" pt_clust_4="74.45290" pt_clust_5="50.52981" pt_clust_6="160.17270"></scales>
<clustering>
<clus scale="   50.530">  3  5 -1 -1</clus>
<clus scale="   74.453">  2  4  1 -1</clus>
<clus scale="  160.173">  1  6  2 -1</clus>
<clus scale="   74.453">  2  3  1 -1</clus>
</clustering>
</event>
<event>
 6    0  0.1631680E+002  0.2061802E+03  0.7546771E-02  0.1144627E+00
          2   -1    0    0  503    0 -0.00000000000E+00  0.00000000000E+00  0.22677385060E+03  0.22677385060E+03  0.00000000000E+00 0.  1.
         21   -1    0    0  504  502  0.00000000000E+00 -0.00000000000E+00 -0.94084329734E+03  0.94084329734E+03  0.00000000000E+00 0.  1.
         21    1    1    2  503  505 -0.13605775910E+03  0.94374364340E+02 -0.11797915684E+02  0.16600429293E+03  0.00000000000E+00 0.  1.
         21    1    1    2  504  501 -0.66951905499E+02  0.26100798676E+02 -0.45574087392E+03  0.46137138349E+03  0.00000000000E+00 0.  1.
         21    1    1    2  505  502 -0.55959962963E+02 -0.40358178114E+02 -0.25983169160E+03  0.26883602428E+03  0.00000000000E+00 0.  1.
          2    1    1    2  501    0  0.25896962756E+03 -0.80116984902E+02  0.13301034455E+02  0.27140544723E+03  0.00000000000E+00 0.  1.
<scales pt_clust_3="14000.00000" pt_clust_4="104.89057" pt_clust_5="68.99493" pt_clust_6="206.18020"></scales>
<clustering>
<clus scale="   68.995">  2  5  1 -1</clus>
<clus scale="  104.891">  2  4  1 -1</clus>
<clus scale="  206.180">  2  6  1 -1</clus>
<clus scale="   68.995">  2  3  1 -1</clus>
</clustering>
</event>
<event>
 6    0  0.1631680E+002  0.2281535E+03  0.7546771E-02  0.1127946E+00
         -1   -1    0    0    0  501 -0.00000000000E+00  0.00000000000E+00  0.25002222752E+03  0.25002222752E+03  0.00000000000E+00 0. -1.
         21   -1    0    0  504  502  0.00000000000E+00 -0.00000000000E+00 -0.25425346523E+04  0.25425346523E+04  0.00000000000E+00 0. -1.
         21    1    1    2  503  501  0.70589988353E+01 -0.43867019663E+02  0.12697146582E+03  0.13452099469E+03  0.00000000000E+00 0. -1.
         21    1    1    2  504  505  0.48135328709E+02  0.46705845246E+02 -0.39935589320E+03  0.40494885515E+03  0.00000000000E+00 0. -1.
         21    1    1    2  505  503 -0.19739626168E+02  0.18523173154E+03 -0.20508161511E+04  0.20592589281E+04  0.00000000000E+00 0. -1.
         -1    1    1    2    0  502 -0.35454701377E+02 -0.18807055712E+03  0.30688153719E+02  0.19382810189E+03  0.00000000000E+00 0. -1.
<scales pt_clust_3="44.43135" pt_clust_4="66.47851" pt_clust_5="228.15352" pt_clust_6="14000.00000"></scales>
<clustering>
<clus scale="   44.431">  1  3  2 -1</clus>
<clus scale="   66.479">  2  4  1 -1</clus>
<clus scale="  228.154">  2  5  1 -1</clus>
<clus scale="   66.479">  2  3  1 -1</clus>
</clustering>
</event>
<event>
 6    0  0.1631680E+002  0.1013010E+03  0.7546771E-02  0.1277584E+00
         21   -1    0    0  504  502  0.00000000000E+00  0.00000000000E+00  0.17854281387E+03  0.17854281387E+03  0.00000000000E+00 0. -1.
          2   -1    0    0  503    0 -0.00000000000E+00 -0.00000000000E+00 -0.83573057296E+03  0.83573057296E+03  0.00000000000E+00 0. -1.
         21    1    1    2  503  505 -0.34484878091E+02  0.62426365964E+02 -0.34127842259E+02  0.79063060917E+02  0.00000000000E+00 0.  1.
         21    1    1    2  504  501 -0.35299580060E+02 -0.26422738824E+02  0.12099278202E+03  0.12877684101E+03  0.00000000000E+00 0. -1.
         21    1    1    2  505  502 -0.34545217751E+02 -0.23511682439E+01  0.16264036992E+02  0.38254659335E+02  0.00000000000E+00 0.  1.
          2    1    1    2  501    0  0.10432967590E+03 -0.33652458896E+02 -0.76031673584E+03  0.76817882557E+03  0.00000000000E+00 0. -1.
<scales pt_clust_3="101.30101" pt_clust_4="69.83603" pt_clust_5="34.62514" pt_clust_6="14000.00000"></scales>
<clustering>
<clus scale="   34.625">  1  5  2 -1</clus>
<clus scale="   69.836">  1  4  2 -1</clus>
<clus scale="  101.301">  1  3  2 -1</clus>
<clus scale="   34.625">  1  3  2 -1</clus>
</clustering>
</event>
<event>
 6    0  0.1631680E+002  0.1319278E+03  0.7546771E-02  0.1224623E+00
          1   -1    0    0  505    0 -0.00000000000E+00  0.00000000000E+00  0.29123359769E+03  0.29123359769E+03  0.00000000000E+00 0. -1.
         21   -1    0    0  503  502  0.00000000000E+00 -0.00000000000E+00 -0.21363693320E+04  0.21363693320E+04  0.00000000000E+00 0. -1.
         21    1    1    2  503  501  0.77416965409E+02  0.85463879036E+02 -0.19072601883E+04  0.19107430196E+04  0.00000000000E+00 0. -1.
         21    1    1    2  504  502  0.16176970460E+00 -0.40143342263E+02 -0.11127163674E+03  0.11829155186E+03  0.00000000000E+00 0. -1.
         21    1    1    2  505  504  0.21092041587E+01  0.59997790693E+02 -0.87519885624E+02  0.10613158818E+03  0.00000000000E+00 0. -1.
          1    1    1    2  501    0 -0.79687939272E+02 -0.10531832747E+03  0.26091597634E+03  0.29243677005E+03  0.00000000000E+00 0. -1.
<scales pt_clust_3="14000.00000" pt_clust_4="40.14367" pt_clust_5="58.11366" pt_clust_6="131.92777"></scales>
<clustering>
<clus scale="   40.144">  2  4  1 -1</clus>
<clus scale="   58.114">  2  5  1 -1</clus>
<clus scale="  131.928">  1  6  2 -1</clus>
<clus scale="   40.144">  2  3  1 -1</clus>
</clustering>
</event>
<event>
 6    0  0.1631680E+002  0.1366375E+03  0.7546771E-02  0.1217926E+00
         -4   -1    0    0    0  501 -0.00000000000E+00  0.00000000000E+00  0.64124683832E+03  0.64124683832E+03  0.00000000000E+00 0. -1.
         21   -1    0    0  503  502  0.00000000000E+00 -0.00000000000E+00 -0.36516981493E+03  0.36516981493E+03  0.00000000000E+00 0.  1.
         21    1    1    2  503  504 -0.55142504808E+02 -0.84158647586E+02 -0.24789456084E+03  0.26753520721E+03  0.00000000000E+00 0.  1.
         21    1    1    2  504  501 -0.32844018887E+02 -0.55878270703E+02 -0.66420775304E+02  0.92805334467E+02  0.00000000000E+00 0.  1.
         21    1    1    2  505  502  0.42380973993E+02  0.27312809949E+02  0.79099194754E+01  0.51036294635E+02  0.00000000000E+00 0.  1.
         -4    1    1    2    0  505  0.45605549703E+02  0.11272410834E+03  0.58248244006E+03  0.59503981694E+03  0.00000000000E+00 0. -1.
<scales pt_clust_3="48.81622" pt_clust_4="48.81622" pt_clust_5="50.41960" pt_clust_6="122.35438"></scales>
<clustering>
<clus scale="   48.816">  3  4 -1 -1</clus>
<clus scale="   50.420">  2  5  1 -1</clus>
<clus scale="  122.354">  1  6  2 -1</clus>
<clus scale="   50.420">  2  3  1 -1</clus>
</clustering>
</event>
<event>
 6    0  0.1631680E+002  0.1048987E+03  0.7546771E-02  0.1270319E+00
          4   -1    0    0  504    0 -0.00000000000E+00  0.00000000000E+00  0.11878835350E+03  0.11878835350E+03  0.00000000000E+00 0. -1.
         21   -1    0    0  501  502  0.00000000000E+00 -0.00000000000E+00 -0.80471893554E+03  0.80471893554E+03  0.00000000000E+00 0. -1.
         21    1    1    2  503  505 -0.30296700830E+02  0.21384265519E+02 -0.41516213375E+02  0.55666622549E+02  0.00000000000E+00 0.  1.
         21    1    1    2  504  503  0.34384457253E+02  0.85603389761E+01 -0.38056808800E+01  0.35637810131E+02  0.00000000000E+00 0. -1.
         21    1    1    2  505  502  0.10430847181E+03 -0.10637632747E+02 -0.69951764623E+03  0.70733185557E+03  0.00000000000E+00 0. -1.
          4    1    1    2  501    0 -0.10839622824E+03 -0.19306971748E+02  0.58908958445E+02  0.12487100079E+03  0.00000000000E+00 0. -1.
<scales pt_clust_3="35.53874" pt_clust_4="35.43403" pt_clust_5="14000.00000" pt_clust_6="104.89868"></scales>
<clustering>
<clus scale="   35.434">  1  4  2 -1</clus>
<clus scale="   35.539">  1  3  2 -1</clus>
<clus scale="  104.899">  1  6  2 -1</clus>
<clus scale="  104.899">  2  3  1 -1</clus>
</clustering>
</event>
<event>
 6    0  0.1631680E+002  0.1116380E+03  0.7546771E-02  0.1257566E+00
         21   -1    0    0  503  502  0.00000000000E+00  0.00000000000E+00  0.37981301770E+03  0.37981301770E+03  0.00000000000E+00 0.  1.
         -4   -1    0    0    0  501 -0.00000000000E+00 -0.00000000000E+00 -0.50014799682E+03  0.50014799682E+03  0.00000000000E+00 0. -1.
         21    1    1    2  503  501  0.78470293516E+02 -0.53983026478E+02  0.30600166701E+03  0.32048209673E+03  0.00000000000E+00 0.  1.
         21    1    1    2  504  505 -0.43896661585E+02  0.32448801120E+02 -0.87720609069E+01  0.55288250515E+02  0.00000000000E+00 0. -1.
         21    1    1    2  505  502 -0.12114540140E+03  0.81237398565E+01 -0.58838974699E+02  0.13492304611E+03  0.00000000000E+00 0.  1.
         -4    1    1    2    0  504  0.86571769466E+02  0.13410485501E+02 -0.35872561053E+03  0.36926762116E+03  0.00000000000E+00 0. -1.
<scales pt_clust_3="98.68620" pt_clust_4="34.99588" pt_clust_5="34.99588" pt_clust_6="87.60429"></scales>
<clustering>
<clus scale="   34.996">  4  5 -1 -1</clus>
<clus scale="   87.604">  2  6  1 -1</clus>
<clus scale="   98.686">  1  3  2 -1</clus>
<clus scale="   98.686">  1  3  2 -1</clus>
</clustering>
</event>
<event>
 6    0  0.1631680E+002  0.2492295E+03  0.7546771E-02  0.1113793E+00
          1   -1    0    0  504    0 -0.00000000000E+00  0.00000000000E+00  0.35762386673E+03  0.35762386673E+03  0.00000000000E+00 0. -1.
         21   -1    0    0  501  502  0.00000000000E+00 -0.00000000000E+00 -0.58651995704E+03  0.58651995704E+03  0.00000000000E+00 0. -1.
         21    1    1    2  503  502 -0.81460413553E+02  0.25551682008E+02 -0.25064079265E+03  0.26478197516E+03  0.00000000000E+00 0. -1.
         21    1    1    2  504  505 -0.10770802786E+02 -0.48543989389E+02  0.12397887454E+03  0.13357877987E+03  0.00000000000E+00 0.  1.
         21    1    1    2  505  503 -0.11406437468E+03  0.10693674914E+03 -0.23813335934E+03  0.28487479130E+03  0.00000000000E+00 0.  1.
          1    1    1    2  501    0  0.20629559102E+03 -0.83944441762E+02  0.13589918713E+03  0.26090827744E+03  0.00000000000E+00 0. -1.
<scales pt_clust_3="64.21143" pt_clust_4="49.72453" pt_clust_5="64.21143" pt_clust_6="233.82920"></scales>
<clustering>
<clus scale="   49.725">  1  4  2 -1</clus>
<clus scale="   64.211">  3  5 -1 -1</clus>
<clus scale="  233.829">  1  6  2 -1</clus>
<clus scale="  249.230">  2  3  1 -1</clus>
</clustering>
</event>
<event>
 6    0  0.1631680E+002  0.2434457E+03  0.7546771E-02  0.1117518E+00
         21   -1    0    0  503  502  0.00000000000E+00  0.00000000000E+00  0.32916954774E+03  0.32916954774E+03  0.00000000000E+00 0.  1.
          1   -1    0    0  504    0 -0.00000000000E+00 -0.00000000000E+00 -0.73720974332E+03  0.73720974332E+03  0.00000000000E+00 0.  1.
         21    1    1    2  503  501 -0.49236624243E+02  0.26549119919E+02  0.59239098141E+02  0.81476203176E+02  0.00000000000E+00 0. -1.
         21    1    1    2  504  505 -0.20136489835E+03 -0.12828690522E+03 -0.36293065257E+03  0.43442376881E+03  0.00000000000E+00 0.  1.
         21    1    1    2  505  502  0.12882641562E+03 -0.17746806120E+03 -0.11102412368E+03  0.24579974399E+03  0.00000000000E+00 0.  1.
          1    1    1    2  501    0  0.12177510697E+03  0.27920584650E+03  0.66754825224E+01  0.30467957507E+03  0.00000000000E+00 0.  1.
<scales pt_clust_3="55.93837" pt_clust_4="243.44572" pt_clust_5="206.26837" pt_clust_6="14000.00000"></scales>
<clustering>
<clus scale="   55.938">  1  3  2 -1</clus>
<clus scale="  206.268">  1  5  2 -1</clus>
<clus scale="  243.446">  2  4  1 -1</clus>
<clus scale="   55.938">  1  3  2 -1</clus>
</clustering>
</event>
<event>
 6    0  0.1631680E+002  0.1266260E+03  0.7546771E-02  0.1232550E+00
         21   -1    0    0  504  502  0.00000000000E+00  0.00000000000E+00  0.15011238178E+03  0.15011238178E+03  0.00000000000E+00 0.  1.
          2   -1    0    0  503    0 -0.00000000000E+00 -0.00000000000E+00 -0.88493586813E+03  0.88493586813E+03  0.00000000000E+00 0.  1.
         21    1    1    2  503  505  0.23323687539E+02 -0.65554473884E+02 -0.35071325826E+02  0.77919069179E+02  0.00000000000E+00 0.  1.
         21    1    1    2  504  501 -0.30236336068E+02 -0.21809628681E+02  0.92588495177E+02  0.99812450933E+02  0.00000000000E+00 0.  1.
         21    1    1    2  505  502  0.29567329420E+02 -0.27218080473E+02  0.14003145942E+02  0.42557478426E+02  0.00000000000E+00 0.  1.
          2    1    1    2  501    0 -0.22654680891E+02  0.11458218304E+03 -0.80634380164E+03  0.81475925137E+03  0.00000000000E+00 0.  1.
<scales pt_clust_3="38.16774" pt_clust_4="37.28131" pt_clust_5="38.16774" pt_clust_6="115.61842"></scales>
<clustering>
<clus scale="   37.281">  1  4  2 -1</clus>
<clus scale="   38.168">  3  5 -1 -1</clus>
<clus scale="  115.618">  2  6  1 -1</clus>
<clus scale="   37.281">  1  3  2 -1</clus>
</clustering>
</event>
<event>
 6    0  0.1631680E+002  0.2345921E+03  0.7546771E-02  0.1123449E+00
         21   -1    0    0  505  502  0.00000000000E+00  0.00000000000E+00  0.12044072868E+03  0.12044072868E+03  0.00000000000E+00 0. -1.
          2   -1    0    0  504    0 -0.00000000000E+00 -0.00000000000E+00 -0.18560930970E+04  0.18560930970E+04  0.00000000000E+00 0.  1.
         21    1    1    2  503  502 -0.68943564866E+02  0.23602613086E+03 -0.19442394249E+03  0.31346805100E+03  0.00000000000E+00 0. -1.
         21    1    1    2  504  503 -0.46657783455E+01 -0.56761505080E+02 -0.72122200391E+03  0.72346721893E+03  0.00000000000E+00 0.  1.
         21    1    1    2  505  501  0.20595616995E+03  0.21587596258E+02 -0.27832605065E+03  0.34691405091E+03  0.00000000000E+00 0. -1.
          2    1    1    2  501    0 -0.13234682674E+03 -0.20085222204E+03 -0.54168037124E+03  0.59268450480E+03  0.00000000000E+00 0.  1.
<scales pt_clust_3="234.59211" pt_clust_4="56.95295" pt_clust_5="204.75569" pt_clust_6="14000.00000"></scales>
<clustering>
<clus scale="   56.953">  2  4  1 -1</clus>
<clus scale="  204.756">  1  5  2 -1</clus>
<clus scale="  234.592">  1  3  2 -1</clus>
<clus scale="  204.756">  1  3  2 -1</clus>
</clustering>
</event>
<event>
 6    0  0.1631680E+002  0.1301329E+03  0.7546771E-02  0.1227259E+00
         21   -1    0    0  504  502  0.00000000000E+00  0.00000000000E+00  0.49889329083E+03  0.49889329083E+03  0.00000000000E+00 0. -1.
          2   -1    0    0  503    0 -0.00000000000E+00 -0.00000000000E+00 -0.14322465257E+04  0.14322465257E+04  0.00000000000E+00 0. -1.
         21    1    1    2  503  505  0.14758953709E+03  0.52245614830E+02 -0.22112230934E+03  0.27093791062E+03  0.00000000000E+00 0. -1.
         21    1    1    2  504  501 -0.96112615201E+02  0.15284792328E+01  0.42761324056E+03  0.43828421663E+03  0.00000000000E+00 0. -1.
         21    1    1    2  505  502  0.13931206423E+02  0.59761151267E+02  0.12100389358E+02  0.62545128793E+02  0.00000000000E+00 0. -1.
          2    1    1    2  501    0 -0.65408128309E+02 -0.11353524533E+03 -0.11519445554E+04  0.11593725605E+04  0.00000000000E+00 0. -1.
<scales pt_clust_3="130.13289" pt_clust_4="101.05652" pt_clust_5="61.36346" pt_clust_6="14000.00000"></scales>
<clustering>
<clus scale="   61.363">  1  5  2 -1</clus>
<clus scale="  101.057">  1  4  2 -1</clus>
<clus scale="  130.133">  1  3  2 -1</clus>
<clus scale="   61.363">  1  3  2 -1</clus>
</clustering>
</event>
<event>
 6    0  0.1631680E+002  0.1856172E+03  0.7546771E-02  0.1162475E+00
         21   -1    0    0  503  502  0.00000000000E+00  0.00000000000E+00  0.29119687582E+03  0.29119687582E+03  0.00000000000E+00 0. -1.
          1   -1    0    0  505    0 -0.00000000000E+00 -0.00000000000E+00 -0.35726808971E+03  0.35726808971E+03  0.00000000000E+00 0.  1.
         21    1    1    2  503  504 -0.45087593687E+02  0.17729053963E+03  0.10308461051E+03  0.20997919771E+03  0.00000000000E+00 0. -1.
         21    1    1    2  504  501  0.80014254451E+02 -0.17380308682E+03  0.41397358622E+02  0.19576397831E+03  0.00000000000E+00 0.  1.
         21    1    1    2  505  502  0.33572758469E+02  0.27874400680E+02 -0.58017526889E+02  0.72595769510E+02  0.00000000000E+00 0. -1.
          1    1    1    2  501    0 -0.68499419233E+02 -0.31361853485E+02 -0.15253565613E+03  0.17012602000E+03  0.00000000000E+00 0.  1.
<scales pt_clust_3="185.61720" pt_clust_4="14000.00000" pt_clust_5="43.63614" pt_clust_6="52.43557"></scales>
<clustering>
<clus scale="   43.636">  2  5  1 -1</clus>
<clus scale="   52.436">  2  6  1 -1</clus>
<clus scale="  185.617">  1  3  2 -1</clus>
<clus scale="  185.617">  1  3  2 -1</clus>
</clustering>
</event>
<event>
 6    0  0.1631680E+002  0.1233709E+03  0.7546771E-02  0.1237638E+00
         21   -1    0    0  503  502  0.00000000000E+00  0.00000000000E+00  0.37580352692E+03  0.37580352692E+03  0.00000000000E+00 0.  1.
         -2   -1    0    0    0  501 -0.00000000000E+00 -0.00000000000E+00 -0.45775754448E+03  0.45775754448E+03  0.00000000000E+00 0.  1.
         21    1    1    2  503  501  0.94528327801E+02  0.47029555560E+02  0.86637045635E+02  0.13657730972E+03  0.00000000000E+00 0.  1.
         21    1    1    2  504  502  0.48268691699E+02 -0.13780269249E+02  0.21810928043E+03  0.22381112713E+03  0.00000000000E+00 0.  1.
         21    1    1    2  505  504 -0.27010653474E+02 -0.90835867497E+02 -0.39495203824E+02  0.10266743082E+03  0.00000000000E+00 0.  1.
         -2    1    1    2    0  505 -0.11578636603E+03  0.57586581186E+02 -0.34720513980E+03  0.37050520373E+03  0.00000000000E+00 0.  1.
<scales pt_clust_3="123.37087" pt_clust_4="50.19724" pt_clust_5="95.20690" pt_clust_6="14000.00000"></scales>
<clustering>
<clus scale="   50.197">  1  4  2 -1</clus>
<clus scale="   95.207">  1  5  2 -1</clus>
<clus scale="  123.371">  1  3  2 -1</clus>
<clus scale="   50.197">  1  3  2 -1</clus>
</clustering>
</event>
<event>
 6    0  0.1631680E+002  0.1759222E+03  0.7546771E-02  0.1171809E+00
         21   -1    0    0  505  502  0.00000000000E+00  0.00000000000E+00  0.33068996179E+03  0.33068996179E+03  0.00000000000E+00 0. -1.
          4   -1    0    0  503    0 -0.00000000000E+00 -0.00000000000E+00 -0.78819513566E+03  0.78819513566E+03  0.00000000000E+00 0. -1.
         21    1    1    2  503  504  0.14976959142E+02  0.34957695981E+02 -0.85552941534E+02  0.93625080072E+02  0.00000000000E+00 0. -1.
         21    1    1    2  504  502  0.14807896368E+03  0.10121859981E+03  0.26113792863E+03  0.31680530646E+03  0.00000000000E+00 0. -1.
         21    1    1    2  505  501  0.14369877118E+02 -0.38601054779E+02  0.26230791613E+01  0.41272452589E+02  0.00000000000E+00 0. -1.
          4    1    1    2  501    0 -0.17742579994E+03 -0.97575241010E+02 -0.63571324013E+03  0.66718225832E+03  0.00000000000E+00 0. -1.
<scales pt_clust_3="38.03091" pt_clust_4="14000.00000" pt_clust_5="40.43383" pt_clust_6="175.92215"></scales>
<clustering>
<clus scale="   38.031">  2  3  1 -1</clus>
<clus scale="   40.434">  1  5  2 -1</clus>
<clus scale="  175.922">  2  6  1 -1</clus>
<clus scale="   40.434">  1  3  2 -1</clus>
</clustering>
</event>
<event>
 6    0  0.1631680E+002  0.1397147E+03  0.7546771E-02  0.1213713E+00
          2   -1    0    0  505    0 -0.00000000000E+00  0.00000000000E+00  0.86278102996E+03  0.86278102996E+03  0.00000000000E+00 0.  1.
         21   -1    0    0  504  502  0.00000000000E+00 -0.00000000000E+00 -0.14301463383E+04  0.14301463383E+04  0.00000000000E+00 0. -1.
         21    1    1    2  503  501 -0.13218098959E+03 -0.33324527216E+02 -0.23767540678E+03  0.27399258587E+03  0.00000000000E+00 0. -1.
         21    1    1    2  504  503  0.28106575524E+02 -0.63299846787E+02 -0.11640974063E+04  0.11661559165E+04  0.00000000000E+00 0. -1.
         21    1    1    2  505  502 -0.47266378308E+01  0.61298721527E+02  0.27337692135E+03  0.28020495266E+03  0.00000000000E+00 0. -1.
          2    1    1    2  501    0  0.10880105190E+03  0.35325652477E+02  0.56103058339E+03  0.57257391323E+03  0.00000000000E+00 0.  1.
<scales pt_clust_3="139.71474" pt_clust_4="69.15753" pt_clust_5="61.48068" pt_clust_6="14000.00000"></scales>
<clustering>
<clus scale="   61.481">  1  5  2 -1</clus>
<clus scale="   69.158">  2  4  1 -1</clus>
<clus scale="  139.715">  2  3  1 -1</clus>
<clus scale="   69.158">  2  3  1 -1</clus>
</clustering>
</event>
<event>
 6    0  0.1631680E+002  0.7389582E+02  0.7546771E-02  0.1347325E+00
         21   -1    0    0  504  502  0.00000000000E+00  0.00000000000E+00  0.10260656581E+03  0.10260656581E+03  0.00000000000E+00 0.  1.
         -1   -1    0    0    0  501 -0.00000000000E+00 -0.00000000000E+00 -0.11773340546E+04  0.11773340546E+04  0.00000000000E+00 0. -1.
         21    1    1    2  503  502 -0.30732263711E+02 -0.38876883569E+02  0.25250733681E+02  0.55619094386E+02  0.00000000000E+00 0.  1.
         21    1    1    2  504  505 -0.38496009644E+02  0.73287125128E+02  0.27320388563E+02  0.87174245619E+02  0.00000000000E+00 0.  1.
         21    1    1    2  505  501  0.72585516190E+02  0.22003657480E+02 -0.36724951358E+03  0.37500003111E+03  0.00000000000E+00 0.  1.
         -1    1    1    2    0  503 -0.33572428355E+01 -0.56413899038E+02 -0.76004909743E+03  0.76214724929E+03  0.00000000000E+00 0. -1.
<scales pt_clust_3="49.55688" pt_clust_4="73.89582" pt_clust_5="14000.00000" pt_clust_6="57.20136"></scales>
<clustering>
<clus scale="   49.557">  1  3  2 -1</clus>
<clus scale="   57.201">  2  6  1 -1</clus>
<clus scale="   73.896">  1  4  2 -1</clus>
<clus scale="   49.557">  1  3  2 -1</clus>
</clustering>
</event>
<event>
 6    0  0.1631680E+002  0.2044855E+03  0.7546771E-02  0.1146009E+00
          1   -1    0    0  502    0 -0.00000000000E+00  0.00000000000E+00  0.32533673258E+04  0.32533673258E+04  0.00000000000E+00 0.  1.
         21   -1    0    0  504  502  0.00000000000E+00 -0.00000000000E+00 -0.12997440330E+03  0.12997440330E+03  0.00000000000E+00 0. -1.
         21    1    1    2  503  505 -0.13441001751E+03 -0.10642223333E+03  0.97510405372E+02  0.19723088934E+03  0.00000000000E+00 0. -1.
         21    1    1    2  504  503 -0.37662483835E+02  0.86144081205E+01 -0.71819051972E+02  0.81551498711E+02  0.00000000000E+00 0. -1.
         21    1    1    2  505  501  0.31200852818E+02  0.40991697195E+02  0.58165977301E+03  0.58393655820E+03  0.00000000000E+00 0.  1.
          1    1    1    2  501    0  0.14087164853E+03  0.56816128019E+02  0.25160417961E+04  0.25206227828E+04  0.00000000000E+00 0.  1.
<scales pt_clust_3="196.10183" pt_clust_4="38.63510" pt_clust_5="33.74867" pt_clust_6="33.74867"></scales>
<clustering>
<clus scale="   33.749">  5  6 -1 -1</clus>
<clus scale="   38.635">  2  4  1 -1</clus>
<clus scale="  196.102">  2  3  1 -1</clus>
<clus scale="   38.635">  2  3  1 -1</clus>
</clustering>
</event>
<event>
 6    0  0.1631680E+002  0.1094834E+03  0.7546771E-02  0.1261530E+00
          1   -1    0    0  504    0 -0.00000000000E+00  0.00000000000E+00  0.28180024383E+03  0.28180024383E+03  0.00000000000E+00 0.  1.
         21   -1    0    0  503  502  0.00000000000E+00 -0.00000000000E+00 -0.33800203388E+03  0.33800203388E+03  0.00000000000E+00 0.  1.
         21    1    1    2  503  505  0.18659429634E+01 -0.33433915514E+02 -0.35536572718E+02  0.48827824550E+02  0.00000000000E+00 0. -1.
         21    1    1    2  504  502  0.22799199425E+02  0.14371425961E+03 -0.24715851744E+03  0.28681165362E+03  0.00000000000E+00 0.  1.
         21    1    1    2  505  501 -0.35822019565E+02 -0.75730992022E+02  0.37625765125E+02  0.91837347738E+02  0.00000000000E+00 0.  1.
          1    1    1    2  501    0  0.11156877176E+02 -0.34549352073E+02  0.18886753499E+03  0.19232545180E+03  0.00000000000E+00 0.  1.
<scales pt_clust_3="33.48594" pt_clust_4="109.48336" pt_clust_5="14000.00000" pt_clust_6="36.49545"></scales>
<clustering>
<clus scale="   33.486">  2  3  1 -1</clus>
<clus scale="   36.495">  1  6  2 -1</clus>
<clus scale="  109.483">  2  4  1 -1</clus>
<clus scale="   33.486">  2  3  1 -1</clus>
</clustering>
</event>
<event>
 6    0  0.1631680E+002  0.9728100E+02  0.7546771E-02  0.1286120E+00
          2   -1    0    0  504    0 -0.00000000000E+00  0.00000000000E+00  0.25054451180E+04  0.25054451180E+04  0.00000000000E+00 0.  1.
         21   -1    0    0  505  502  0.00000000000E+00 -0.00000000000E+00 -0.11162134247E+03  0.11162134247E+03  0.00000000000E+00 0.  1.
         21    1    1    2  503  502  0.17241852720E+02  0.74233857978E+02 -0.44111266439E+02  0.88055385880E+02  0.00000000000E+00 0.  1.
         21    1    1    2  504  503 -0.39681277039E+02  0.50009826500E+02  0.17456389611E+03  0.18587130042E+03  0.00000000000E+00 0. -1.
         21    1    1    2  505  501 -0.17119199276E+02 -0.27156006685E+02 -0.32028716841E+02  0.45347043844E+02  0.00000000000E+00 0.  1.
          2    1    1    2  501    0  0.39558623594E+02 -0.97087677793E+02  0.22953998627E+04  0.22977927303E+04  0.00000000000E+00 0.  1.
<scales pt_clust_3="49.65859" pt_clust_4="14000.00000" pt_clust_5="32.10165" pt_clust_6="97.28100"></scales>
<clustering>
<clus scale="   32.102">  2  5  1 -1</clus>
<clus scale="   49.659">  2  3  1 -1</clus>
<clus scale="   97.281">  1  6  2 -1</clus>
<clus scale="   32.102">  2  3  1 -1</clus>
</clustering>
</event>
<event>
 6    0  0.1631680E+002  0.9601829E+02  0.7546771E-02  0.1288899E+00
         21   -1    0    0  501  502  0.00000000000E+00  0.00000000000E+00  0.14758938589E+03  0.14758938589E+03  0.00000000000E+00 0.  1.
          2   -1    0    0  505    0 -0.00000000000E+00 -0.00000000000E+00 -0.14835522060E+04  0.14835522060E+04  0.00000000000E+00 0. -1.
         21    1    1    2  503  504  0.47555516795E+02  0.44536139797E+01  0.77945655503E+02  0.91416010999E+02  0.00000000000E+00 0.  1.
         21    1    1    2  504  502  0.37647032740E+02 -0.25376362499E+02  0.43546558472E+02  0.62909153568E+02  0.00000000000E+00 0.  1.
         21    1    1    2  505  503  0.25594479481E+02 -0.78628965290E+02 -0.69896988355E+03  0.70384408052E+03  0.00000000000E+00 0.  1.
          2    1    1    2  501    0 -0.11079702902E+03  0.99551713809E+02 -0.75848515052E+03  0.77297234681E+03  0.00000000000E+00 0. -1.
<scales pt_clust_3="35.93688" pt_clust_4="35.93688" pt_clust_5="82.68973" pt_clust_6="88.66143"></scales>
<clustering>
<clus scale="   35.937">  3  4 -1 -1</clus>
<clus scale="   82.690">  2  5  1 -1</clus>
<clus scale="   88.661">  2  6  1 -1</clus>
<clus scale="   96.018">  1  3  2 -1</clus>
</clustering>
</event>
<event>
 6    0  0.1631680E+002  0.9505384E+02  0.7546771E-02  0.1291055E+00
         21   -1    0    0  505  502  0.00000000000E+00  0.00000000000E+00  0.11009060483E+04  0.11009060483E+04  0.00000000000E+00 0. -1.
         -3   -1    0    0    0  501 -0.00000000000E+00 -0.00000000000E+00 -0.33411938883E+03  0.33411938883E+03  0.00000000000E+00 0. -1.
         21    1    1    2  503  501  0.27498955045E+02 -0.16236212358E+02 -0.34338439311E+02  0.46892808986E+02  0.00000000000E+00 0.  1.
         21    1    1    2  504  502  0.97356166883E+02  0.34557182393E+02  0.10143517223E+04  0.10195988616E+04  0.00000000000E+00 0. -1.
         21    1    1    2  505  503 -0.58579150568E+02 -0.73424343984E+01  0.61772814049E+02  0.85447696164E+02  0.00000000000E+00 0.  1.
         -3    1    1    2    0  504 -0.66275971360E+02 -0.10978535636E+02 -0.27499943752E+03  0.28308607041E+03  0.00000000000E+00 0. -1.
<scales pt_clust_3="31.93442" pt_clust_4="95.05384" pt_clust_5="14000.00000" pt_clust_6="48.04488"></scales>
<clustering>
<clus scale="   31.934">  2  3  1 -1</clus>
<clus scale="   48.045">  2  6  1 -1</clus>
<clus scale="   95.054">  1  4  2 -1</clus>
<clus scale="   95.054">  1  3  2 -1</clus>
</clustering>
</event>
<event>
 6    0  0.1631680E+002  0.9002342E+02  0.7546771E-02  0.1302795E+00
         21   -1    0    0  503  502  0.00000000000E+00  0.00000000000E+00  0.64965339075E+02  0.64965339075E+02  0.00000000000E+00 0. -1.
          2   -1    0    0  505    0 -0.00000000000E+00 -0.00000000000E+00 -0.14049410515E+04  0.14049410515E+04  0.00000000000E+00 0.  1.
         21    1    1    2  503  501  0.60052683274E+00 -0.38276583005E+02 -0.37382085444E+02  0.53505866512E+02  0.00000000000E+00 0.  1.
         21    1    1    2  504  502 -0.82019018523E+02  0.60794417864E+01  0.17376592801E+02  0.84059651375E+02  0.00000000000E+00 0. -1.
         21    1    1    2  505  504 -0.46982911640E+02  0.63329303437E+01 -0.46268878083E+03  0.46511117800E+03  0.00000000000E+00 0. -1.
          2    1    1    2  501    0  0.12840140333E+03  0.25864210875E+02 -0.85728143892E+03  0.86722969466E+03  0.00000000000E+00 0.  1.
<scales pt_clust_3="38.28129" pt_clust_4="90.02342" pt_clust_5="47.29317" pt_clust_6="14000.00000"></scales>
<clustering>
<clus scale="   38.281">  1  3  2 -1</clus>
<clus scale="   47.293">  2  5  1 -1</clus>
<clus scale="   90.023">  1  4  2 -1</clus>
<clus scale="   38.281">  1  3  2 -1</clus>
</clustering>
</event>
<event>
 6    0  0.1631680E+002  0.1512969E+03  0.7546771E-02  0.1198888E+00
         -1   -1    0    0    0  501 -0.00000000000E+00  0.00000000000E+00  0.57186696854E+03  0.57186696854E+03  0.00000000000E+00 0. -1.
         21   -1    0    0  504  502  0.00000000000E+00 -0.00000000000E+00 -0.58263356284E+03  0.58263356284E+03  0.00000000000E+00 0.  1.
         21    1    1    2  503  501  0.17847786469E+00  0.40919673778E+02  0.49270413811E+02  0.64047054839E+02  0.00000000000E+00 0. -1.
         21    1    1    2  504  503 -0.18650456799E+03  0.85465564585E+02 -0.49263145192E+03  0.53364226222E+03  0.00000000000E+00 0.  1.
         21    1    1    2  505  502  0.66250831597E+02 -0.33492097297E+00 -0.22171171489E+02  0.69863049637E+02  0.00000000000E+00 0.  1.
         -1    1    1    2    0  505  0.12007525853E+03 -0.12605031739E+03  0.45476561530E+03  0.48694816468E+03  0.00000000000E+00 0. -1.
<scales pt_clust_3="40.92006" pt_clust_4="14000.00000" pt_clust_5="66.27743" pt_clust_6="151.29690"></scales>
<clustering>
<clus scale="   40.920">  1  3  2 -1</clus>
<clus scale="   66.277">  2  5  1 -1</clus>
<clus scale="  151.297">  1  6  2 -1</clus>
<clus scale="   66.277">  2  3  1 -1</clus>
</clustering>
</event>
<event>
 6    0  0.1631680E+002  0.9382862E+02  0.7546771E-02  0.1293836E+00
         21   -1    0    0  501  502  0.00000000000E+00  0.00000000000E+00  0.45001987478E+03  0.45001987478E+03  0.00000000000E+00 0.  1.
          2   -1    0    0  503    0 -0.00000000000E+00 -0.00000000000E+00 -0.54211019254E+03  0.54211019254E+03  0.00000000000E+00 0.  1.
         21    1    1    2  503  504 -0.32413140881E+02  0.29791617568E+02 -0.43575848297E+03  0.43797672045E+03  0.00000000000E+00 0.  1.
         21    1    1    2  504  505  0.94762566516E+02  0.85956754505E+02  0.10129546982E+03  0.16318480279E+03  0.00000000000E+00 0.  1.
         21    1    1    2  505  502 -0.15156896032E+02 -0.43678339834E+02  0.28923082017E+03  0.29290270774E+03  0.00000000000E+00 0.  1.
          2    1    1    2  501    0 -0.47192529603E+02 -0.72070032238E+02 -0.46858124770E+02  0.98065836325E+02  0.00000000000E+00 0.  1.
<scales pt_clust_3="44.02445" pt_clust_4="14000.00000" pt_clust_5="45.93320" pt_clust_6="93.82862"></scales>
<clustering>
<clus scale="   44.024">  2  3  1 -1</clus>
<clus scale="   45.933">  1  5  2 -1</clus>
<clus scale="   93.829">  2  6  1 -1</clus>
<clus scale="   45.933">  1  3  2 -1</clus>
</clustering>
</event>
<event>
 6    0  0.1631680E+002  0.7728055E+02  0.7546771E-02  0.1336951E+00
         21   -1    0    0  503  502  0.00000000000E+00  0.00000000000E+00  0.15094006806E+03  0.15094006806E+03  0.00000000000E+00 0. -1.
          1   -1    0    0  504    0 -0.00000000000E+00 -0.00000000000E+00 -0.20195008063E+04  0.20195008063E+04  0.00000000000E+00 0. -1.
         21    1    1    2  503  501  0.51651918068E+02 -0.58753178774E+02  0.11999420232E+03  0.14324267955E+03  0.00000000000E+00 0. -1.
         21    1    1    2  504  505 -0.44947256420E+02 -0.52172419576E+02 -0.67577468382E+03  0.67927434849E+03  0.00000000000E+00 0. -1.
         21    1    1    2  505  502 -0.29095320334E+02 -0.14473870601E+02 -0.37522062309E+01  0.32712530430E+02  0.00000000000E+00 0. -1.
          1    1    1    2  501    0  0.22390658686E+02  0.12539946895E+03 -0.13090280505E+04  0.13152113159E+04  0.00000000000E+00 0. -1.
<scales pt_clust_3="77.28055" pt_clust_4="69.24808" pt_clust_5="32.49662" pt_clust_6="14000.00000"></scales>
<clustering>
<clus scale="   32.497">  1  5  2 -1</clus>
<clus scale="   69.248">  2  4  1 -1</clus>
<clus scale="   77.281">  1  3  2 -1</clus>
<clus scale="   32.497">  1  3  2 -1</clus>
</clustering>
</event>
<event>
 6    0  0.1631680E+002  0.8799402E+02  0.7546771E-02  0.1307783E+00
         21   -1    0    0  504  502  0.00000000000E+00  0.00000000000E+00  0.14688014390E+03  0.14688014390E+03  0.00000000000E+00 0.  1.
          2   -1    0    0  505    0 -0.00000000000E+00 -0.00000000000E+00 -0.35232740636E+03  0.35232740636E+03  0.00000000000E+00 0. -1.
         21    1    1    2  503  502  0.29334608387E+02 -0.26711702080E+02 -0.89869945473E+01  0.40679237311E+02  0.00000000000E+00 0. -1.
         21    1    1    2  504  501  0.59122737206E+00  0.63225814115E+02  0.95305673718E+02  0.11437230680E+03  0.00000000000E+00 0.  1.
         21    1    1    2  505  503 -0.48771183397E+02 -0.97999578974E+02 -0.23125521161E+03  0.25585448737E+03  0.00000000000E+00 0.  1.
          2    1    1    2  501    0  0.18845347637E+02  0.61485466939E+02 -0.60510730017E+02  0.88301518784E+02  0.00000000000E+00 0. -1.
<scales pt_clust_3="39.67410" pt_clust_4="48.27753" pt_clust_5="14000.00000" pt_clust_6="87.99402"></scales>
<clustering>
<clus scale="   39.674">  1  3  2 -1</clus>
<clus scale="   48.278">  1  4  2 -1</clus>
<clus scale="   87.994">  1  6  2 -1</clus>
<clus scale="   39.674">  1  3  2 -1</clus>
</clustering>
</event>
<event>
 6    0  0.1631680E+002  0.6787218E+02  0.7546771E-02  0.1367482E+00
          1   -1    0    0  503    0 -0.00000000000E+00  0.00000000000E+00  0.87714635883E+03  0.87714635883E+03  0.00000000000E+00 0. -1.
         21   -1    0    0  505  502  0.00000000000E+00 -0.00000000000E+00 -0.52948862146E+02  0.52948862146E+02  0.00000000000E+00 0. -1.
         21    1    1    2  503  502  0.45554542497E+02 -0.99952657584E+02  0.55050128439E+03  0.56135319916E+03  0.00000000000E+00 0. -1.
         21    1    1    2  504  501  0.19772664174E+02  0.81239840682E+02  0.73235015915E+02  0.11114961772E+03  0.00000000000E+00 0. -1.
         21    1    1    2  505  504 -0.25211457017E+02 -0.27196722892E+02 -0.10056649183E+02  0.38424152480E+02  0.00000000000E+00 0. -1.
          1    1    1    2  501    0 -0.40115749654E+02  0.45909539794E+02  0.21051784556E+03  0.21916825161E+03  0.00000000000E+00 0. -1.
<scales pt_clust_3="14000.00000" pt_clust_4="67.87218" pt_clust_5="37.08476" pt_clust_6="60.63579"></scales>
<clustering>
<clus scale="   37.085">  2  5  1 -1</clus>
<clus scale="   60.636">  1  6  2 -1</clus>
<clus scale="   67.872">  2  4  1 -1</clus>
<clus scale="   37.085">  2  3  1 -1</clus>
</clustering>
</event>
<event>
 6    0  0.1631680E+002  0.8793510E+02  0.7546771E-02  0.1307931E+00
         21   -1    0    0  504  502  0.00000000000E+00  0.00000000000E+00  0.17802374141E+03  0.17802374141E+03  0.00000000000E+00 0.  1.
          1   -1    0    0  505    0 -0.00000000000E+00 -0.00000000000E+00 -0.17540333336E+04  0.17540333336E+04  0.00000000000E+00 0. -1.
         21    1    1    2  503  502  0.35969633944E+02  0.38422868016E+02 -0.50123467431E+02  0.72680763205E+02  0.00000000000E+00 0. -1.
         21    1    1    2  504  501  0.52533189045E+02  0.27943069307E+01  0.15364558771E+03  0.16240231133E+03  0.00000000000E+00 0.  1.
         21    1    1    2  505  503  0.20077033264E+02  0.49281756595E+02 -0.10677618672E+04  0.10690870796E+04  0.00000000000E+00 0. -1.
          1    1    1    2  501    0 -0.10857985625E+03 -0.90498931542E+02 -0.61176984525E+03  0.62788692084E+03  0.00000000000E+00 0. -1.
<scales pt_clust_3="14000.00000" pt_clust_4="52.60745" pt_clust_5="53.97988" pt_clust_6="87.93510"></scales>
<clustering>
<clus scale="   52.607">  1  4  2 -1</clus>
<clus scale="   53.980">  2  5  1 -1</clus>
<clus scale="   87.935">  2  6  1 -1</clus>
<clus scale="   52.607">  1  3  2 -1</clus>
</clustering>
</event>
<event>
 6    0  0.1631680E+002  0.7218311E+02  0.7546771E-02  0.1352823E+00
          1   -1    0    0  504    0 -0.00000000000E+00  0.00000000000E+00  0.22164066932E+04  0.22164066932E+04  0.00000000000E+00 0. -1.
         21   -1    0    0  503  502  0.00000000000E+00 -0.00000000000E+00 -0.38175365067E+03  0.38175365067E+03  0.00000000000E+00 0. -1.
         21    1    1    2  503  501  0.98553563152E+02  0.28313342719E+02 -0.30388460841E+03  0.32071842076E+03  0.00000000000E+00 0. -1.
         21    1    1    2  504  505  0.47338247131E+02  0.38817219891E+02  0.34835466686E+03  0.35369288956E+03  0.00000000000E+00 0.  1.
         21    1    1    2  505  502 -0.29039549429E+02 -0.11802768551E+02 -0.60721131468E+02  0.68334885551E+02  0.00000000000E+00 0.  1.
          1    1    1    2  501    0 -0.11685226085E+03 -0.55327794059E+02  0.18509041156E+04  0.18554141480E+04  0.00000000000E+00 0. -1.
<scales pt_clust_3="72.18311" pt_clust_4="60.96649" pt_clust_5="31.34646" pt_clust_6="14000.00000"></scales>
<clustering>
<clus scale="   31.346">  2  5  1 -1</clus>
<clus scale="   60.966">  1  4  2 -1</clus>
<clus scale="   72.183">  2  3  1 -1</clus>
<clus scale="   31.346">  2  3  1 -1</clus>
</clustering>
</event>
<event>
 6    0  0.1631680E+002  0.6908077E+02  0.7546771E-02  0.1363247E+00
         21   -1    0    0  503  502  0.00000000000E+00  0.00000000000E+00  0.79736584080E+01  0.79736584080E+01  0.00000000000E+00 0. -1.
          2   -1    0    0  505    0 -0.00000000000E+00 -0.00000000000E+00 -0.46768428605E+04  0.46768428605E+04  0.00000000000E+00 0.  1.
         21    1    1    2  503  501 -0.49359298934E+02 -0.36826191749E+02 -0.29194851418E+03  0.29837299429E+03  0.00000000000E+00 0. -1.
         21    1    1    2  504  502  0.87195102047E+02  0.16086937311E+02 -0.55942541886E+03  0.56640848744E+03  0.00000000000E+00 0. -1.
         21    1    1    2  505  504 -0.67523198349E+01 -0.51911417582E+02 -0.94135013892E+03  0.94280457845E+03  0.00000000000E+00 0. -1.
          2    1    1    2  501    0 -0.31083483278E+02  0.72650672020E+02 -0.28761451301E+04  0.28772304587E+04  0.00000000000E+00 0.  1.
<scales pt_clust_3="69.08077" pt_clust_4="14000.00000" pt_clust_5="52.34873" pt_clust_6="48.82248"></scales>
<clustering>
<clus scale="   52.349">  2  5  1 -1</clus>
<clus scale="   48.822">  2  6  1 -1</clus>
<clus scale="   69.081">  1  3  2 -1</clus>
<clus scale="   69.081">  1  3  2 -1</clus>
</clustering>
</event>
<event>
 6    0  0.1631680E+002  0.8165285E+02  0.7546771E-02  0.1324425E+00
         21   -1    0    0  504  502  0.00000000000E+00  0.00000000000E+00  0.57166267691E+03  0.57166267691E+03  0.00000000000E+00 0. -1.
         -2   -1    0    0    0  501 -0.00000000000E+00 -0.00000000000E+00 -0.20673782997E+03  0.20673782997E+03  0.00000000000E+00 0. -1.
         21    1    1    2  503  505 -0.56338312384E+02  0.61936763092E+02  0.11715986993E+03  0.14400209438E+03  0.00000000000E+00 0. -1.
         21    1    1    2  504  501  0.12478967031E+02  0.43221317565E+02 -0.52552394313E+02  0.69177749734E+02  0.00000000000E+00 0. -1.
         21    1    1    2  505  502  0.81959632966E+02 -0.20412716656E+02  0.41164038296E+03  0.42021645056E+03  0.00000000000E+00 0. -1.
         -2    1    1    2    0  503 -0.38100287613E+02 -0.84745364001E+02 -0.11132301164E+03  0.14500421220E+03  0.00000000000E+00 0. -1.
<scales pt_clust_3="81.65285" pt_clust_4="44.98674" pt_clust_5="14000.00000" pt_clust_6="54.07329"></scales>
<clustering>
<clus scale="   44.987">  2  4  1 -1</clus>
<clus scale="   54.073">  2  6  1 -1</clus>
<clus scale="   81.653">  2  3  1 -1</clus>
<clus scale="   81.653">  1  3  2 -1</clus>
</clustering>
</event>
<event>
 6    0  0.1631680E+002  0.9224763E+02  0.7546771E-02  0.1297498E+00
         21   -1    0    0  503  502  0.00000000000E+00  0.00000000000E+00  0.21146561967E+04  0.21146561967E+04  0.00000000000E+00 0.  1.
          2   -1    0    0  505    0 -0.00000000000E+00 -0.00000000000E+00 -0.11265697440E+03  0.11265697440E+03  0.00000000000E+00 0.  1.
         21    1    1    2  503  501 -0.70793703694E+02 -0.25358622673E+02  0.91851961122E+03  0.92159268900E+03  0.00000000000E+00 0.  1.
         21    1    1    2  504  502  0.32824592589E+02  0.11034781341E+03  0.11311573485E+04  0.11370008975E+04  0.00000000000E+00 0.  1.
         21    1    1    2  505  504  0.53862440510E+02  0.11582534758E+02 -0.44460579846E+02  0.70795909270E+02  0.00000000000E+00 0.  1.
          2    1    1    2  501    0 -0.15893329405E+02 -0.96571725496E+02 -0.32171576137E+01  0.97923675319E+02  0.00000000000E+00 0.  1.
<scales pt_clust_3="73.67380" pt_clust_4="92.24763" pt_clust_5="55.09372" pt_clust_6="14000.00000"></scales>
<clustering>
<clus scale="   55.094">  2  5  1 -1</clus>
<clus scale="   73.674">  1  3  2 -1</clus>
<clus scale="   92.248">  1  4  2 -1</clus>
<clus scale="   73.674">  1  3  2 -1</clus>
</clustering>
</event>
<event>
 6    0  0.1631680E+002  0.1443071E+03  0.7546771E-02  0.1207648E+00
          1   -1    0    0  504    0 -0.00000000000E+00  0.00000000000E+00  0.26697684966E+04  0.26697684966E+04  0.00000000000E+00 0. -1.
         21   -1    0    0  501  502  0.00000000000E+00 -0.00000000000E+00 -0.37545710130E+02  0.37545710130E+02  0.00000000000E+00 0. -1.
         21    1    1    2  503  505 -0.19403273291E+03  0.22601198647E+01  0.52661146332E+03  0.56122494855E+03  0.00000000000E+00 0. -1.
         21    1    1    2  504  503  0.18796018407E+02 -0.74255523152E+02  0.55263775381E+03  0.55792083665E+03  0.00000000000E+00 0. -1.
         21    1    1    2  505  502  0.65047498239E+02 -0.24053206647E+02  0.71891580109E+02  0.99890605503E+02  0.00000000000E+00 0. -1.
          1    1    1    2  501    0  0.11018921626E+03  0.96048609934E+02  0.14810819893E+04  0.14882778161E+04  0.00000000000E+00 0. -1.
<scales pt_clust_3="144.30713" pt_clust_4="81.25746" pt_clust_5="69.35224" pt_clust_6="14000.00000"></scales>
<clustering>
<clus scale="   69.352">  2  5  1 -1</clus>
<clus scale="   81.257">  1  4  2 -1</clus>
<clus scale="  144.307">  2  3  1 -1</clus>
<clus scale="   69.352">  2  3  1 -1</clus>
</clustering>
</event>
<event>
 6    0  0.1631680E+002  0.7454886E+02  0.7546771E-02  0.1345274E+00
          2   -1    0    0  504    0 -0.00000000000E+00  0.00000000000E+00  0.19749772415E+04  0.19749772415E+04  0.00000000000E+00 0. -1.
         21   -1    0    0  505  502  0.00000000000E+00 -0.00000000000E+00 -0.88256348334E+03  0.88256348334E+03  0.00000000000E+00 0.  1.
         21    1    1    2  503  502 -0.36917029305E+02 -0.44638128370E+01 -0.57871534366E+03  0.57990882186E+03  0.00000000000E+00 0.  1.
         21    1    1    2  504  503  0.77431966018E+02  0.11538504369E+02  0.11369685652E+04  0.11396606357E+04  0.00000000000E+00 0. -1.
         21    1    1    2  505  501  0.26765516338E+02 -0.57494101166E+02 -0.29642908816E+03  0.30313721125E+03  0.00000000000E+00 0.  1.
          2    1    1    2  501    0 -0.67280453051E+02  0.50419409634E+02  0.83058962486E+03  0.83483405606E+03  0.00000000000E+00 0. -1.
<scales pt_clust_3="37.18592" pt_clust_4="74.54886" pt_clust_5="62.66673" pt_clust_6="14000.00000"></scales>
<clustering>
<clus scale="   37.186">  2  3  1 -1</clus>
<clus scale="   62.667">  2  5  1 -1</clus>
<clus scale="   74.549">  1  4  2 -1</clus>
<clus scale="   37.186">  2  3  1 -1</clus>
</clustering>
</event>
<event>
 6    0  0.1631680E+002  0.7647729E+02  0.7546771E-02  0.1339356E+00
          2   -1    0    0  503    0 -0.00000000000E+00  0.00000000000E+00  0.34111566172E+04  0.34111566172E+04  0.00000000000E+00 0. -1.
         21   -1    0    0  505  502  0.00000000000E+00 -0.00000000000E+00 -0.14681371658E+03  0.14681371658E+03  0.00000000000E+00 0.  1.
         21    1    1    2  503  504 -0.70249844387E+02  0.50020339390E+01  0.33427978358E+03  0.34161825872E+03  0.00000000000E+00 0. -1.
         21    1    1    2  504  502 -0.57676683355E+02  0.58279543606E+02 -0.96790652218E+02  0.12685241567E+03  0.00000000000E+00 0.  1.
         21    1    1    2  505  501  0.27929129807E+02  0.11905393046E+02 -0.22368974730E+02  0.37711347176E+02  0.00000000000E+00 0. -1.
          2    1    1    2  501    0  0.99997397936E+02 -0.75186970591E+02  0.30492227440E+04  0.30517883123E+04  0.00000000000E+00 0. -1.
<scales pt_clust_3="69.58026" pt_clust_4="76.47729" pt_clust_5="30.36074" pt_clust_6="14000.00000"></scales>
<clustering>
<clus scale="   30.361">  2  5  1 -1</clus>
<clus scale="   69.580">  1  3  2 -1</clus>
<clus scale="   76.477">  2  4  1 -1</clus>
<clus scale="   30.361">  2  3  1 -1</clus>
</clustering>
</event>
<event>
 6    0  0.1631680E+002  0.1616969E+03  0.7546771E-02  0.1186794E+00
          2   -1    0    0  503    0 -0.00000000000E+00  0.00000000000E+00  0.17112232320E+04  0.17112232320E+04  0.00000000000E+00 0. -1.
         21   -1    0    0  501  502  0.00000000000E+00 -0.00000000000E+00 -0.80531918985E+02  0.80531918985E+02  0.00000000000E+00 0.  1.
         21    1    1    2  503  505  0.47739653620E+02  0.54795123546E+01  0.42632584305E+03  0.42902543518E+03  0.00000000000E+00 0. -1.
         21    1    1    2  504  502  0.36824542639E+01  0.36693391213E+02  0.73211725346E+01  0.37597406764E+02  0.00000000000E+00 0.  1.
         21    1    1    2  505  504 -0.36605440888E+02 -0.19290403918E+03  0.10504566637E+03  0.22268030595E+03  0.00000000000E+00 0.  1.
          2    1    1    2  501    0 -0.14816666996E+02  0.15073113561E+03  0.10919986310E+04  0.11024520031E+04  0.00000000000E+00 0. -1.
<scales pt_clust_3="48.22071" pt_clust_4="36.87771" pt_clust_5="14000.00000" pt_clust_6="161.69687"></scales>
<clustering>
<clus scale="   36.878">  2  4  1 -1</clus>
<clus scale="   48.221">  1  3  2 -1</clus>
<clus scale="  161.697">  1  6  2 -1</clus>
<clus scale="   36.878">  2  3  1 -1</clus>
</clustering>
</event>
<event>
 6    0  0.1631680E+002  0.1439883E+03  0.7546771E-02  0.1208061E+00
         21   -1    0    0  501  502  0.00000000000E+00  0.00000000000E+00  0.24055073654E+03  0.24055073654E+03  0.00000000000E+00 0.  1.
          2   -1    0    0  503    0 -0.00000000000E+00 -0.00000000000E+00 -0.39535625301E+03  0.39535625301E+03  0.00000000000E+00 0.  1.
         21    1    1    2  503  505  0.76798786728E+00  0.33312798228E+02 -0.81223422384E+02  0.87792805371E+02  0.00000000000E+00 0. -1.
         21    1    1    2  504  502  0.14053159351E+03 -0.31052472962E+02  0.12833635567E+03  0.19283050857E+03  0.00000000000E+00 0.  1.
         21    1    1    2  505  504  0.20092193415E+02  0.95640033240E+02 -0.36583907796E+02  0.10435082417E+03  0.00000000000E+00 0.  1.
          2    1    1    2  501    0 -0.16139177479E+03 -0.97900358506E+02 -0.16533454196E+03  0.25093285144E+03  0.00000000000E+00 0.  1.
<scales pt_clust_3="33.32165" pt_clust_4="14000.00000" pt_clust_5="105.16310" pt_clust_6="143.98834"></scales>
<clustering>
<clus scale="   33.322">  2  3  1 -1</clus>
<clus scale="  105.163">  2  5  1 -1</clus>
<clus scale="  143.988">  2  6  1 -1</clus>
<clus scale="  143.988">  1  3  2 -1</clus>
</clustering>
</event>
<event>
 6    0  0.1631680E+002  0.3603173E+03  0.7546771E-02  0.1058458E+00
          1   -1    0    0  503    0 -0.00000000000E+00  0.00000000000E+00  0.84970941055E+02  0.84970941055E+02  0.00000000000E+00 0. -1.
         21   -1    0    0  504  502  0.00000000000E+00 -0.00000000000E+00 -0.43584822521E+04  0.43584822521E+04  0.00000000000E+00 0.  1.
         21    1    1    2  503  505 -0.89602354420E+02 -0.96901282962E-02 -0.53239079236E+02  0.10422562818E+03  0.00000000000E+00 0.  1.
         21    1    1    2  504  501  0.12850394651E+03 -0.45235771966E+01 -0.19850649010E+04  0.19892250722E+04  0.00000000000E+00 0.  1.
         21    1    1    2  505  502 -0.34748651921E+03 -0.14297822043E+03 -0.99817398072E+03  0.10665556471E+04  0.00000000000E+00 0. -1.
          1    1    1    2  501    0  0.30858492712E+03  0.14751148775E+03 -0.12370333501E+04  0.12834468456E+04  0.00000000000E+00 0. -1.
<scales pt_clust_3="89.60235" pt_clust_4="125.45192" pt_clust_5="360.31730" pt_clust_6="14000.00000"></scales>
<clustering>
<clus scale="   89.602">  1  3  2 -1</clus>
<clus scale="  125.452">  2  4  1 -1</clus>
<clus scale="  360.317">  2  5  1 -1</clus>
<clus scale="  125.452">  2  3  1 -1</clus>
</clustering>
</event>
<event>
 6    0  0.1631680E+002  0.8141285E+02  0.7546771E-02  0.1325089E+00
          1   -1    0    0  504    0 -0.00000000000E+00  0.00000000000E+00  0.13153416320E+04  0.13153416320E+04  0.00000000000E+00 0.  1.
         21   -1    0    0  503  502  0.00000000000E+00 -0.00000000000E+00 -0.17440379874E+03  0.17440379874E+03  0.00000000000E+00 0.  1.
         21    1    1    2  503  501 -0.68553027652E+01  0.83659939663E+02 -0.14729486258E+03  0.16953394122E+03  0.00000000000E+00 0.  1.
         21    1    1    2  504  505  0.39341437567E+02 -0.49846832818E+00  0.20722215422E+03  0.21092420056E+03  0.00000000000E+00 0.  1.
         21    1    1    2  505  502  0.38141735197E+02 -0.89663725565E+01  0.21221986299E+02  0.44559628624E+02  0.00000000000E+00 0.  1.
          1    1    1    2  501    0 -0.70627869999E+02 -0.74195098778E+02  0.10597885553E+04  0.10647276604E+04  0.00000000000E+00 0.  1.
<scales pt_clust_3="14000.00000" pt_clust_4="39.77981" pt_clust_5="39.18147" pt_clust_6="81.41285"></scales>
<clustering>
<clus scale="   39.181">  2  5  1 -1</clus>
<clus scale="   39.780">  1  4  2 -1</clus>
<clus scale="   81.413">  1  6  2 -1</clus>
<clus scale="   39.181">  2  3  1 -1</clus>
</clustering>
</event>
<event>
 6    0  0.1631680E+002  0.9969311E+02  0.7546771E-02  0.1280943E+00
         21   -1    0    0  503  502  0.00000000000E+00  0.00000000000E+00  0.46704198848E+03  0.46704198848E+03  0.00000000000E+00 0.  1.
          1   -1    0    0  504    0 -0.00000000000E+00 -0.00000000000E+00 -0.59704393950E+03  0.59704393950E+03  0.00000000000E+00 0.  1.
         21    1    1    2  503  505  0.70473077251E+02  0.71476583848E+02  0.43760183705E+03  0.44896628431E+03  0.00000000000E+00 0.  1.
         21    1    1    2  504  502 -0.18103856875E+02 -0.82011622561E+02 -0.22837128694E+03  0.24332509235E+03  0.00000000000E+00 0.  1.
         21    1    1    2  505  501 -0.39229187929E+02  0.41755561862E+02 -0.38194701155E+02  0.68857035431E+02  0.00000000000E+00 0.  1.
          1    1    1    2  501    0 -0.13140032447E+02 -0.31220523149E+02 -0.30103779997E+03  0.30293751588E+03  0.00000000000E+00 0.  1.
<scales pt_clust_3="14000.00000" pt_clust_4="99.69311" pt_clust_5="55.08410" pt_clust_6="33.87302"></scales>
<clustering>
<clus scale="   33.873">  2  6  1 -1</clus>
<clus scale="   55.084">  2  5  1 -1</clus>
<clus scale="   99.693">  2  4  1 -1</clus>
<clus scale="   99.693">  1  3  2 -1</clus>
</clustering>
</event>
<event>
 6    0  0.1631680E+002  0.2766859E+03  0.7546771E-02  0.1097513E+00
          2   -1    0    0  503    0 -0.00000000000E+00  0.00000000000E+00  0.53052083435E+03  0.53052083435E+03  0.00000000000E+00 0.  1.
         21   -1    0    0  504  502  0.00000000000E+00 -0.00000000000E+00 -0.53113391867E+03  0.53113391867E+03  0.00000000000E+00 0.  1.
         21    1    1    2  503  505  0.57361749552E+02  0.14724783684E+03 -0.27229197901E+03  0.31482569399E+03  0.00000000000E+00 0.  1.
         21    1    1    2  504  501 -0.24471383440E+02  0.18679433924E+02 -0.86060315503E+02  0.91401027148E+02  0.00000000000E+00 0. -1.
         21    1    1    2  505  502  0.22610047188E+02  0.97643016941E+02 -0.88824220748E+02  0.13392204890E+03  0.00000000000E+00 0. -1.
          2    1    1    2  501    0 -0.55500413300E+02 -0.26357028770E+03  0.44656343093E+03  0.52150598298E+03  0.00000000000E+00 0.  1.
<scales pt_clust_3="53.79667" pt_clust_4="30.78587" pt_clust_5="53.79667" pt_clust_6="268.23955"></scales>
<clustering>
<clus scale="   30.786">  2  4  1 -1</clus>
<clus scale="   53.797">  3  5 -1 -1</clus>
<clus scale="  268.240">  1  6  2 -1</clus>
<clus scale="   30.786">  2  3  1 -1</clus>
</clustering>
</event>
<event>
 6    0  0.1631680E+002  0.8969168E+02  0.7546771E-02  0.1303600E+00
          1   -1    0    0  503    0 -0.00000000000E+00  0.00000000000E+00  0.15140676119E+04  0.15140676119E+04  0.00000000000E+00 0. -1.
         21   -1    0    0  504  502  0.00000000000E+00 -0.00000000000E+00 -0.18887173526E+03  0.18887173526E+03  0.00000000000E+00 0.  1.
         21    1    1    2  503  505 -0.16283320405E+02  0.72600408830E+02  0.12599641076E+03  0.14632519062E+03  0.00000000000E+00 0. -1.
         21    1    1    2  504  501  0.61314385262E+02 -0.91632382983E+01 -0.15184266522E+03  0.16401101718E+03  0.00000000000E+00 0.  1.
         21    1    1    2  505  502  0.27897157527E+02  0.32484950944E+02  0.72617391148E+01  0.43431052150E+02  0.00000000000E+00 0. -1.
          1    1    1    2  501    0 -0.72928222384E+02 -0.95922121476E+02  0.13437803919E+04  0.13491720872E+04  0.00000000000E+00 0. -1.
<scales pt_clust_3="75.95468" pt_clust_4="14000.00000" pt_clust_5="42.81966" pt_clust_6="89.69168"></scales>
<clustering>
<clus scale="   42.820">  2  5  1 -1</clus>
<clus scale="   75.955">  1  3  2 -1</clus>
<clus scale="   89.692">  1  6  2 -1</clus>
<clus scale="   42.820">  2  3  1 -1</clus>
</clustering>
</event>
<event>
 6    0  0.1631680E+002  0.1554339E+03  0.7546771E-02  0.1193951E+00
          2   -1    0    0  504    0 -0.00000000000E+00  0.00000000000E+00  0.69138501775E+03  0.69138501775E+03  0.00000000000E+00 0.  1.
         21   -1    0    0  503  502  0.00000000000E+00 -0.00000000000E+00 -0.19173929878E+04  0.19173929878E+04  0.00000000000E+00 0.  1.
         21    1    1    2  503  501  0.13274746433E+03  0.13610172302E+03  0.16367858149E+02  0.19082315131E+03  0.00000000000E+00 0.  1.
         21    1    1    2  504  505 -0.57719157769E+02  0.18749646218E+02 -0.37892706090E+03  0.38375613076E+03  0.00000000000E+00 0.  1.
         21    1    1    2  505  502  0.11550865311E+02 -0.30188668320E+02 -0.14388007251E+04  0.14391637519E+04  0.00000000000E+00 0.  1.
          2    1    1    2  501    0 -0.86579171877E+02 -0.12466270092E+03  0.57535195784E+03  0.59503497157E+03  0.00000000000E+00 0.  1.
<scales pt_clust_3="14000.00000" pt_clust_4="48.80211" pt_clust_5="32.32303" pt_clust_6="155.43385"></scales>
<clustering>
<clus scale="   32.323">  2  5  1 -1</clus>
<clus scale="   48.802">  2  4  1 -1</clus>
<clus scale="  155.434">  1  6  2 -1</clus>
<clus scale="   32.323">  2  3  1 -1</clus>
</clustering>
</event>
<event>
 6    0  0.1631680E+002  0.1213597E+03  0.7546771E-02  0.1240871E+00
         -1   -1    0    0    0  501 -0.00000000000E+00  0.00000000000E+00  0.19710602603E+03  0.19710602603E+03  0.00000000000E+00 0. -1.
         21   -1    0    0  504  502  0.00000000000E+00 -0.00000000000E+00 -0.88544127680E+03  0.88544127680E+03  0.00000000000E+00 0.  1.
         21    1    1    2  503  505 -0.44447310463E+02  0.11351497789E+03 -0.38331698295E+03  0.40223515887E+03  0.00000000000E+00 0.  1.
         21    1    1    2  504  501  0.28253792921E+02 -0.33663311963E+02  0.48891824157E+01  0.44219899270E+02  0.00000000000E+00 0. -1.
         21    1    1    2  505  502 -0.41851024410E+02 -0.22753527656E+02 -0.46153498498E+03  0.46398682484E+03  0.00000000000E+00 0.  1.
         -1    1    1    2    0  503  0.58044541951E+02 -0.57098138275E+02  0.15162753475E+03  0.17210541984E+03  0.00000000000E+00 0. -1.
<scales pt_clust_3="14000.00000" pt_clust_4="43.94878" pt_clust_5="47.57532" pt_clust_6="121.35973"></scales>
<clustering>
<clus scale="   43.949">  1  4  2 -1</clus>
<clus scale="   47.575">  2  5  1 -1</clus>
<clus scale="  121.360">  1  6  2 -1</clus>
<clus scale="   47.575">  2  3  1 -1</clus>
</clustering>
</event>
<event>
 6    0  0.1631680E+002  0.1101321E+03  0.7546771E-02  0.1260325E+00
         21   -1    0    0  501  502  0.00000000000E+00  0.00000000000E+00  0.13985798719E+04  0.13985798719E+04  0.00000000000E+00 0.  1.
          2   -1    0    0  503    0 -0.00000000000E+00 -0.00000000000E+00 -0.18324761725E+04  0.18324761725E+04  0.00000000000E+00 0. -1.
         21    1    1    2  503  505 -0.15455041289E+02 -0.30705975769E+02 -0.17379944952E+03  0.17716648640E+03  0.00000000000E+00 0. -1.
         21    1    1    2  504  502  0.35015002525E+02  0.10104238648E+02  0.13744645636E+04  0.13749476290E+04  0.00000000000E+00 0.  1.
         21    1    1    2  505  504 -0.13377626389E+03  0.24878166339E+02 -0.21273916711E+03  0.25253309717E+03  0.00000000000E+00 0. -1.
          2    1    1    2  501    0  0.11421630266E+03 -0.42764292182E+01 -0.14218222476E+04  0.14264088318E+04  0.00000000000E+00 0. -1.
<scales pt_clust_3="34.37609" pt_clust_4="36.44033" pt_clust_5="14000.00000" pt_clust_6="110.13209"></scales>
<clustering>
<clus scale="   34.376">  2  3  1 -1</clus>
<clus scale="   36.440">  1  4  2 -1</clus>
<clus scale="  110.132">  2  6  1 -1</clus>
<clus scale="   36.440">  1  3  2 -1</clus>
</clustering>
</event>
<event>
 6    0  0.2239221E+002  0.9075266E+02  0.7546771E-02  0.1301039E+00
         21   -1    0    0  504  502  0.00000000000E+00  0.00000000000E+00  0.22630624938E+04  0.22630624938E+04  0.00000000000E+00 0.  1.
          1   -1    0    0  505    0 -0.00000000000E+00 -0.00000000000E+00 -0.76846887867E+03  0.76846887867E+03  0.00000000000E+00 0.  1.
         21    1    1    2  503  502 -0.11538285465E+02  0.10267751694E+03 -0.60253146388E+02  0.11960872111E+03  0.00000000000E+00 0. -1.
         21    1    1    2  504  501 -0.77039412017E+01 -0.71440413754E+02  0.22265916814E+04  0.22277507938E+04  0.00000000000E+00 0.  1.
         21    1    1    2  505  503  0.46465997991E+01  0.34984141694E+02 -0.67828978683E+02  0.76460783470E+02  0.00000000000E+00 0. -1.
          1    1    1    2  501    0  0.14595626867E+02 -0.66221244880E+02 -0.60391594120E+03  0.60771107414E+03  0.00000000000E+00 0.  1.
<scales pt_clust_3="32.22333" pt_clust_4="72.08366" pt_clust_5="32.22333" pt_clust_6="67.81066"></scales>
<clustering>
<clus scale="   32.223">  3  5 -1 -1</clus>
<clus scale="   67.811">  2  6  1 -1</clus>
<clus scale="   72.084">  1  4  2 -1</clus>
<clus scale="   72.084">  1  3  2 -1</clus>
</clustering>
</event>
<event>
 6    0  0.1631680E+002  0.7483799E+02  0.7546771E-02  0.1344373E+00
         21   -1    0    0  501  502  0.00000000000E+00  0.00000000000E+00  0.62511049644E+02  0.62511049644E+02  0.00000000000E+00 0. -1.
          1   -1    0    0  503    0 -0.00000000000E+00 -0.00000000000E+00 -0.10004042704E+04  0.10004042704E+04  0.00000000000E+00 0. -1.
         21    1    1    2  503  504 -0.12220835051E+02 -0.35325649096E+02 -0.31247264697E+03  0.31470050111E+03  0.00000000000E+00 0. -1.
         21    1    1    2  504  505 -0.64629380614E+02 -0.64892128685E+02 -0.18738592677E+03  0.20856996609E+03  0.00000000000E+00 0. -1.
         21    1    1    2  505  502  0.55134557043E+01  0.47248551734E+02  0.34542268894E+02  0.58787687274E+02  0.00000000000E+00 0. -1.
          1    1    1    2  501    0  0.71336759961E+02  0.52969226048E+02 -0.47257691592E+03  0.48085716558E+03  0.00000000000E+00 0. -1.
<scales pt_clust_3="37.37981" pt_clust_4="74.83799" pt_clust_5="46.92505" pt_clust_6="14000.00000"></scales>
<clustering>
<clus scale="   37.380">  2  3  1 -1</clus>
<clus scale="   46.925">  1  5  2 -1</clus>
<clus scale="   74.838">  1  4  2 -1</clus>
<clus scale="   46.925">  1  3  2 -1</clus>
</clustering>
</event>
<event>
 6    0  0.1631680E+002  0.1118272E+03  0.7546771E-02  0.1257223E+00
         21   -1    0    0  504  502  0.00000000000E+00  0.00000000000E+00  0.11139899703E+03  0.11139899703E+03  0.00000000000E+00 0. -1.
          2   -1    0    0  505    0 -0.00000000000E+00 -0.00000000000E+00 -0.13109015750E+04  0.13109015750E+04  0.00000000000E+00 0. -1.
         21    1    1    2  503  502  0.13024378581E+03  0.35719174305E+02  0.28276370748E+02  0.13798136214E+03  0.00000000000E+00 0. -1.
         21    1    1    2  504  501 -0.23740078277E+02 -0.23755824352E+02  0.15727863198E+01  0.33621483668E+02  0.00000000000E+00 0. -1.
         21    1    1    2  505  503  0.42176101994E+02 -0.30115978716E+02 -0.11269593090E+03  0.12404099562E+03  0.00000000000E+00 0. -1.
          2    1    1    2  501    0 -0.14867980953E+03  0.18152628762E+02 -0.11166558041E+04  0.11266567306E+04  0.00000000000E+00 0. -1.
<scales pt_clust_3="111.82723" pt_clust_4="33.58468" pt_clust_5="51.53009" pt_clust_6="14000.00000"></scales>
<clustering>
<clus scale="   33.585">  1  4  2 -1</clus>
<clus scale="   51.530">  2  5  1 -1</clus>
<clus scale="  111.827">  1  3  2 -1</clus>
<clus scale="   33.585">  1  3  2 -1</clus>
</clustering>
</event>
<event>
 6    0  0.1631680E+002  0.9703018E+02  0.7546771E-02  0.1286668E+00
          2   -1    0    0  503    0 -0.00000000000E+00  0.00000000000E+00  0.59551863363E+03  0.59551863363E+03  0.00000000000E+00 0. -1.
         21   -1    0    0  505  502  0.00000000000E+00 -0.00000000000E+00 -0.32829686434E+03  0.32829686434E+03  0.00000000000E+00 0. -1.
         21    1    1    2  503  504  0.27068174468E+02 -0.43526765217E+02  0.96765969540E+02  0.10950305119E+03  0.00000000000E+00 0. -1.
         21    1    1    2  504  502 -0.62224416920E+02 -0.12704338233E+03 -0.74835670804E+01  0.14166122558E+03  0.00000000000E+00 0. -1.
         21    1    1    2  505  501  0.77649556391E+01  0.58729936014E+02 -0.23583105286E+03  0.24315794335E+03  0.00000000000E+00 0. -1.
          2    1    1    2  501    0  0.27391286813E+02  0.11184021154E+03  0.41377041969E+03  0.42949327785E+03  0.00000000000E+00 0. -1.
<scales pt_clust_3="51.25686" pt_clust_4="97.03018" pt_clust_5="58.94687" pt_clust_6="14000.00000"></scales>
<clustering>
<clus scale="   51.257">  1  3  2 -1</clus>
<clus scale="   58.947">  2  5  1 -1</clus>
<clus scale="   97.030">  2  4  1 -1</clus>
<clus scale="   58.947">  2  3  1 -1</clus>
</clustering>
</event>
<event>
 6    0  0.1631680E+002  0.8620364E+02  0.7546771E-02  0.1312315E+00
          1   -1    0    0  503    0 -0.00000000000E+00  0.00000000000E+00  0.10381308355E+04  0.10381308355E+04  0.00000000000E+00 0.  1.
         21   -1    0    0  504  502  0.00000000000E+00 -0.00000000000E+00 -0.12804389355E+04  0.12804389355E+04  0.00000000000E+00 0. -1.
         21    1    1    2  503  505  0.10255765023E+03 -0.62107422835E+02  0.90405978137E+01  0.12023783099E+03  0.00000000000E+00 0. -1.
         21    1    1    2  504  501 -0.31109303414E+02 -0.76079698440E+02 -0.36535939620E+03  0.37449085125E+03  0.00000000000E+00 0. -1.
         21    1    1    2  505  502 -0.19558400015E+02  0.91925590263E+02 -0.85107819410E+03  0.85625167891E+03  0.00000000000E+00 0. -1.
          1    1    1    2  501    0 -0.51889946800E+02  0.46261531012E+02  0.96508889242E+03  0.96758940987E+03  0.00000000000E+00 0.  1.
<scales pt_clust_3="59.46609" pt_clust_4="86.20364" pt_clust_5="14000.00000" pt_clust_6="69.51759"></scales>
<clustering>
<clus scale="   69.518">  1  6  2 -1</clus>
<clus scale="   59.466">  1  3  2 -1</clus>
<clus scale="   86.204">  1  4  2 -1</clus>
<clus scale="   86.204">  2  3  1 -1</clus>
</clustering>
</event>
<event>
 6    0  0.1631680E+002  0.1762342E+03  0.7546771E-02  0.1171498E+00
          1   -1    0    0  503    0 -0.00000000000E+00  0.00000000000E+00  0.28038258500E+03  0.28038258500E+03  0.00000000000E+00 0.  1.
         21   -1    0    0  505  502  0.00000000000E+00 -0.00000000000E+00 -0.11846132623E+04  0.11846132623E+04  0.00000000000E+00 0.  1.
         21    1    1    2  503  504  0.22430980303E+02  0.26751564823E+02 -0.41446874248E+01  0.35156415227E+02  0.00000000000E+00 0.  1.
         21    1    1    2  504  502  0.14154866606E+03  0.25219026061E+02 -0.50377008140E+03  0.52388578817E+03  0.00000000000E+00 0.  1.
         21    1    1    2  505  501  0.17428851341E+02  0.55936030790E+02 -0.60576730533E+03  0.60859398010E+03  0.00000000000E+00 0.  1.
          1    1    1    2  501    0 -0.18140849770E+03 -0.10790662167E+03  0.20945139682E+03  0.29735966383E+03  0.00000000000E+00 0.  1.
<scales pt_clust_3="34.91125" pt_clust_4="176.23418" pt_clust_5="58.76036" pt_clust_6="14000.00000"></scales>
<clustering>
<clus scale="   34.911">  1  3  2 -1</clus>
<clus scale="   58.760">  2  5  1 -1</clus>
<clus scale="  176.234">  2  4  1 -1</clus>
<clus scale="   58.760">  2  3  1 -1</clus>
</clustering>
</event>
<event>
 6    0  0.1631680E+002  0.9087101E+02  0.7546771E-02  0.1300756E+00
         21   -1    0    0  503  502  0.00000000000E+00  0.00000000000E+00  0.22046304919E+03  0.22046304919E+03  0.00000000000E+00 0.  1.
          1   -1    0    0  504    0 -0.00000000000E+00 -0.00000000000E+00 -0.21610764860E+04  0.21610764860E+04  0.00000000000E+00 0.  1.
         21    1    1    2  503  501  0.20029402840E+02  0.11678064735E+03  0.15758823081E+03  0.19716223539E+03  0.00000000000E+00 0.  1.
         21    1    1    2  504  505  0.10092520561E+03 -0.45178996251E+02 -0.17486005853E+03  0.20688904973E+03  0.00000000000E+00 0.  1.
         21    1    1    2  505  502 -0.32572609321E+02 -0.49898773416E+02 -0.81596108816E+01  0.60145172010E+02  0.00000000000E+00 0. -1.
          1    1    1    2  501    0 -0.88381999130E+02 -0.21702877688E+02 -0.19151819982E+04  0.19173430781E+04  0.00000000000E+00 0.  1.
<scales pt_clust_3="71.92263" pt_clust_4="90.87101" pt_clust_5="59.58911" pt_clust_6="14000.00000"></scales>
<clustering>
<clus scale="   59.589">  1  5  2 -1</clus>
<clus scale="   71.923">  1  3  2 -1</clus>
<clus scale="   90.871">  1  4  2 -1</clus>
<clus scale="   59.589">  1  3  2 -1</clus>
</clustering>
</event>
<event>
 6    0  0.1631680E+002  0.1516842E+03  0.7546771E-02  0.1198419E+00
         21   -1    0    0  504  502  0.00000000000E+00  0.00000000000E+00  0.54118203928E+02  0.54118203928E+02  0.00000000000E+00 0. -1.
          2   -1    0    0  505    0 -0.00000000000E+00 -0.00000000000E+00 -0.25531982349E+04  0.25531982349E+04  0.00000000000E+00 0.  1.
         21    1    1    2  503  502  0.11374344883E+03 -0.10538533230E+03 -0.10348992566E+03  0.18642372469E+03  0.00000000000E+00 0. -1.
         21    1    1    2  504  501 -0.36799761483E+02  0.15552561196E+03 -0.58368948375E+03  0.60517423265E+03  0.00000000000E+00 0. -1.
         21    1    1    2  505  503 -0.12233419220E+02 -0.33627180996E+02 -0.26853872685E+03  0.27091233207E+03  0.00000000000E+00 0.  1.
          2    1    1    2  501    0 -0.64710268126E+02 -0.16513098665E+02 -0.15433618948E+04  0.15448061495E+04  0.00000000000E+00 0.  1.
<scales pt_clust_3="151.68422" pt_clust_4="14000.00000" pt_clust_5="35.78329" pt_clust_6="82.86827"></scales>
<clustering>
<clus scale="   35.783">  2  5  1 -1</clus>
<clus scale="   82.868">  2  6  1 -1</clus>
<clus scale="  151.684">  1  3  2 -1</clus>
<clus scale="  151.684">  1  3  2 -1</clus>
</clustering>
</event>
<event>
 6    0  0.1631680E+002  0.7890192E+02  0.7546771E-02  0.1332197E+00
         21   -1    0    0  503  502  0.00000000000E+00  0.00000000000E+00  0.28921416884E+03  0.28921416884E+03  0.00000000000E+00 0.  1.
         -2   -1    0    0    0  501 -0.00000000000E+00 -0.00000000000E+00 -0.12494707855E+03  0.12494707855E+03  0.00000000000E+00 0.  1.
         21    1    1    2  503  504  0.48782826615E+02  0.95158251286E+01  0.61444827702E+02  0.79030259723E+02  0.00000000000E+00 0.  1.
         21    1    1    2  504  505 -0.12211092688E+03  0.89571502594E+01  0.14363538763E+03  0.18873906215E+03  0.00000000000E+00 0.  1.
         21    1    1    2  505  501  0.48833494818E+02  0.33477721693E+02 -0.61477536106E+02  0.85351950837E+02  0.00000000000E+00 0.  1.
         -2    1    1    2    0  502  0.24494605448E+02 -0.51950697081E+02  0.20664411071E+02  0.61039974674E+02  0.00000000000E+00 0.  1.
<scales pt_clust_3="49.70226" pt_clust_4="78.90192" pt_clust_5="14000.00000" pt_clust_6="60.38404"></scales>
<clustering>
<clus scale="   49.702">  1  3  2 -1</clus>
<clus scale="   60.384">  2  6  1 -1</clus>
<clus scale="   78.902">  1  4  2 -1</clus>
<clus scale="   49.702">  1  3  2 -1</clus>
</clustering>
</event>
<event>
 6    0  0.1631680E+002  0.7440327E+02  0.7546771E-02  0.1345729E+00
         -3   -1    0    0    0  501 -0.00000000000E+00  0.00000000000E+00  0.14142123766E+04  0.14142123766E+04  0.00000000000E+00 0. -1.
         21   -1    0    0  505  502  0.00000000000E+00 -0.00000000000E+00 -0.23276356807E+02  0.23276356807E+02  0.00000000000E+00 0.  1.
         21    1    1    2  503  502 -0.27697920129E+02 -0.32013071112E+02  0.60537226925E+02  0.73869935327E+02  0.00000000000E+00 0.  1.
         21    1    1    2  504  501  0.33838384592E+02  0.13967755221E+02  0.39262351940E+03  0.39432646683E+03  0.00000000000E+00 0.  1.
         21    1    1    2  505  504  0.17541973608E+02  0.98322464901E+02  0.17152052146E+03  0.19848001719E+03  0.00000000000E+00 0.  1.
         -3    1    1    2    0  503 -0.23682438071E+02 -0.80277149010E+02  0.76625475197E+03  0.77081231402E+03  0.00000000000E+00 0. -1.
<scales pt_clust_3="40.19362" pt_clust_4="36.60785" pt_clust_5="14000.00000" pt_clust_6="74.40327"></scales>
<clustering>
<clus scale="   36.608">  1  4  2 -1</clus>
<clus scale="   40.194">  2  3  1 -1</clus>
<clus scale="   74.403">  1  6  2 -1</clus>
<clus scale="   40.194">  2  3  1 -1</clus>
</clustering>
</event>
<event>
 6    0  0.1631680E+002  0.9514071E+02  0.7546771E-02  0.1290859E+00
          2   -1    0    0  503    0 -0.00000000000E+00  0.00000000000E+00  0.51653079277E+04  0.51653079277E+04  0.00000000000E+00 0.  1.
         21   -1    0    0  505  502  0.00000000000E+00 -0.00000000000E+00 -0.13587057669E+03  0.13587057669E+03  0.00000000000E+00 0.  1.
         21    1    1    2  503  504 -0.73837903436E+01 -0.46277291627E+02  0.25216199329E+04  0.25220553511E+04  0.00000000000E+00 0.  1.
         21    1    1    2  504  502 -0.11531824311E+03 -0.64589973429E+02  0.39983820529E+03  0.42111845397E+03  0.00000000000E+00 0.  1.
         21    1    1    2  505  501  0.55645482243E+02  0.75788159090E+02 -0.10659580113E+03  0.14213700986E+03  0.00000000000E+00 0.  1.
          2    1    1    2  501    0  0.67056551206E+02  0.35079105966E+02  0.22145750139E+04  0.22158676894E+04  0.00000000000E+00 0.  1.
<scales pt_clust_3="46.86265" pt_clust_4="14000.00000" pt_clust_5="95.14071" pt_clust_6="60.98137"></scales>
<clustering>
<clus scale="   46.863">  1  3  2 -1</clus>
<clus scale="   60.981">  1  6  2 -1</clus>
<clus scale="   95.141">  2  5  1 -1</clus>
<clus scale="   95.141">  2  3  1 -1</clus>
</clustering>
</event>
<event>
 6    0  0.1631680E+002  0.9246192E+02  0.7546771E-02  0.1296997E+00
          2   -1    0    0  505    0 -0.00000000000E+00  0.00000000000E+00  0.50483495971E+03  0.50483495971E+03  0.00000000000E+00 0.  1.
         21   -1    0    0  503  502  0.00000000000E+00 -0.00000000000E+00 -0.24656196653E+03  0.24656196653E+03  0.00000000000E+00 0. -1.
         21    1    1    2  503  501 -0.11655275436E+02 -0.75767870827E+02 -0.20176831419E+03  0.21584037692E+03  0.00000000000E+00 0. -1.
         21    1    1    2  504  502 -0.36067111408E+02 -0.16837477538E+01 -0.77583067573E+01  0.36930513882E+02  0.00000000000E+00 0.  1.
         21    1    1    2  505  504 -0.17123096826E+02 -0.30942591201E+02  0.19265592544E+03  0.19587483249E+03  0.00000000000E+00 0.  1.
          2    1    1    2  501    0  0.64845483670E+02  0.10839420978E+03  0.27514368868E+03  0.30275120295E+03  0.00000000000E+00 0.  1.
<scales pt_clust_3="92.46192" pt_clust_4="37.00451" pt_clust_5="35.36445" pt_clust_6="14000.00000"></scales>
<clustering>
<clus scale="   35.364">  1  5  2 -1</clus>
<clus scale="   37.005">  2  4  1 -1</clus>
<clus scale="   92.462">  2  3  1 -1</clus>
<clus scale="   37.005">  2  3  1 -1</clus>
</clustering>
</event>
<event>
 6    0  0.1631680E+002  0.1113352E+03  0.7546771E-02  0.1258117E+00
         21   -1    0    0  503  502  0.00000000000E+00  0.00000000000E+00  0.33963870434E+03  0.33963870434E+03  0.00000000000E+00 0.  1.
         -2   -1    0    0    0  501 -0.00000000000E+00 -0.00000000000E+00 -0.24894790110E+03  0.24894790110E+03  0.00000000000E+00 0.  1.
         21    1    1    2  503  501  0.59391636691E+01 -0.39485847085E+02 -0.10620874777E+03  0.11346675235E+03  0.00000000000E+00 0.  1.
         21    1    1    2  504  502 -0.91192627201E+01  0.33461787701E+02  0.23441625004E+03  0.23696799461E+03  0.00000000000E+00 0.  1.
         21    1    1    2  505  504  0.10953334915E+03 -0.38808217830E+02  0.18103731652E+01  0.11621923162E+03  0.00000000000E+00 0.  1.
         -2    1    1    2    0  505 -0.10635325010E+03  0.44832277214E+02 -0.39327072185E+02  0.12193262686E+03  0.00000000000E+00 0.  1.
<scales pt_clust_3="38.72768" pt_clust_4="34.68216" pt_clust_5="111.33520" pt_clust_6="14000.00000"></scales>
<clustering>
<clus scale="   34.682">  1  4  2 -1</clus>
<clus scale="   38.728">  2  3  1 -1</clus>
<clus scale="  111.335">  1  5  2 -1</clus>
<clus scale="   34.682">  1  3  2 -1</clus>
</clustering>
</event>
<event>
 6    0  0.1631680E+002  0.8606986E+02  0.7546771E-02  0.1312658E+00
          2   -1    0    0  504    0 -0.00000000000E+00  0.00000000000E+00  0.19662985939E+04  0.19662985939E+04  0.00000000000E+00 0. -1.
         21   -1    0    0  503  502  0.00000000000E+00 -0.00000000000E+00 -0.87955571764E+03  0.87955571764E+03  0.00000000000E+00 0. -1.
         21    1    1    2  503  501 -0.37117393928E+02 -0.71724721568E+02 -0.62028208115E+03  0.62551738330E+03  0.00000000000E+00 0. -1.
         21    1    1    2  504  505  0.50722657915E+01  0.44832539775E+02  0.21174481074E+02  0.49840176080E+02  0.00000000000E+00 0.  1.
         21    1    1    2  505  502  0.52718038159E+02  0.99690186603E+02 -0.22841468547E+03  0.25473632130E+03  0.00000000000E+00 0. -1.
          2    1    1    2  501    0 -0.20672910022E+02 -0.72798004809E+02  0.19142651618E+04  0.19157604308E+04  0.00000000000E+00 0. -1.
<scales pt_clust_3="14000.00000" pt_clust_4="45.11856" pt_clust_5="86.06986" pt_clust_6="32.36307"></scales>
<clustering>
<clus scale="   45.119">  1  4  2 -1</clus>
<clus scale="   32.363">  1  6  2 -1</clus>
<clus scale="   86.070">  1  5  2 -1</clus>
<clus scale="   86.070">  2  3  1 -1</clus>
</clustering>
</event>
<event>
 6    0  0.1631680E+002  0.8525317E+02  0.7546771E-02  0.1314772E+00
          1   -1    0    0  503    0 -0.00000000000E+00  0.00000000000E+00  0.84927968681E+03  0.84927968681E+03  0.00000000000E+00 0. -1.
         21   -1    0    0  504  502  0.00000000000E+00 -0.00000000000E+00 -0.19780933717E+03  0.19780933717E+03  0.00000000000E+00 0.  1.
         21    1    1    2  503  505 -0.58952636920E+02  0.25966594325E+02  0.40847666458E+03  0.41352492419E+03  0.00000000000E+00 0.  1.
         21    1    1    2  504  501  0.21842752591E+02 -0.61018659557E+02 -0.16471592010E+03  0.17700767495E+03  0.00000000000E+00 0.  1.
         21    1    1    2  505  502 -0.53569006910E+02 -0.20421114555E+02  0.31078598024E+02  0.65211499570E+02  0.00000000000E+00 0.  1.
          1    1    1    2  501    0  0.90678891238E+02  0.55473179787E+02  0.37663100715E+03  0.39134492527E+03  0.00000000000E+00 0. -1.
<scales pt_clust_3="64.99010" pt_clust_4="14000.00000" pt_clust_5="57.32940" pt_clust_6="85.25317"></scales>
<clustering>
<clus scale="   57.329">  2  5  1 -1</clus>
<clus scale="   64.990">  1  3  2 -1</clus>
<clus scale="   85.253">  1  6  2 -1</clus>
<clus scale="   57.329">  2  3  1 -1</clus>
</clustering>
</event>
<event>
 6    0  0.1631680E+002  0.7508702E+02  0.7546771E-02  0.1343602E+00
         21   -1    0    0  503  502  0.00000000000E+00  0.00000000000E+00  0.13416420688E+03  0.13416420688E+03  0.00000000000E+00 0. -1.
          2   -1    0    0  504    0 -0.00000000000E+00 -0.00000000000E+00 -0.34794224974E+03  0.34794224974E+03  0.00000000000E+00 0. -1.
         21    1    1    2  503  501  0.41737017546E+02  0.34924436926E+02  0.85599809486E+02  0.10143481805E+03  0.00000000000E+00 0. -1.
         21    1    1    2  504  505  0.35365141382E+02  0.33477220737E+02 -0.10595299925E+03  0.11660812829E+03  0.00000000000E+00 0.  1.
         21    1    1    2  505  502  0.31637060012E+02 -0.28901459791E+02 -0.52527481059E+01  0.43171626179E+02  0.00000000000E+00 0. -1.
          2    1    1    2  501    0 -0.10873921894E+03 -0.39500197872E+02 -0.18817210499E+03  0.22089188411E+03  0.00000000000E+00 0. -1.
<scales pt_clust_3="75.08702" pt_clust_4="48.88086" pt_clust_5="42.85088" pt_clust_6="14000.00000"></scales>
<clustering>
<clus scale="   42.851">  1  5  2 -1</clus>
<clus scale="   48.881">  2  4  1 -1</clus>
<clus scale="   75.087">  1  3  2 -1</clus>
<clus scale="   42.851">  1  3  2 -1</clus>
</clustering>
</event>
<event>
 6    0  0.1631680E+002  0.1090218E+03  0.7546771E-02  0.1262392E+00
         21   -1    0    0  503  502  0.00000000000E+00  0.00000000000E+00  0.23263786860E+02  0.23263786860E+02  0.00000000000E+00 0.  1.
          2   -1    0    0  505    0 -0.00000000000E+00 -0.00000000000E+00 -0.20133698875E+04  0.20133698875E+04  0.00000000000E+00 0. -1.
         21    1    1    2  503  504  0.28612586033E+02  0.77916679321E+02 -0.23623360314E+03  0.25039170163E+03  0.00000000000E+00 0. -1.
         21    1    1    2  504  501 -0.55008145437E+02 -0.14038753528E+03 -0.37580026738E+03  0.40492023547E+03  0.00000000000E+00 0.  1.
         21    1    1    2  505  502  0.32150071455E+02  0.10578047327E+01 -0.38881215484E+03  0.39014053596E+03  0.00000000000E+00 0.  1.
          2    1    1    2  501    0 -0.57545120520E+01  0.61413051229E+02 -0.98926007523E+03  0.99118120125E+03  0.00000000000E+00 0. -1.
<scales pt_clust_3="109.02183" pt_clust_4="14000.00000" pt_clust_5="32.16747" pt_clust_6="63.58481"></scales>
<clustering>
<clus scale="   32.167">  2  5  1 -1</clus>
<clus scale="   63.585">  2  6  1 -1</clus>
<clus scale="  109.022">  1  3  2 -1</clus>
<clus scale="  109.022">  1  3  2 -1</clus>
</clustering>
</event>
<event>
 6    0  0.1631680E+002  0.1996029E+03  0.7546771E-02  0.1150074E+00
         21   -1    0    0  504  502  0.00000000000E+00  0.00000000000E+00  0.74756374711E+03  0.74756374711E+03  0.00000000000E+00 0.  1.
          1   -1    0    0  503    0 -0.00000000000E+00 -0.00000000000E+00 -0.11351473641E+04  0.11351473641E+04  0.00000000000E+00 0. -1.
         21    1    1    2  503  505 -0.48754707266E+01  0.88999385384E+02  0.18566619728E+02  0.91046033311E+02  0.00000000000E+00 0. -1.
         21    1    1    2  504  501 -0.17400979887E+02  0.75997970565E+02  0.59459641275E+03  0.59968606761E+03  0.00000000000E+00 0.  1.
         21    1    1    2  505  502  0.30111795578E+02  0.36393029950E+02  0.79835424054E+02  0.92762426638E+02  0.00000000000E+00 0. -1.
          1    1    1    2  501    0 -0.78353449645E+01 -0.20139038590E+03 -0.10805820735E+04  0.10992165836E+04  0.00000000000E+00 0. -1.
<scales pt_clust_3="92.04645" pt_clust_4="14000.00000" pt_clust_5="47.23529" pt_clust_6="199.60293"></scales>
<clustering>
<clus scale="   47.235">  1  5  2 -1</clus>
<clus scale="   92.046">  1  3  2 -1</clus>
<clus scale="  199.603">  2  6  1 -1</clus>
<clus scale="   47.235">  1  3  2 -1</clus>
</clustering>
</event>
<event>
 6    0  0.1631680E+002  0.7442591E+02  0.7546771E-02  0.1345658E+00
          4   -1    0    0  504    0 -0.00000000000E+00  0.00000000000E+00  0.17288364792E+04  0.17288364792E+04  0.00000000000E+00 0. -1.
         21   -1    0    0  503  502  0.00000000000E+00 -0.00000000000E+00 -0.14375945141E+03  0.14375945141E+03  0.00000000000E+00 0. -1.
         21    1    1    2  503  501 -0.39281511106E+02  0.22228051256E+02  0.50794744784E+02  0.67950198492E+02  0.00000000000E+00 0.  1.
         21    1    1    2  504  505  0.28499364911E+02 -0.30825604629E+02  0.20314779114E+03  0.20744024862E+03  0.00000000000E+00 0. -1.
         21    1    1    2  505  502  0.10659050730E+03  0.59016330383E+01 -0.10976794571E+03  0.15311880167E+03  0.00000000000E+00 0. -1.
          4    1    1    2  501    0 -0.95808361101E+02  0.26959203356E+01  0.14409024376E+04  0.14440866819E+04  0.00000000000E+00 0. -1.
<scales pt_clust_3="43.57915" pt_clust_4="41.98133" pt_clust_5="14000.00000" pt_clust_6="74.42591"></scales>
<clustering>
<clus scale="   41.981">  1  4  2 -1</clus>
<clus scale="   43.579">  2  3  1 -1</clus>
<clus scale="   74.426">  1  6  2 -1</clus>
<clus scale="   43.579">  2  3  1 -1</clus>
</clustering>
</event>
<event>
 6    0  0.1631680E+002  0.8272499E+02  0.7546771E-02  0.1321491E+00
         21   -1    0    0  503  502  0.00000000000E+00  0.00000000000E+00  0.19256822400E+03  0.19256822400E+03  0.00000000000E+00 0.  1.
          2   -1    0    0  505    0 -0.00000000000E+00 -0.00000000000E+00 -0.34165757969E+04  0.34165757969E+04  0.00000000000E+00 0. -1.
         21    1    1    2  503  501  0.34801416428E+02  0.30567455399E+02  0.16811452912E+03  0.17437890588E+03  0.00000000000E+00 0.  1.
         21    1    1    2  504  502  0.20640917425E+02 -0.36699708172E+02 -0.22052673388E+02  0.47531425979E+02  0.00000000000E+00 0.  1.
         21    1    1    2  505  504 -0.99110402784E+02  0.73629266039E+02 -0.46682668057E+03  0.48287813209E+03  0.00000000000E+00 0.  1.
          2    1    1    2  501    0  0.43668068931E+02 -0.67497013266E+02 -0.29032427480E+04  0.29043555569E+04  0.00000000000E+00 0. -1.
<scales pt_clust_3="54.63319" pt_clust_4="42.10601" pt_clust_5="14000.00000" pt_clust_6="82.72499"></scales>
<clustering>
<clus scale="   42.106">  1  4  2 -1</clus>
<clus scale="   54.633">  1  3  2 -1</clus>
<clus scale="   82.725">  2  6  1 -1</clus>
<clus scale="   42.106">  1  3  2 -1</clus>
</clustering>
</event>
<event>
 6    0  0.1631680E+002  0.1726583E+03  0.7546771E-02  0.1175104E+00
         21   -1    0    0  503  502  0.00000000000E+00  0.00000000000E+00  0.84924260594E+02  0.84924260594E+02  0.00000000000E+00 0. -1.
          4   -1    0    0  504    0 -0.00000000000E+00 -0.00000000000E+00 -0.26550465939E+04  0.26550465939E+04  0.00000000000E+00 0. -1.
         21    1    1    2  503  501  0.10505499988E+03  0.57064826614E+02  0.17282397081E+02  0.12079581402E+03  0.00000000000E+00 0. -1.
         21    1    1    2  504  505 -0.32944313516E+02 -0.41808598527E+01 -0.12154871346E+03  0.12600355997E+03  0.00000000000E+00 0. -1.
         21    1    1    2  505  502 -0.88125950490E+02  0.13656086922E+03 -0.78855333568E+03  0.80512819933E+03  0.00000000000E+00 0. -1.
          4    1    1    2  501    0  0.16015264124E+02 -0.18944483598E+03 -0.16773026813E+04  0.16880432812E+04  0.00000000000E+00 0. -1.
<scales pt_clust_3="118.92065" pt_clust_4="33.20854" pt_clust_5="14000.00000" pt_clust_6="172.65834"></scales>
<clustering>
<clus scale="   33.209">  2  4  1 -1</clus>
<clus scale="  118.921">  1  3  2 -1</clus>
<clus scale="  172.658">  2  6  1 -1</clus>
<clus scale="  118.921">  1  3  2 -1</clus>
</clustering>
</event>
<event>
 6    0  0.1631680E+002  0.1077062E+03  0.7546771E-02  0.1264878E+00
         21   -1    0    0  503  502  0.00000000000E+00  0.00000000000E+00  0.12708751728E+03  0.12708751728E+03  0.00000000000E+00 0. -1.
          2   -1    0    0  505    0 -0.00000000000E+00 -0.00000000000E+00 -0.15345347858E+04  0.15345347858E+04  0.00000000000E+00 0.  1.
         21    1    1    2  503  501 -0.58401279559E+02  0.58482265653E+02 -0.11259864083E+03  0.13967583458E+03  0.00000000000E+00 0. -1.
         21    1    1    2  504  502  0.85486551296E+00 -0.11423134167E+03  0.69852723632E+02  0.13389896644E+03  0.00000000000E+00 0. -1.
         21    1    1    2  505  504 -0.82594190031E+02 -0.27936587701E+02 -0.58325758158E+03  0.58973863671E+03  0.00000000000E+00 0.  1.
          2    1    1    2  501    0  0.14014060408E+03  0.83685663717E+02 -0.78144376974E+03  0.79830886534E+03  0.00000000000E+00 0.  1.
<scales pt_clust_3="82.64917" pt_clust_4="80.44306" pt_clust_5="107.70619" pt_clust_6="14000.00000"></scales>
<clustering>
<clus scale="   82.649">  1  3  2 -1</clus>
<clus scale="   80.443">  1  4  2 -1</clus>
<clus scale="  107.706">  2  5  1 -1</clus>
<clus scale="   82.649">  1  3  2 -1</clus>
</clustering>
</event>
<event>
 6    0  0.1631680E+002  0.2346721E+03  0.7546771E-02  0.1123394E+00
          1   -1    0    0  505    0 -0.00000000000E+00  0.00000000000E+00  0.86826925346E+03  0.86826925346E+03  0.00000000000E+00 0. -1.
         21   -1    0    0  504  502  0.00000000000E+00 -0.00000000000E+00 -0.15634714938E+03  0.15634714938E+03  0.00000000000E+00 0.  1.
         21    1    1    2  503  502 -0.19808242932E+03  0.17655097989E+02  0.38598217209E+02  0.20257880852E+03  0.00000000000E+00 0.  1.
         21    1    1    2  504  501  0.35679155470E+02  0.58705081863E+02 -0.24100205860E+02  0.72801845403E+02  0.00000000000E+00 0.  1.
         21    1    1    2  505  503 -0.43551580676E+02 -0.61449135858E+01  0.51931648890E+02  0.68054362820E+02  0.00000000000E+00 0. -1.
          1    1    1    2  501    0  0.20595485453E+03 -0.70215266266E+02  0.64549244383E+03  0.68118138610E+03  0.00000000000E+00 0. -1.
<scales pt_clust_3="37.99468" pt_clust_4="68.69708" pt_clust_5="37.99468" pt_clust_6="220.32666"></scales>
<clustering>
<clus scale="   37.995">  3  5 -1 -1</clus>
<clus scale="   68.697">  2  4  1 -1</clus>
<clus scale="  220.327">  1  6  2 -1</clus>
<clus scale="   68.697">  2  3  1 -1</clus>
</clustering>
</event>
<event>
 6    0  0.1631680E+002  0.1037505E+03  0.7546771E-02  0.1272601E+00
         -3   -1    0    0    0  501 -0.00000000000E+00  0.00000000000E+00  0.27368380070E+04  0.27368380070E+04  0.00000000000E+00 0.  1.
         21   -1    0    0  504  502  0.00000000000E+00 -0.00000000000E+00 -0.22175069747E+02  0.22175069747E+02  0.00000000000E+00 0.  1.
         21    1    1    2  503  501 -0.14384858384E+02 -0.35475916954E+02  0.33463404893E+03  0.33681658441E+03  0.00000000000E+00 0. -1.
         21    1    1    2  504  503 -0.17262263245E+02 -0.98201749073E+02  0.26150577684E+03  0.27986932768E+03  0.00000000000E+00 0.  1.
         21    1    1    2  505  502  0.39233442655E+02 -0.37296011209E+00  0.29738810065E+02  0.49232092642E+02  0.00000000000E+00 0.  1.
         -3    1    1    2    0  505 -0.75863210259E+01  0.13405062614E+03  0.20887843014E+04  0.20930950720E+04  0.00000000000E+00 0.  1.
<scales pt_clust_3="38.28139" pt_clust_4="14000.00000" pt_clust_5="39.00861" pt_clust_6="103.75054"></scales>
<clustering>
<clus scale="   38.281">  1  3  2 -1</clus>
<clus scale="   39.009">  2  5  1 -1</clus>
<clus scale="  103.751">  1  6  2 -1</clus>
<clus scale="   39.009">  2  3  1 -1</clus>
</clustering>
</event>
<event>
 6    0  0.1631680E+002  0.7210692E+02  0.7546771E-02  0.1353071E+00
          1   -1    0    0  504    0 -0.00000000000E+00  0.00000000000E+00  0.13561598020E+04  0.13561598020E+04  0.00000000000E+00 0.  1.
         21   -1    0    0  503  502  0.00000000000E+00 -0.00000000000E+00 -0.37670374727E+02  0.37670374727E+02  0.00000000000E+00 0.  1.
         21    1    1    2  503  501 -0.35328557073E+02 -0.68107165913E+02  0.41151768992E+02  0.87064120536E+02  0.00000000000E+00 0.  1.
         21    1    1    2  504  505 -0.22806601012E+02 -0.37441308774E+02  0.79368193996E+03  0.79489182564E+03  0.00000000000E+00 0.  1.
         21    1    1    2  505  502 -0.20192135261E+02  0.72610070674E+02  0.15412602675E+03  0.17156566327E+03  0.00000000000E+00 0. -1.
          1    1    1    2  501    0  0.78327293347E+02  0.32938404013E+02  0.32952969161E+03  0.34030856733E+03  0.00000000000E+00 0.  1.
<scales pt_clust_3="72.10692" pt_clust_4="43.84054" pt_clust_5="14000.00000" pt_clust_6="65.59827"></scales>
<clustering>
<clus scale="   43.841">  1  4  2 -1</clus>
<clus scale="   65.598">  1  6  2 -1</clus>
<clus scale="   72.107">  2  3  1 -1</clus>
<clus scale="   72.107">  2  3  1 -1</clus>
</clustering>
</event>
<event>
 6    0  0.1631680E+002  0.1192448E+03  0.7546771E-02  0.1244348E+00
          3   -1    0    0  505    0 -0.00000000000E+00  0.00000000000E+00  0.80205343163E+03  0.80205343163E+03  0.00000000000E+00 0.  1.
         21   -1    0    0  504  502  0.00000000000E+00 -0.00000000000E+00 -0.76179234768E+02  0.76179234768E+02  0.00000000000E+00 0.  1.
         21    1    1    2  503  502 -0.33031565970E+02  0.58007869351E+02  0.79490338493E+02  0.10380130621E+03  0.00000000000E+00 0. -1.
         21    1    1    2  504  501  0.91073065029E+02  0.56126537972E+02  0.57095599406E+00  0.10698045349E+03  0.00000000000E+00 0.  1.
         21    1    1    2  505  503 -0.43722837072E+02  0.87280148957E+01  0.15428880591E+03  0.16060168229E+03  0.00000000000E+00 0. -1.
          3    1    1    2  501    0 -0.14318661986E+02 -0.12286242222E+03  0.49152409647E+03  0.50684922441E+03  0.00000000000E+00 0.  1.
<scales pt_clust_3="71.06900" pt_clust_4="14000.00000" pt_clust_5="44.58548" pt_clust_6="119.24476"></scales>
<clustering>
<clus scale="   44.585">  1  5  2 -1</clus>
<clus scale="   71.069">  2  3  1 -1</clus>
<clus scale="  119.245">  1  6  2 -1</clus>
<clus scale="   71.069">  2  3  1 -1</clus>
</clustering>
</event>
<event>
 6    0  0.1631680E+002  0.5567185E+02  0.7546771E-02  0.1416948E+00
         21   -1    0    0  504  502  0.00000000000E+00  0.00000000000E+00  0.20806120755E+04  0.20806120755E+04  0.00000000000E+00 0. -1.
          1   -1    0    0  503    0 -0.00000000000E+00 -0.00000000000E+00 -0.26841004540E+03  0.26841004540E+03  0.00000000000E+00 0.  1.
         21    1    1    2  503  505 -0.46567463769E+01  0.46357228996E+02 -0.18374138986E+03  0.18955626160E+03  0.00000000000E+00 0.  1.
         21    1    1    2  504  501  0.37956450525E+02  0.75202595490E+02  0.17523957936E+04  0.17544193171E+04  0.00000000000E+00 0. -1.
         21    1    1    2  505  502 -0.23069314979E+02 -0.22917452679E+02  0.29260390450E+03  0.29440524428E+03  0.00000000000E+00 0. -1.
          1    1    1    2  501    0 -0.10230389168E+02 -0.98642371807E+02 -0.49056278198E+02  0.11064129794E+03  0.00000000000E+00 0.  1.
<scales pt_clust_3="46.55721" pt_clust_4="55.67185" pt_clust_5="32.51773" pt_clust_6="14000.00000"></scales>
<clustering>
<clus scale="   32.518">  1  5  2 -1</clus>
<clus scale="   46.557">  2  3  1 -1</clus>
<clus scale="   55.672">  1  4  2 -1</clus>
<clus scale="   32.518">  1  3  2 -1</clus>
</clustering>
</event>
<event>
 6    0  0.1631680E+002  0.8426497E+02  0.7546771E-02  0.1317366E+00
         21   -1    0    0  504  502  0.00000000000E+00  0.00000000000E+00  0.46865480420E+02  0.46865480420E+02  0.00000000000E+00 0. -1.
          2   -1    0    0  505    0 -0.00000000000E+00 -0.00000000000E+00 -0.22509233942E+04  0.22509233942E+04  0.00000000000E+00 0.  1.
         21    1    1    2  503  502  0.20762592087E+02 -0.41784164806E+02 -0.68894382015E+01  0.47164245117E+02  0.00000000000E+00 0. -1.
         21    1    1    2  504  501  0.46391986599E+02  0.84709526316E+02 -0.84220316279E+02  0.12814437929E+03  0.00000000000E+00 0. -1.
         21    1    1    2  505  503  0.11325055765E+02  0.64431605494E+02 -0.54770186488E+03  0.55159497955E+03  0.00000000000E+00 0.  1.
          2    1    1    2  501    0 -0.78479634452E+02 -0.10735696700E+03 -0.15652462944E+04  0.15708852707E+04  0.00000000000E+00 0.  1.
<scales pt_clust_3="46.65835" pt_clust_4="84.26497" pt_clust_5="62.71639" pt_clust_6="14000.00000"></scales>
<clustering>
<clus scale="   46.658">  1  3  2 -1</clus>
<clus scale="   62.716">  2  5  1 -1</clus>
<clus scale="   84.265">  1  4  2 -1</clus>
<clus scale="   46.658">  1  3  2 -1</clus>
</clustering>
</event>
<event>
 6    0  0.1631680E+002  0.7951972E+02  0.7546771E-02  0.1330420E+00
          2   -1    0    0  503    0 -0.00000000000E+00  0.00000000000E+00  0.29626347445E+04  0.29626347445E+04  0.00000000000E+00 0.  1.
         21   -1    0    0  501  502  0.00000000000E+00 -0.00000000000E+00 -0.21202092856E+02  0.21202092856E+02  0.00000000000E+00 0. -1.
         21    1    1    2  503  505  0.81986704746E+01 -0.31818579853E+02  0.21426088478E+03  0.21676569601E+03  0.00000000000E+00 0. -1.
         21    1    1    2  504  502  0.15271191033E+02 -0.43995426675E+02  0.37279680132E+02  0.59653846436E+02  0.00000000000E+00 0.  1.
         21    1    1    2  505  504 -0.53764805006E+02 -0.30900594795E+02  0.11949412308E+03  0.13462669300E+03  0.00000000000E+00 0. -1.
          2    1    1    2  501    0  0.30294943498E+02  0.10671460132E+03  0.25703979637E+04  0.25727906019E+04  0.00000000000E+00 0.  1.
<scales pt_clust_3="32.85788" pt_clust_4="47.14823" pt_clust_5="79.51972" pt_clust_6="14000.00000"></scales>
<clustering>
<clus scale="   32.858">  1  3  2 -1</clus>
<clus scale="   47.148">  2  4  1 -1</clus>
<clus scale="   79.520">  2  5  1 -1</clus>
<clus scale="   47.148">  2  3  1 -1</clus>
</clustering>
</event>
<event>
 6    0  0.1631680E+002  0.8170006E+02  0.7546771E-02  0.1324295E+00
          2   -1    0    0  503    0 -0.00000000000E+00  0.00000000000E+00  0.11414064960E+04  0.11414064960E+04  0.00000000000E+00 0.  1.
         21   -1    0    0  505  502  0.00000000000E+00 -0.00000000000E+00 -0.35173889310E+03  0.35173889310E+03  0.00000000000E+00 0.  1.
         21    1    1    2  503  502  0.10413530201E+03  0.73094932254E+01 -0.25203580727E+03  0.27279962970E+03  0.00000000000E+00 0.  1.
         21    1    1    2  504  501 -0.43396617257E+02 -0.59768338614E+02  0.33716165321E+03  0.34515721213E+03  0.00000000000E+00 0.  1.
         21    1    1    2  505  504 -0.28409590701E+02  0.24254474070E+02 -0.80620984263E+02  0.88854529765E+02  0.00000000000E+00 0. -1.
          2    1    1    2  501    0 -0.32329094049E+02  0.28204371318E+02  0.78516274120E+03  0.78633401748E+03  0.00000000000E+00 0.  1.
<scales pt_clust_3="81.70006" pt_clust_4="14000.00000" pt_clust_5="37.35484" pt_clust_6="42.98481"></scales>
<clustering>
<clus scale="   37.355">  2  5  1 -1</clus>
<clus scale="   42.985">  1  6  2 -1</clus>
<clus scale="   81.700">  2  3  1 -1</clus>
<clus scale="   37.355">  2  3  1 -1</clus>
</clustering>
</event>
<event>
 6    0  0.1631680E+002  0.7714080E+02  0.7546771E-02  0.1337367E+00
         -4   -1    0    0    0  501 -0.00000000000E+00  0.00000000000E+00  0.46643881750E+03  0.46643881750E+03  0.00000000000E+00 0. -1.
         21   -1    0    0  505  502  0.00000000000E+00 -0.00000000000E+00 -0.20718838472E+04  0.20718838472E+04  0.00000000000E+00 0. -1.
         21    1    1    2  503  502  0.84813474577E+01 -0.76678215728E+02 -0.20228406505E+04  0.20243111864E+04  0.00000000000E+00 0. -1.
         21    1    1    2  504  503 -0.27939809006E+02  0.73361149957E+02  0.15692745651E+03  0.17546714182E+03  0.00000000000E+00 0. -1.
         21    1    1    2  505  501  0.52604339123E+02  0.25411091580E+02 -0.14915617247E+02  0.60294408594E+02  0.00000000000E+00 0.  1.
         -4    1    1    2    0  504 -0.33145877575E+02 -0.22094025809E+02  0.27538378160E+03  0.27824992784E+03  0.00000000000E+00 0. -1.
<scales pt_clust_3="14000.00000" pt_clust_4="77.14080" pt_clust_5="53.70319" pt_clust_6="39.83460"></scales>
<clustering>
<clus scale="   39.835">  1  6  2 -1</clus>
<clus scale="   53.703">  1  5  2 -1</clus>
<clus scale="   77.141">  1  4  2 -1</clus>
<clus scale="   77.141">  2  3  1 -1</clus>
</clustering>
</event>
<event>
 6    0  0.1631680E+002  0.1476850E+03  0.7546771E-02  0.1203347E+00
         21   -1    0    0  505  502  0.00000000000E+00  0.00000000000E+00  0.58281040869E+02  0.58281040869E+02  0.00000000000E+00 0.  1.
          1   -1    0    0  504    0 -0.00000000000E+00 -0.00000000000E+00 -0.16053522161E+04  0.16053522161E+04  0.00000000000E+00 0.  1.
         21    1    1    2  503  502  0.69106741276E+02  0.91535693476E+02 -0.50540309783E+03  0.51825362147E+03  0.00000000000E+00 0.  1.
         21    1    1    2  504  503  0.61442967955E+01  0.53443315130E+02 -0.50671941895E+03  0.50956698270E+03  0.00000000000E+00 0. -1.
         21    1    1    2  505  501 -0.10917302938E+03 -0.11120493834E+03 -0.74229067426E+02  0.17261298649E+03  0.00000000000E+00 0.  1.
          1    1    1    2  501    0  0.33921991304E+02 -0.33774070268E+02 -0.46071959108E+03  0.46319966636E+03  0.00000000000E+00 0.  1.
<scales pt_clust_3="147.68501" pt_clust_4="43.90236" pt_clust_5="14000.00000" pt_clust_6="47.86846"></scales>
<clustering>
<clus scale="   47.868">  2  6  1 -1</clus>
<clus scale="   43.902">  2  4  1 -1</clus>
<clus scale="  147.685">  2  3  1 -1</clus>
<clus scale="  147.685">  1  3  2 -1</clus>
</clustering>
</event>
<event>
 6    0  0.1631680E+002  0.1481920E+03  0.7546771E-02  0.1202712E+00
          2   -1    0    0  504    0 -0.00000000000E+00  0.00000000000E+00  0.26481938608E+04  0.26481938608E+04  0.00000000000E+00 0. -1.
         21   -1    0    0  505  502  0.00000000000E+00 -0.00000000000E+00 -0.25063862330E+02  0.25063862330E+02  0.00000000000E+00 0.  1.
         21    1    1    2  503  502 -0.81049790804E+02  0.11292163905E+03  0.25358083815E+03  0.28917746563E+03  0.00000000000E+00 0.  1.
         21    1    1    2  504  503 -0.88106138224E+01 -0.30418042691E+02  0.67196312757E+03  0.67270894825E+03  0.00000000000E+00 0.  1.
         21    1    1    2  505  501 -0.31634798496E+02 -0.82267087448E+01  0.66685290961E+02  0.74265518535E+02  0.00000000000E+00 0.  1.
          2    1    1    2  501    0  0.12149520312E+03 -0.74276887612E+02  0.16309007418E+04  0.16371057907E+04  0.00000000000E+00 0. -1.
<scales pt_clust_3="148.19202" pt_clust_4="31.66835" pt_clust_5="33.27836" pt_clust_6="14000.00000"></scales>
<clustering>
<clus scale="   31.668">  1  4  2 -1</clus>
<clus scale="   33.278">  2  5  1 -1</clus>
<clus scale="  148.192">  2  3  1 -1</clus>
<clus scale="   33.278">  2  3  1 -1</clus>
</clustering>
</event>
<event>
 6    0  0.1631680E+002  0.1694090E+03  0.7546771E-02  0.1178466E+00
          2   -1    0    0  504    0 -0.00000000000E+00  0.00000000000E+00  0.23797937727E+04  0.23797937727E+04  0.00000000000E+00 0. -1.
         21   -1    0    0  503  502  0.00000000000E+00 -0.00000000000E+00 -0.23162022243E+02  0.23162022243E+02  0.00000000000E+00 0. -1.
         21    1    1    2  503  501  0.24349056388E+02  0.47814633115E+02  0.20752850440E+03  0.21435297018E+03  0.00000000000E+00 0. -1.
         21    1    1    2  504  505  0.34646974432E+02  0.39819358027E+01  0.89623943021E+03  0.89691771357E+03  0.00000000000E+00 0. -1.
         21    1    1    2  505  502 -0.15316362403E+03 -0.87485075850E+02  0.10552619187E+04  0.10699020755E+04  0.00000000000E+00 0. -1.
          2    1    1    2  501    0  0.94167593215E+02  0.35688506932E+02  0.19760189714E+03  0.22178303563E+03  0.00000000000E+00 0. -1.
<scales pt_clust_3="52.10714" pt_clust_4="34.87504" pt_clust_5="153.73486" pt_clust_6="52.10714"></scales>
<clustering>
<clus scale="   34.875">  1  4  2 -1</clus>
<clus scale="   52.107">  3  6 -1 -1</clus>
<clus scale="  153.735">  1  5  2 -1</clus>
<clus scale="  169.409">  2  3  1 -1</clus>
</clustering>
</event>
<event>
 6    0  0.1631680E+002  0.6355410E+02  0.7546771E-02  0.1383494E+00
         21   -1    0    0  503  502  0.00000000000E+00  0.00000000000E+00  0.59375757646E+02  0.59375757646E+02  0.00000000000E+00 0.  1.
          1   -1    0    0  505    0 -0.00000000000E+00 -0.00000000000E+00 -0.25982782054E+04  0.25982782054E+04  0.00000000000E+00 0.  1.
         21    1    1    2  503  501  0.78798272533E+01  0.37638677053E+02 -0.58779367972E+02  0.70240841303E+02  0.00000000000E+00 0.  1.
         21    1    1    2  504  502 -0.52500004894E+02 -0.79943826907E+02  0.65136099019E+01  0.95862886919E+02  0.00000000000E+00 0.  1.
         21    1    1    2  505  504  0.13137710052E+02 -0.37794018310E+02 -0.24369540272E+03  0.24695837008E+03  0.00000000000E+00 0.  1.
          1    1    1    2  501    0  0.31482467589E+02  0.80099168165E+02 -0.22429412869E+04  0.22445918647E+04  0.00000000000E+00 0.  1.
<scales pt_clust_3="38.45467" pt_clust_4="14000.00000" pt_clust_5="39.01445" pt_clust_6="63.55410"></scales>
<clustering>
<clus scale="   38.455">  1  3  2 -1</clus>
<clus scale="   39.014">  2  5  1 -1</clus>
<clus scale="   63.554">  2  6  1 -1</clus>
<clus scale="   38.455">  1  3  2 -1</clus>
</clustering>
</event>
<event>
 6    0  0.1631680E+002  0.1027773E+03  0.7546771E-02  0.1274562E+00
         21   -1    0    0  504  502  0.00000000000E+00  0.00000000000E+00  0.36684861117E+03  0.36684861117E+03  0.00000000000E+00 0. -1.
         -4   -1    0    0    0  501 -0.00000000000E+00 -0.00000000000E+00 -0.58892509319E+03  0.58892509319E+03  0.00000000000E+00 0.  1.
         21    1    1    2  503  501 -0.61755159304E+02  0.51158364903E+02 -0.15489028015E+03  0.17441868273E+03  0.00000000000E+00 0.  1.
         21    1    1    2  504  503 -0.27745015395E+02 -0.15648711362E+02  0.72196642314E+02  0.78911489708E+02  0.00000000000E+00 0. -1.
         21    1    1    2  505  502  0.71644462974E+01  0.58576246889E+02  0.26897629745E+03  0.27537384512E+03  0.00000000000E+00 0. -1.
         -4    1    1    2    0  505  0.82335728402E+02 -0.94085900430E+02 -0.40835914163E+03  0.42706968680E+03  0.00000000000E+00 0.  1.
<scales pt_clust_3="14000.00000" pt_clust_4="31.85385" pt_clust_5="47.79048" pt_clust_6="102.77728"></scales>
<clustering>
<clus scale="   31.854">  1  4  2 -1</clus>
<clus scale="   47.790">  1  5  2 -1</clus>
<clus scale="  102.777">  2  6  1 -1</clus>
<clus scale="   31.854">  1  3  2 -1</clus>
</clustering>
</event>
<event>
 6    0  0.1631680E+002  0.8530047E+02  0.7546771E-02  0.1314649E+00
          2   -1    0    0  504    0 -0.00000000000E+00  0.00000000000E+00  0.46269964500E+03  0.46269964500E+03  0.00000000000E+00 0.  1.
         21   -1    0    0  501  502  0.00000000000E+00 -0.00000000000E+00 -0.25450218490E+03  0.25450218490E+03  0.00000000000E+00 0.  1.
         21    1    1    2  503  505  0.11316378012E+03  0.63872855675E+02 -0.19423942455E+03  0.23369796078E+03  0.00000000000E+00 0.  1.
         21    1    1    2  504  503 -0.29495815847E+02 -0.68009216390E+01  0.49994949580E+02  0.58444423782E+02  0.00000000000E+00 0. -1.
         21    1    1    2  505  502 -0.24966163001E+02 -0.65675756476E+02  0.26914305800E+01  0.70312574140E+02  0.00000000000E+00 0.  1.
          2    1    1    2  501    0 -0.58701801271E+02  0.86038224398E+01  0.34975050449E+03  0.35474687120E+03  0.00000000000E+00 0.  1.
<scales pt_clust_3="14000.00000" pt_clust_4="30.26972" pt_clust_5="71.80089" pt_clust_6="85.30047"></scales>
<clustering>
<clus scale="   30.270">  1  4  2 -1</clus>
<clus scale="   71.801">  2  5  1 -1</clus>
<clus scale="   85.300">  1  6  2 -1</clus>
<clus scale="   71.801">  2  3  1 -1</clus>
</clustering>
</event>
<event>
 6    0  0.1631680E+002  0.1012198E+03  0.7546771E-02  0.1277752E+00
         21   -1    0    0  504  502  0.00000000000E+00  0.00000000000E+00  0.16470461926E+02  0.16470461926E+02  0.00000000000E+00 0.  1.
          1   -1    0    0  505    0 -0.00000000000E+00 -0.00000000000E+00 -0.34382228235E+04  0.34382228235E+04  0.00000000000E+00 0. -1.
         21    1    1    2  503  502 -0.30067109018E+02  0.30690370638E+02 -0.13679582125E+03  0.14338419231E+03  0.00000000000E+00 0.  1.
         21    1    1    2  504  501  0.56412276285E+02 -0.48031578477E+02 -0.13102994735E+03  0.15052649119E+03  0.00000000000E+00 0.  1.
         21    1    1    2  505  503  0.28789362889E+02 -0.80816740564E+02 -0.91049636353E+03  0.91452927836E+03  0.00000000000E+00 0. -1.
          1    1    1    2  501    0 -0.55134530156E+02  0.98157948403E+02 -0.22434302294E+04  0.22462533236E+04  0.00000000000E+00 0. -1.
<scales pt_clust_3="42.96429" pt_clust_4="42.53019" pt_clust_5="14000.00000" pt_clust_6="101.21980"></scales>
<clustering>
<clus scale="   42.964">  1  3  2 -1</clus>
<clus scale="   42.530">  1  4  2 -1</clus>
<clus scale="  101.220">  2  6  1 -1</clus>
<clus scale="   42.964">  1  3  2 -1</clus>
</clustering>
</event>
<event>
 6    0  0.1631680E+002  0.1214260E+03  0.7546771E-02  0.1240763E+00
         21   -1    0    0  505  502  0.00000000000E+00  0.00000000000E+00  0.69260494897E+02  0.69260494897E+02  0.00000000000E+00 0.  1.
         -1   -1    0    0    0  501 -0.00000000000E+00 -0.00000000000E+00 -0.24662206512E+04  0.24662206512E+04  0.00000000000E+00 0.  1.
         21    1    1    2  503  501  0.27527309631E+01 -0.43360874676E+02 -0.89802230838E+03  0.89907274974E+03  0.00000000000E+00 0.  1.
         21    1    1    2  504  502 -0.97114215683E+02  0.30212118141E+02 -0.15222165538E+03  0.18307204957E+03  0.00000000000E+00 0. -1.
         21    1    1    2  505  503  0.13363530548E+03  0.32999868593E+02 -0.36533949632E+02  0.14241529298E+03  0.00000000000E+00 0.  1.
         -1    1    1    2    0  504 -0.39273820762E+02 -0.19851112057E+02 -0.13101822429E+04  0.13109210538E+04  0.00000000000E+00 0.  1.
<scales pt_clust_3="43.44816" pt_clust_4="14000.00000" pt_clust_5="121.42603" pt_clust_6="67.18780"></scales>
<clustering>
<clus scale="   43.448">  2  3  1 -1</clus>
<clus scale="   67.188">  2  6  1 -1</clus>
<clus scale="  121.426">  1  5  2 -1</clus>
<clus scale="  121.426">  1  3  2 -1</clus>
</clustering>
</event>
<event>
 6    0  0.1631680E+002  0.6292016E+02  0.7546771E-02  0.1385970E+00
         -3   -1    0    0    0  501 -0.00000000000E+00  0.00000000000E+00  0.37692167455E+03  0.37692167455E+03  0.00000000000E+00 0. -1.
         21   -1    0    0  505  502  0.00000000000E+00 -0.00000000000E+00 -0.45165414177E+03  0.45165414177E+03  0.00000000000E+00 0. -1.
         21    1    1    2  503  504  0.72420088440E+02  0.48458004425E+02 -0.16863888359E+03  0.18982075877E+03  0.00000000000E+00 0. -1.
         21    1    1    2  504  501 -0.81511801950E+02  0.23433376695E+02  0.13007627764E+03  0.15528404621E+03  0.00000000000E+00 0. -1.
         21    1    1    2  505  503 -0.29554087298E+02 -0.49150068124E+02 -0.25434746113E+03  0.26073320512E+03  0.00000000000E+00 0. -1.
         -3    1    1    2    0  502  0.38645800808E+02 -0.22741312996E+02  0.21817759986E+03  0.22273780622E+03  0.00000000000E+00 0. -1.
<scales pt_clust_3="14000.00000" pt_clust_4="46.34898" pt_clust_5="62.92016" pt_clust_6="44.84044"></scales>
<clustering>
<clus scale="   44.840">  1  6  2 -1</clus>
<clus scale="   46.349">  1  4  2 -1</clus>
<clus scale="   62.920">  2  5  1 -1</clus>
<clus scale="   62.920">  2  3  1 -1</clus>
</clustering>
</event>
<event>
 6    0  0.1631680E+002  0.1357811E+03  0.7546771E-02  0.1219121E+00
          4   -1    0    0  503    0 -0.00000000000E+00  0.00000000000E+00  0.92045758978E+03  0.92045758978E+03  0.00000000000E+00 0.  1.
         21   -1    0    0  505  502  0.00000000000E+00 -0.00000000000E+00 -0.13800069981E+03  0.13800069981E+03  0.00000000000E+00 0. -1.
         21    1    1    2  503  504 -0.77197332902E+02 -0.10937860039E+02  0.28645324138E+03  0.29687459387E+03  0.00000000000E+00 0. -1.
         21    1    1    2  504  502  0.69779369567E+02  0.11294405020E+03  0.18213059834E+03  0.22538206172E+03  0.00000000000E+00 0.  1.
         21    1    1    2  505  501 -0.25196241653E+01 -0.13980228691E+03 -0.65792140503E+02  0.15453036492E+03  0.00000000000E+00 0. -1.
          4    1    1    2  501    0  0.99375875001E+01  0.37796096748E+02  0.37966519075E+03  0.38167126908E+03  0.00000000000E+00 0.  1.
<scales pt_clust_3="72.45125" pt_clust_4="135.78105" pt_clust_5="14000.00000" pt_clust_6="39.08069"></scales>
<clustering>
<clus scale="   39.081">  1  6  2 -1</clus>
<clus scale="   72.451">  1  3  2 -1</clus>
<clus scale="  135.781">  1  4  2 -1</clus>
<clus scale="  135.781">  2  3  1 -1</clus>
</clustering>
</event>
<event>
 6    0  0.1631680E+002  0.1435311E+03  0.7546771E-02  0.1208655E+00
         21   -1    0    0  501  502  0.00000000000E+00  0.00000000000E+00  0.27299091407E+03  0.27299091407E+03  0.00000000000E+00 0. -1.
          2   -1    0    0  505    0 -0.00000000000E+00 -0.00000000000E+00 -0.91156115576E+03  0.91156115576E+03  0.00000000000E+00 0. -1.
         21    1    1    2  503  502 -0.12667778198E+03  0.71356745711E+02  0.17612491015E+03  0.22838351425E+03  0.00000000000E+00 0. -1.
         21    1    1    2  504  503  0.69269601044E+02 -0.14217214092E+03 -0.59803932298E+02  0.16907899219E+03  0.00000000000E+00 0. -1.
         21    1    1    2  505  504  0.57484668701E+02 -0.19650604225E+02 -0.62974838880E+03  0.63267184747E+03  0.00000000000E+00 0. -1.
          2    1    1    2  501    0 -0.76487760422E-01  0.90465999433E+02 -0.12514283073E+03  0.15441771591E+03  0.00000000000E+00 0. -1.
<scales pt_clust_3="143.53112" pt_clust_4="14000.00000" pt_clust_5="60.75058" pt_clust_6="85.58319"></scales>
<clustering>
<clus scale="   60.751">  2  5  1 -1</clus>
<clus scale="   85.583">  2  6  1 -1</clus>
<clus scale="  143.531">  1  3  2 -1</clus>
<clus scale="  143.531">  1  3  2 -1</clus>
</clustering>
</event>
<event>
 6    0  0.1631680E+002  0.6909765E+02  0.7546771E-02  0.1363189E+00
          1   -1    0    0  503    0 -0.00000000000E+00  0.00000000000E+00  0.27036783344E+03  0.27036783344E+03  0.00000000000E+00 0.  1.
         21   -1    0    0  505  502  0.00000000000E+00 -0.00000000000E+00 -0.14666785231E+04  0.14666785231E+04  0.00000000000E+00 0.  1.
         21    1    1    2  503  504 -0.31281951717E+02  0.14912404409E+02 -0.11275200886E+02  0.36442701100E+02  0.00000000000E+00 0.  1.
         21    1    1    2  504  502  0.48955551209E+02  0.54287171497E+02 -0.12918243551E+04  0.12938909952E+04  0.00000000000E+00 0.  1.
         21    1    1    2  505  501 -0.61860414040E+02  0.39329377408E+00 -0.13648564235E+03  0.14985057915E+03  0.00000000000E+00 0.  1.
          1    1    1    2  501    0  0.44186814548E+02 -0.69592869679E+02  0.24327450872E+03  0.25686208105E+03  0.00000000000E+00 0.  1.
<scales pt_clust_3="34.65459" pt_clust_4="14000.00000" pt_clust_5="69.09765" pt_clust_6="56.83787"></scales>
<clustering>
<clus scale="   34.655">  1  3  2 -1</clus>
<clus scale="   56.838">  1  6  2 -1</clus>
<clus scale="   69.098">  1  5  2 -1</clus>
<clus scale="   69.098">  2  3  1 -1</clus>
</clustering>
</event>
<event>
 6    0  0.1631680E+002  0.9437088E+02  0.7546771E-02  0.1292599E+00
         21   -1    0    0  503  502  0.00000000000E+00  0.00000000000E+00  0.82621307762E+03  0.82621307762E+03  0.00000000000E+00 0. -1.
          2   -1    0    0  504    0 -0.00000000000E+00 -0.00000000000E+00 -0.11825954754E+03  0.11825954754E+03  0.00000000000E+00 0.  1.
         21    1    1    2  503  501 -0.33734714560E+02  0.69988131457E+01  0.45363592474E+03  0.45494237720E+03  0.00000000000E+00 0. -1.
         21    1    1    2  504  505 -0.24089233297E+02  0.22867703756E+02 -0.77118881640E+02  0.83967523134E+02  0.00000000000E+00 0.  1.
         21    1    1    2  505  502 -0.61924144643E+02  0.18980932320E+02  0.23628995627E+03  0.24500575282E+03  0.00000000000E+00 0. -1.
          2    1    1    2  501    0  0.11974809250E+03 -0.48847449222E+02  0.95146530704E+02  0.16055697200E+03  0.00000000000E+00 0.  1.
<scales pt_clust_3="34.94336" pt_clust_4="33.21480" pt_clust_5="14000.00000" pt_clust_6="94.37088"></scales>
<clustering>
<clus scale="   33.215">  2  4  1 -1</clus>
<clus scale="   34.943">  1  3  2 -1</clus>
<clus scale="   94.371">  2  6  1 -1</clus>
<clus scale="   34.943">  1  3  2 -1</clus>
</clustering>
</event>
<event>
 6    0  0.1631680E+002  0.2810425E+03  0.7546771E-02  0.1095121E+00
          2   -1    0    0  503    0 -0.00000000000E+00  0.00000000000E+00  0.45250683089E+03  0.45250683089E+03  0.00000000000E+00 0.  1.
         21   -1    0    0  504  502  0.00000000000E+00 -0.00000000000E+00 -0.17184406910E+03  0.17184406910E+03  0.00000000000E+00 0.  1.
         21    1    1    2  503  502  0.22419769625E+03 -0.12899885916E+03  0.21350729865E+03  0.33539630178E+03  0.00000000000E+00 0.  1.
         21    1    1    2  504  505 -0.74486433608E+02  0.44870738025E+02  0.60152871535E+02  0.10573542394E+03  0.00000000000E+00 0.  1.
         21    1    1    2  505  501 -0.52716860444E+02  0.57179198912E+02  0.23416940816E+02  0.81221187387E+02  0.00000000000E+00 0.  1.
          2    1    1    2  501    0 -0.96994402202E+02  0.26948922222E+02 -0.16414349208E+02  0.10199798688E+03  0.00000000000E+00 0.  1.
<scales pt_clust_3="258.66061" pt_clust_4="77.32876" pt_clust_5="35.05509" pt_clust_6="77.32876"></scales>
<clustering>
<clus scale="   35.055">  4  5 -1 -1</clus>
<clus scale="   77.329">  4  6 -1 -1</clus>
<clus scale="  258.661">  1  3  2 -1</clus>
<clus scale="  281.043">  2  3  1 -1</clus>
</clustering>
</event>
<event>
 6    0  0.1631680E+002  0.1309192E+03  0.7546771E-02  0.1226098E+00
         21   -1    0    0  505  502  0.00000000000E+00  0.00000000000E+00  0.26768691807E+03  0.26768691807E+03  0.00000000000E+00 0. -1.
          2   -1    0    0  504    0 -0.00000000000E+00 -0.00000000000E+00 -0.25485716979E+04  0.25485716979E+04  0.00000000000E+00 0. -1.
         21    1    1    2  503  501  0.44779117394E+02  0.81160986366E+02 -0.42312120932E+01  0.92791046002E+02  0.00000000000E+00 0. -1.
         21    1    1    2  504  502 -0.15650427910E+02 -0.25935892826E+02 -0.99892990065E+02  0.10438494094E+03  0.00000000000E+00 0. -1.
         21    1    1    2  505  503 -0.65942559073E+02  0.54069281291E+02  0.21149735651E+03  0.22804175076E+03  0.00000000000E+00 0. -1.
          2    1    1    2  501    0  0.36813869588E+02 -0.10929437483E+03 -0.23882579342E+04  0.23910408783E+04  0.00000000000E+00 0. -1.
<scales pt_clust_3="14000.00000" pt_clust_4="30.29202" pt_clust_5="85.26086" pt_clust_6="130.91924"></scales>
<clustering>
<clus scale="   30.292">  2  4  1 -1</clus>
<clus scale="   85.261">  1  5  2 -1</clus>
<clus scale="  130.919">  2  6  1 -1</clus>
<clus scale="   85.261">  1  3  2 -1</clus>
</clustering>
</event>
<event>
 6    0  0.1631680E+002  0.1414336E+03  0.7546771E-02  0.1211413E+00
         21   -1    0    0  504  502  0.00000000000E+00  0.00000000000E+00  0.72184815377E+02  0.72184815377E+02  0.00000000000E+00 0.  1.
          2   -1    0    0  503    0 -0.00000000000E+00 -0.00000000000E+00 -0.29606792578E+04  0.29606792578E+04  0.00000000000E+00 0.  1.
         21    1    1    2  503  502 -0.14078894154E+03  0.16715035782E+02 -0.12866888032E+04  0.12944763399E+04  0.00000000000E+00 0.  1.
         21    1    1    2  504  505 -0.27902526444E+02  0.12491765100E+02  0.30745663434E+02  0.43357709779E+02  0.00000000000E+00 0.  1.
         21    1    1    2  505  501  0.35833213679E+02  0.24856142464E+02  0.11205544745E+02  0.45026783738E+02  0.00000000000E+00 0.  1.
          2    1    1    2  501    0  0.13285825430E+03 -0.54062943347E+02 -0.16437568474E+04  0.16500032397E+04  0.00000000000E+00 0.  1.
<scales pt_clust_3="14000.00000" pt_clust_4="30.57115" pt_clust_5="37.37748" pt_clust_6="141.43357"></scales>
<clustering>
<clus scale="   30.571">  1  4  2 -1</clus>
<clus scale="   37.377">  1  5  2 -1</clus>
<clus scale="  141.434">  2  6  1 -1</clus>
<clus scale="   30.571">  1  3  2 -1</clus>
</clustering>
</event>
<event>
 6    0  0.1631680E+002  0.1232367E+03  0.7546771E-02  0.1237851E+00
          3   -1    0    0  504    0 -0.00000000000E+00  0.00000000000E+00  0.32424681163E+03  0.32424681163E+03  0.00000000000E+00 0. -1.
         21   -1    0    0  505  502  0.00000000000E+00 -0.00000000000E+00 -0.91487431150E+02  0.91487431150E+02  0.00000000000E+00 0. -1.
         21    1    1    2  503  502 -0.74153069149E+02 -0.41723564215E+02  0.92021179022E+02  0.12532928973E+03  0.00000000000E+00 0. -1.
         21    1    1    2  504  503 -0.10504836493E+02 -0.34467472938E+02  0.71318733230E+02  0.79904442867E+02  0.00000000000E+00 0. -1.
         21    1    1    2  505  501  0.11766016657E+03  0.12221275742E+02  0.12925493987E+02  0.11899723851E+03  0.00000000000E+00 0. -1.
          3    1    1    2  501    0 -0.33002260929E+02  0.63969761411E+02  0.56493974240E+02  0.91503271673E+02  0.00000000000E+00 0. -1.
<scales pt_clust_3="32.33514" pt_clust_4="32.33514" pt_clust_5="112.77574" pt_clust_6="71.98111"></scales>
<clustering>
<clus scale="   32.335">  3  4 -1 -1</clus>
<clus scale="   71.981">  1  6  2 -1</clus>
<clus scale="  112.776">  2  5  1 -1</clus>
<clus scale="  112.776">  2  3  1 -1</clus>
</clustering>
</event>
<event>
 6    0  0.1631680E+002  0.1819088E+03  0.7546771E-02  0.1165968E+00
          4   -1    0    0  505    0 -0.00000000000E+00  0.00000000000E+00  0.81664917434E+02  0.81664917434E+02  0.00000000000E+00 0. -1.
         21   -1    0    0  501  502  0.00000000000E+00 -0.00000000000E+00 -0.15515555660E+04  0.15515555660E+04  0.00000000000E+00 0.  1.
         21    1    1    2  503  504  0.16521084565E+03  0.76696445614E+02 -0.39779174507E+03  0.43751027500E+03  0.00000000000E+00 0.  1.
         21    1    1    2  504  502  0.50473319411E+02  0.17758773991E+02 -0.41023323509E+03  0.41370791291E+03  0.00000000000E+00 0.  1.
         21    1    1    2  505  503 -0.29298540956E+02 -0.68890033357E+01  0.40279111075E+02  0.50281901894E+02  0.00000000000E+00 0. -1.
          4    1    1    2  501    0 -0.18638562410E+03 -0.87566216269E+02 -0.70214477944E+03  0.73172039359E+03  0.00000000000E+00 0. -1.
<scales pt_clust_3="14000.00000" pt_clust_4="52.07772" pt_clust_5="30.09756" pt_clust_6="181.90879"></scales>
<clustering>
<clus scale="   30.098">  1  5  2 -1</clus>
<clus scale="   52.078">  2  4  1 -1</clus>
<clus scale="  181.909">  2  6  1 -1</clus>
<clus scale="   52.078">  2  3  1 -1</clus>
</clustering>
</event>
<event>
 6    0  0.1631680E+002  0.6666122E+02  0.7546771E-02  0.1371829E+00
         -2   -1    0    0    0  501 -0.00000000000E+00  0.00000000000E+00  0.36009790272E+03  0.36009790272E+03  0.00000000000E+00 0.  1.
         21   -1    0    0  504  502  0.00000000000E+00 -0.00000000000E+00 -0.99546658480E+02  0.99546658480E+02  0.00000000000E+00 0.  1.
         21    1    1    2  503  502  0.39106753351E+02  0.37657416809E+02 -0.14517925730E+02  0.56197770115E+02  0.00000000000E+00 0.  1.
         21    1    1    2  504  505 -0.55699719196E+02 -0.70934646765E+02 -0.13461267088E+02  0.91188752277E+02  0.00000000000E+00 0.  1.
         21    1    1    2  505  501 -0.50322537582E+01 -0.40185599363E+02  0.72341362854E+02  0.82906445791E+02  0.00000000000E+00 0. -1.
         -2    1    1    2    0  503  0.21625219603E+02  0.73462829319E+02  0.21618907421E+03  0.22935159302E+03  0.00000000000E+00 0.  1.
<scales pt_clust_3="66.66122" pt_clust_4="14000.00000" pt_clust_5="40.49946" pt_clust_6="45.34930"></scales>
<clustering>
<clus scale="   40.499">  1  5  2 -1</clus>
<clus scale="   45.349">  1  6  2 -1</clus>
<clus scale="   66.661">  2  3  1 -1</clus>
<clus scale="   66.661">  2  3  1 -1</clus>
</clustering>
</event>
<event>
 6    0  0.1631680E+002  0.1279148E+03  0.7546771E-02  0.1230583E+00
          1   -1    0    0  504    0 -0.00000000000E+00  0.00000000000E+00  0.30586716411E+03  0.30586716411E+03  0.00000000000E+00 0. -1.
         21   -1    0    0  501  502  0.00000000000E+00 -0.00000000000E+00 -0.78183130619E+03  0.78183130619E+03  0.00000000000E+00 0. -1.
         21    1    1    2  503  502  0.22352782468E+02 -0.64121036341E+02 -0.31866402896E+03  0.32581884159E+03  0.00000000000E+00 0. -1.
         21    1    1    2  504  505  0.31427795546E+02  0.20585401720E+02  0.50590689903E+02  0.63014942686E+02  0.00000000000E+00 0. -1.
         21    1    1    2  505  503 -0.24169203394E+02 -0.51064284451E+02 -0.44149722699E+03  0.44509719498E+03  0.00000000000E+00 0. -1.
          1    1    1    2  501    0 -0.29611374621E+02  0.94599919072E+02  0.23360642396E+03  0.25376749104E+03  0.00000000000E+00 0. -1.
<scales pt_clust_3="51.50378" pt_clust_4="37.56947" pt_clust_5="51.50378" pt_clust_6="114.74652"></scales>
<clustering>
<clus scale="   37.569">  1  4  2 -1</clus>
<clus scale="   51.504">  3  5 -1 -1</clus>
<clus scale="  114.747">  1  6  2 -1</clus>
<clus scale="  127.915">  2  3  1 -1</clus>
</clustering>
</event>
<event>
 6    0  0.1631680E+002  0.9651212E+02  0.7546771E-02  0.1287806E+00
         21   -1    0    0  501  502  0.00000000000E+00  0.00000000000E+00  0.29026653750E+03  0.29026653750E+03  0.00000000000E+00 0. -1.
          2   -1    0    0  505    0 -0.00000000000E+00 -0.00000000000E+00 -0.22720880772E+03  0.22720880772E+03  0.00000000000E+00 0. -1.
         21    1    1    2  503  504 -0.35184332932E+02 -0.64905311919E+02  0.93372464615E+02  0.11903383531E+03  0.00000000000E+00 0. -1.
         21    1    1    2  504  502  0.20536731455E+02 -0.35447398868E+02  0.14446077183E+03  0.15015721768E+03  0.00000000000E+00 0. -1.
         21    1    1    2  505  503  0.34729482801E+02 -0.21287487544E+02 -0.89632788457E+02  0.98454714809E+02  0.00000000000E+00 0. -1.
          2    1    1    2  501    0 -0.20081881324E+02  0.12164019833E+03 -0.85142718204E+02  0.14982957742E+03  0.00000000000E+00 0. -1.
<scales pt_clust_3="14000.00000" pt_clust_4="41.73516" pt_clust_5="40.73443" pt_clust_6="96.51212"></scales>
<clustering>
<clus scale="   40.734">  2  5  1 -1</clus>
<clus scale="   41.735">  1  4  2 -1</clus>
<clus scale="   96.512">  2  6  1 -1</clus>
<clus scale="   41.735">  1  3  2 -1</clus>
</clustering>
</event>
<event>
 6    0  0.1631680E+002  0.8228537E+02  0.7546771E-02  0.1322688E+00
         21   -1    0    0  504  502  0.00000000000E+00  0.00000000000E+00  0.25102196697E+03  0.25102196697E+03  0.00000000000E+00 0.  1.
          3   -1    0    0  505    0 -0.00000000000E+00 -0.00000000000E+00 -0.11252444931E+04  0.11252444931E+04  0.00000000000E+00 0.  1.
         21    1    1    2  503  502  0.70648917371E+02 -0.55251213545E+02  0.15159702288E+02  0.90960335846E+02  0.00000000000E+00 0.  1.
         21    1    1    2  504  501  0.66841472579E+01  0.70207939941E+02  0.17620383642E+03  0.18979363694E+03  0.00000000000E+00 0.  1.
         21    1    1    2  505  503  0.47808695779E+02 -0.48972788341E+02 -0.76614659579E+03  0.76919738145E+03  0.00000000000E+00 0.  1.
          3    1    1    2  501    0 -0.12514176041E+03  0.34016061944E+02 -0.29943946906E+03  0.32631510584E+03  0.00000000000E+00 0.  1.
<scales pt_clust_3="14000.00000" pt_clust_4="69.69214" pt_clust_5="68.43979" pt_clust_6="82.28537"></scales>
<clustering>
<clus scale="   68.440">  2  5  1 -1</clus>
<clus scale="   69.692">  1  4  2 -1</clus>
<clus scale="   82.285">  2  6  1 -1</clus>
<clus scale="   69.692">  1  3  2 -1</clus>
</clustering>
</event>
<event>
 6    0  0.1631680E+002  0.1101299E+03  0.7546771E-02  0.1260330E+00
         21   -1    0    0  504  502  0.00000000000E+00  0.00000000000E+00  0.19095805781E+03  0.19095805781E+03  0.00000000000E+00 0. -1.
         -1   -1    0    0    0  501 -0.00000000000E+00 -0.00000000000E+00 -0.85091801245E+03  0.85091801245E+03  0.00000000000E+00 0.  1.
         21    1    1    2  503  501 -0.78228049128E+02  0.41205003999E+02 -0.17146082425E+03  0.19291525154E+03  0.00000000000E+00 0.  1.
         21    1    1    2  504  503  0.78209928848E+02  0.44837481949E+02  0.65085952944E+02  0.11119071017E+03  0.00000000000E+00 0. -1.
         21    1    1    2  505  502  0.60592711928E+01  0.35144506834E+02  0.82677444667E+02  0.90041162724E+02  0.00000000000E+00 0. -1.
         -1    1    1    2    0  505 -0.60411509132E+01 -0.12118699278E+03 -0.63626252800E+03  0.64772894582E+03  0.00000000000E+00 0.  1.
<scales pt_clust_3="89.61396" pt_clust_4="110.12985" pt_clust_5="35.66302" pt_clust_6="14000.00000"></scales>
<clustering>
<clus scale="   35.663">  1  5  2 -1</clus>
<clus scale="   89.614">  2  3  1 -1</clus>
<clus scale="  110.130">  1  4  2 -1</clus>
<clus scale="   35.663">  1  3  2 -1</clus>
</clustering>
</event>
<event>
 6    0  0.1631680E+002  0.1543473E+03  0.7546771E-02  0.1195231E+00
          2   -1    0    0  505    0 -0.00000000000E+00  0.00000000000E+00  0.58661186458E+03  0.58661186458E+03  0.00000000000E+00 0.  1.
         21   -1    0    0  504  502  0.00000000000E+00 -0.00000000000E+00 -0.10359221714E+04  0.10359221714E+04  0.00000000000E+00 0.  1.
         21    1    1    2  503  502  0.18669371253E+03 -0.17481550581E+02 -0.90878892921E+03  0.92793182118E+03  0.00000000000E+00 0.  1.
         21    1    1    2  504  501 -0.36465569456E+02  0.13658452250E+02 -0.36849164949E+02  0.53611118539E+02  0.00000000000E+00 0. -1.
         21    1    1    2  505  503  0.47884322271E+02 -0.97131436237E+02  0.13127325407E+02  0.10908597938E+03  0.00000000000E+00 0. -1.
          2    1    1    2  501    0 -0.19811246534E+03  0.10095453457E+03  0.48320046192E+03  0.53190511689E+03  0.00000000000E+00 0.  1.
<scales pt_clust_3="14000.00000" pt_clust_4="38.93958" pt_clust_5="106.92684" pt_clust_6="154.34729"></scales>
<clustering>
<clus scale="   38.940">  2  4  1 -1</clus>
<clus scale="  106.927">  1  5  2 -1</clus>
<clus scale="  154.347">  1  6  2 -1</clus>
<clus scale="   38.940">  2  3  1 -1</clus>
</clustering>
</event>
<event>
 6    0  0.1631680E+002  0.2322715E+03  0.7546771E-02  0.1125051E+00
         21   -1    0    0  503  502  0.00000000000E+00  0.00000000000E+00  0.62143047347E+03  0.62143047347E+03  0.00000000000E+00 0.  1.
          2   -1    0    0  505    0 -0.00000000000E+00 -0.00000000000E+00 -0.28040456636E+04  0.28040456636E+04  0.00000000000E+00 0. -1.
         21    1    1    2  503  501  0.60154175606E+02 -0.25547359971E+01 -0.19476234587E+02  0.63280133001E+02  0.00000000000E+00 0.  1.
         21    1    1    2  504  502  0.17327995473E+03  0.15855627637E+02  0.57830447146E+03  0.60391506468E+03  0.00000000000E+00 0.  1.
         21    1    1    2  505  504 -0.17810183679E+02  0.25341590588E+02 -0.12925639288E+04  0.12929349980E+04  0.00000000000E+00 0. -1.
          2    1    1    2  501    0 -0.21562394666E+03 -0.38642482228E+02 -0.14488794981E+04  0.14653459414E+04  0.00000000000E+00 0. -1.
<scales pt_clust_3="59.69556" pt_clust_4="14000.00000" pt_clust_5="30.97416" pt_clust_6="232.27147"></scales>
<clustering>
<clus scale="   30.974">  2  5  1 -1</clus>
<clus scale="   59.696">  1  3  2 -1</clus>
<clus scale="  232.271">  2  6  1 -1</clus>
<clus scale="   59.696">  1  3  2 -1</clus>
</clustering>
</event>
<event>
 6    0  0.1631680E+002  0.9775261E+02  0.7546771E-02  0.1285094E+00
          2   -1    0    0  503    0 -0.00000000000E+00  0.00000000000E+00  0.72465711585E+02  0.72465711585E+02  0.00000000000E+00 0. -1.
         21   -1    0    0  501  502  0.00000000000E+00 -0.00000000000E+00 -0.11649607616E+04  0.11649607616E+04  0.00000000000E+00 0.  1.
         21    1    1    2  503  505  0.52014665945E+02  0.18736234187E+02 -0.29514253999E+02  0.62671070950E+02  0.00000000000E+00 0.  1.
         21    1    1    2  504  502 -0.65379805754E+01 -0.53905363155E+02 -0.74529536422E+03  0.74727084333E+03  0.00000000000E+00 0.  1.
         21    1    1    2  505  504 -0.32572130548E+02 -0.52514378474E+02 -0.33200516326E+03  0.33770716911E+03  0.00000000000E+00 0.  1.
          2    1    1    2  501    0 -0.12904554822E+02  0.87683507441E+02  0.14319731448E+02  0.89777389810E+02  0.00000000000E+00 0. -1.
<scales pt_clust_3="52.86824" pt_clust_4="54.30040" pt_clust_5="97.75261" pt_clust_6="14000.00000"></scales>
<clustering>
<clus scale="   54.300">  2  4  1 -1</clus>
<clus scale="   52.868">  1  3  2 -1</clus>
<clus scale="   97.753">  2  5  1 -1</clus>
<clus scale="   54.300">  2  3  1 -1</clus>
</clustering>
</event>
<event>
 6    0  0.1631680E+002  0.2870415E+03  0.7546771E-02  0.1091904E+00
         21   -1    0    0  505  502  0.00000000000E+00  0.00000000000E+00  0.23099878060E+04  0.23099878060E+04  0.00000000000E+00 0. -1.
          2   -1    0    0  503    0 -0.00000000000E+00 -0.00000000000E+00 -0.30923957267E+03  0.30923957267E+03  0.00000000000E+00 0. -1.
         21    1    1    2  503  502 -0.69862988681E+02 -0.27387843470E+02  0.14911390420E+04  0.14930259789E+04  0.00000000000E+00 0. -1.
         21    1    1    2  504  501  0.21770434543E+02  0.35388876147E+03  0.39587287240E+03  0.53143817930E+03  0.00000000000E+00 0. -1.
         21    1    1    2  505  504  0.15769555897E+02 -0.52232843310E+02  0.27135299386E+03  0.27678402426E+03  0.00000000000E+00 0.  1.
          2    1    1    2  501    0  0.32322998240E+02 -0.27426807469E+03 -0.15761667491E+03  0.31797919620E+03  0.00000000000E+00 0. -1.
<scales pt_clust_3="87.81731" pt_clust_4="14000.00000" pt_clust_5="54.56142" pt_clust_6="287.04153"></scales>
<clustering>
<clus scale="   54.561">  1  5  2 -1</clus>
<clus scale="   87.817">  1  3  2 -1</clus>
<clus scale="  287.042">  2  6  1 -1</clus>
<clus scale="   54.561">  1  3  2 -1</clus>
</clustering>
</event>
<event>
 6    0  0.1631680E+002  0.9535706E+02  0.7546771E-02  0.1290374E+00
          1   -1    0    0  504    0 -0.00000000000E+00  0.00000000000E+00  0.22909844679E+04  0.22909844679E+04  0.00000000000E+00 0.  1.
         21   -1    0    0  503  502  0.00000000000E+00 -0.00000000000E+00 -0.14673083593E+03  0.14673083593E+03  0.00000000000E+00 0. -1.
         21    1    1    2  503  501  0.31704096093E+02  0.19304622162E+01 -0.16212498863E+02  0.35661204590E+02  0.00000000000E+00 0.  1.
         21    1    1    2  504  505  0.12870456813E+02 -0.38683307486E+02  0.21698738219E+04  0.21702567705E+04  0.00000000000E+00 0.  1.
         21    1    1    2  505  502 -0.12191832268E+03  0.34895015777E+02 -0.59035652593E+02  0.13988190665E+03  0.00000000000E+00 0. -1.
          1    1    1    2  501    0  0.77343769773E+02  0.18578294925E+01  0.49627961519E+02  0.91915422089E+02  0.00000000000E+00 0.  1.
<scales pt_clust_3="31.76281" pt_clust_4="40.78120" pt_clust_5="14000.00000" pt_clust_6="95.35706"></scales>
<clustering>
<clus scale="   31.763">  2  3  1 -1</clus>
<clus scale="   40.781">  1  4  2 -1</clus>
<clus scale="   95.357">  1  6  2 -1</clus>
<clus scale="   31.763">  2  3  1 -1</clus>
</clustering>
</event>
<event>
 6    0  0.1631680E+002  0.1098630E+03  0.7546771E-02  0.1260824E+00
         21   -1    0    0  504  502  0.00000000000E+00  0.00000000000E+00  0.38541043890E+03  0.38541043890E+03  0.00000000000E+00 0.  1.
          1   -1    0    0  503    0 -0.00000000000E+00 -0.00000000000E+00 -0.95742582269E+03  0.95742582269E+03  0.00000000000E+00 0. -1.
         21    1    1    2  503  502 -0.26037572841E+02 -0.35985195221E+02  0.27321911056E+03  0.27680601845E+03  0.00000000000E+00 0.  1.
         21    1    1    2  504  505 -0.35462641226E+02 -0.23914440458E+02  0.84283328575E+02  0.94515495348E+02  0.00000000000E+00 0. -1.
         21    1    1    2  505  501  0.15836298331E+03  0.49096944219E+02 -0.39830647714E+03  0.43143643117E+03  0.00000000000E+00 0. -1.
          1    1    1    2  501    0 -0.96862769237E+02  0.10802691459E+02 -0.53121134578E+03  0.54007831663E+03  0.00000000000E+00 0. -1.
<scales pt_clust_3="82.86610" pt_clust_4="42.77265" pt_clust_5="109.86302" pt_clust_6="14000.00000"></scales>
<clustering>
<clus scale="   42.773">  1  4  2 -1</clus>
<clus scale="   82.866">  1  3  2 -1</clus>
<clus scale="  109.863">  1  5  2 -1</clus>
<clus scale="   42.773">  1  3  2 -1</clus>
</clustering>
</event>
<event>
 6    0  0.1631680E+002  0.1086264E+03  0.7546771E-02  0.1263135E+00
         21   -1    0    0  503  502  0.00000000000E+00  0.00000000000E+00  0.22941140501E+03  0.22941140501E+03  0.00000000000E+00 0.  1.
          2   -1    0    0  504    0 -0.00000000000E+00 -0.00000000000E+00 -0.19678632472E+03  0.19678632472E+03  0.00000000000E+00 0.  1.
         21    1    1    2  503  501 -0.50741665392E+02 -0.70455589101E+02  0.67810953429E+02  0.11016819889E+03  0.00000000000E+00 0.  1.
         21    1    1    2  504  505  0.36970560973E+01  0.11365634969E+03 -0.68805935279E+02  0.13291234246E+03  0.00000000000E+00 0.  1.
         21    1    1    2  505  502  0.38715133958E+02  0.58039991760E+02  0.41588063846E+02  0.81222344804E+02  0.00000000000E+00 0. -1.
          2    1    1    2  501    0  0.83294753367E+01 -0.10124075235E+03 -0.79680017066E+01  0.10189484357E+03  0.00000000000E+00 0.  1.
<scales pt_clust_3="49.91267" pt_clust_4="14000.00000" pt_clust_5="69.76749" pt_clust_6="108.62637"></scales>
<clustering>
<clus scale="   69.767">  1  5  2 -1</clus>
<clus scale="   49.913">  1  3  2 -1</clus>
<clus scale="  108.626">  1  6  2 -1</clus>
<clus scale="   69.767">  1  3  2 -1</clus>
</clustering>
</event>
<event>
 6    0  0.1631680E+002  0.1609709E+03  0.7546771E-02  0.1187605E+00
          2   -1    0    0  504    0 -0.00000000000E+00  0.00000000000E+00  0.19457053104E+04  0.19457053104E+04  0.00000000000E+00 0. -1.
         21   -1    0    0  503  502  0.00000000000E+00 -0.00000000000E+00 -0.23786561783E+03  0.23786561783E+03  0.00000000000E+00 0. -1.
         21    1    1    2  503  501 -0.82404170991E+02  0.24817708301E+02 -0.19543368829E+03  0.21354318664E+03  0.00000000000E+00 0. -1.
         21    1    1    2  504  505 -0.94595085394E+02  0.10221641420E+03  0.65552408079E+03  0.67015538945E+03  0.00000000000E+00 0.  1.
         21    1    1    2  505  502  0.39082192684E+02 -0.10023477922E+02  0.12988925684E+01  0.40367994953E+02  0.00000000000E+00 0. -1.
          2    1    1    2  501    0  0.13791706370E+03 -0.11701064458E+03  0.12464504075E+04  0.12595043572E+04  0.00000000000E+00 0. -1.
<scales pt_clust_3="48.32913" pt_clust_4="14000.00000" pt_clust_5="40.34709" pt_clust_6="160.97094"></scales>
<clustering>
<clus scale="   40.347">  2  5  1 -1</clus>
<clus scale="   48.329">  2  3  1 -1</clus>
<clus scale="  160.971">  1  6  2 -1</clus>
<clus scale="   40.347">  2  3  1 -1</clus>
</clustering>
</event>
<event>
 6    0  0.1631680E+002  0.2224770E+03  0.7546771E-02  0.1132050E+00
         21   -1    0    0  504  502  0.00000000000E+00  0.00000000000E+00  0.32779674133E+03  0.32779674133E+03  0.00000000000E+00 0. -1.
          2   -1    0    0  505    0 -0.00000000000E+00 -0.00000000000E+00 -0.58950107189E+03  0.58950107189E+03  0.00000000000E+00 0. -1.
         21    1    1    2  503  501 -0.12627197604E+03 -0.17096395924E+03  0.19188029437E+03  0.28634129052E+03  0.00000000000E+00 0. -1.
         21    1    1    2  504  503  0.55252011966E+02 -0.44120841010E+02  0.28587311183E+02  0.76267082010E+02  0.00000000000E+00 0. -1.
         21    1    1    2  505  502 -0.42670784246E+02  0.24556262742E+02 -0.58680407784E+02  0.76597624804E+02  0.00000000000E+00 0. -1.
          2    1    1    2  501    0  0.11369074832E+03  0.19052853750E+03 -0.42349152832E+03  0.47809181588E+03  0.00000000000E+00 0. -1.
<scales pt_clust_3="14000.00000" pt_clust_4="68.48429" pt_clust_5="49.23216" pt_clust_6="222.47702"></scales>
<clustering>
<clus scale="   49.232">  2  5  1 -1</clus>
<clus scale="   68.484">  1  4  2 -1</clus>
<clus scale="  222.477">  2  6  1 -1</clus>
<clus scale="   68.484">  1  3  2 -1</clus>
</clustering>
</event>
<event>
 6    0  0.1631680E+002  0.1405363E+03  0.7546771E-02  0.1212609E+00
         21   -1    0    0  504  502  0.00000000000E+00  0.00000000000E+00  0.46087298815E+03  0.46087298815E+03  0.00000000000E+00 0. -1.
          1   -1    0    0  505    0 -0.00000000000E+00 -0.00000000000E+00 -0.38252918653E+03  0.38252918653E+03  0.00000000000E+00 0. -1.
         21    1    1    2  503  502 -0.87262614512E+02  0.17177774595E+02  0.24232126173E+03  0.25812677838E+03  0.00000000000E+00 0. -1.
         21    1    1    2  504  501  0.49499494596E+01  0.37871545934E+02  0.14713362300E+03  0.15201006220E+03  0.00000000000E+00 0. -1.
         21    1    1    2  505  503  0.20338617488E+02  0.10584958182E+03 -0.46392754085E+02  0.11734598827E+03  0.00000000000E+00 0.  1.
          1    1    1    2  501    0  0.61974047564E+02 -0.16089890235E+03 -0.26471832902E+03  0.31591934583E+03  0.00000000000E+00 0. -1.
<scales pt_clust_3="95.93624" pt_clust_4="38.19366" pt_clust_5="14000.00000" pt_clust_6="140.53634"></scales>
<clustering>
<clus scale="   38.194">  1  4  2 -1</clus>
<clus scale="   95.936">  1  3  2 -1</clus>
<clus scale="  140.536">  2  6  1 -1</clus>
<clus scale="   38.194">  1  3  2 -1</clus>
</clustering>
</event>
<event>
 6    0  0.1631680E+002  0.9749567E+02  0.7546771E-02  0.1285652E+00
          1   -1    0    0  505    0 -0.00000000000E+00  0.00000000000E+00  0.45928711948E+03  0.45928711948E+03  0.00000000000E+00 0. -1.
         21   -1    0    0  504  502  0.00000000000E+00 -0.00000000000E+00 -0.80640483807E+03  0.80640483807E+03  0.00000000000E+00 0. -1.
         21    1    1    2  503  502  0.30789034869E+02 -0.30115108419E+02 -0.71824615225E+02  0.83747595640E+02  0.00000000000E+00 0.  1.
         21    1    1    2  504  501 -0.11147851974E+03 -0.23771385784E+02 -0.69828249886E+03  0.70752454895E+03  0.00000000000E+00 0. -1.
         21    1    1    2  505  503  0.25806304766E+02 -0.50658829870E+02  0.30424756536E+02  0.64482154274E+02  0.00000000000E+00 0. -1.
          1    1    1    2  501    0  0.54883180104E+02  0.10454532407E+03  0.39256463896E+03  0.40993765868E+03  0.00000000000E+00 0. -1.
<scales pt_clust_3="43.06837" pt_clust_4="97.49567" pt_clust_5="57.80783" pt_clust_6="14000.00000"></scales>
<clustering>
<clus scale="   43.068">  2  3  1 -1</clus>
<clus scale="   57.808">  1  5  2 -1</clus>
<clus scale="   97.496">  2  4  1 -1</clus>
<clus scale="   43.068">  2  3  1 -1</clus>
</clustering>
</event>
<event>
 6    0  0.1631680E+002  0.9722099E+02  0.7546771E-02  0.1286251E+00
          2   -1    0    0  504    0 -0.00000000000E+00  0.00000000000E+00  0.77171212904E+03  0.77171212904E+03  0.00000000000E+00 0.  1.
         21   -1    0    0  501  502  0.00000000000E+00 -0.00000000000E+00 -0.12370896235E+03  0.12370896235E+03  0.00000000000E+00 0.  1.
         21    1    1    2  503  505  0.83507730067E+02  0.53971910376E+02 -0.66287348309E+02  0.11950113236E+03  0.00000000000E+00 0.  1.
         21    1    1    2  504  503 -0.39372323417E+02 -0.44635122177E+02  0.39175351458E+03  0.39624902545E+03  0.00000000000E+00 0.  1.
         21    1    1    2  505  502  0.17326543037E+02 -0.31885355837E+02 -0.12435767436E+02  0.38360569888E+02  0.00000000000E+00 0. -1.
          2    1    1    2  501    0 -0.61461949687E+02  0.22548567637E+02  0.33497276785E+03  0.34131036369E+03  0.00000000000E+00 0.  1.
<scales pt_clust_3="97.22099" pt_clust_4="59.80842" pt_clust_5="36.28891" pt_clust_6="14000.00000"></scales>
<clustering>
<clus scale="   36.289">  2  5  1 -1</clus>
<clus scale="   59.808">  1  4  2 -1</clus>
<clus scale="   97.221">  2  3  1 -1</clus>
<clus scale="   36.289">  2  3  1 -1</clus>
</clustering>
</event>
<event>
 6    0  0.1631680E+002  0.7696666E+02  0.7546771E-02  0.1337887E+00
         21   -1    0    0  503  502  0.00000000000E+00  0.00000000000E+00  0.24348103920E+03  0.24348103920E+03  0.00000000000E+00 0. -1.
          2   -1    0    0  505    0 -0.00000000000E+00 -0.00000000000E+00 -0.87767156099E+03  0.87767156099E+03  0.00000000000E+00 0. -1.
         21    1    1    2  503  501  0.13256417305E+03  0.10827713425E+02  0.11258424756E+03  0.17425760285E+03  0.00000000000E+00 0. -1.
         21    1    1    2  504  502 -0.59243464267E+02  0.13190231905E+02  0.87071353581E+02  0.10613760356E+03  0.00000000000E+00 0. -1.
         21    1    1    2  505  504 -0.33506893884E+02 -0.48998067592E+02 -0.52698384370E+03  0.53031640941E+03  0.00000000000E+00 0. -1.
          2    1    1    2  501    0 -0.39813814899E+02  0.24980122262E+02 -0.30686227922E+03  0.31044098437E+03  0.00000000000E+00 0. -1.
<scales pt_clust_3="76.96666" pt_clust_4="61.43667" pt_clust_5="14000.00000" pt_clust_6="47.00156"></scales>
<clustering>
<clus scale="   47.002">  2  6  1 -1</clus>
<clus scale="   61.437">  1  4  2 -1</clus>
<clus scale="   76.967">  1  3  2 -1</clus>
<clus scale="   61.437">  1  3  2 -1</clus>
</clustering>
</event>
<event>
 6    0  0.1631680E+002  0.1338979E+03  0.7546771E-02  0.1221784E+00
          2   -1    0    0  503    0 -0.00000000000E+00  0.00000000000E+00  0.14179837271E+04  0.14179837271E+04  0.00000000000E+00 0.  1.
         21   -1    0    0  505  502  0.00000000000E+00 -0.00000000000E+00 -0.42910109479E+03  0.42910109479E+03  0.00000000000E+00 0.  1.
         21    1    1    2  503  504 -0.72890529688E+02  0.91814580552E+01  0.36774132751E+03  0.37500801651E+03  0.00000000000E+00 0.  1.
         21    1    1    2  504  502  0.30412109076E+02 -0.19206951283E+02 -0.29641943079E+03  0.29859384171E+03  0.00000000000E+00 0.  1.
         21    1    1    2  505  501 -0.12195491927E+03 -0.75116111234E+02 -0.76460020728E+02  0.16236245647E+03  0.00000000000E+00 0.  1.
          2    1    1    2  501    0  0.16443333988E+03  0.85141604461E+02  0.99402075633E+03  0.10111205072E+04  0.00000000000E+00 0.  1.
<scales pt_clust_3="72.56836" pt_clust_4="35.96948" pt_clust_5="14000.00000" pt_clust_6="133.89793"></scales>
<clustering>
<clus scale="   35.969">  2  4  1 -1</clus>
<clus scale="   72.568">  1  3  2 -1</clus>
<clus scale="  133.898">  1  6  2 -1</clus>
<clus scale="   35.969">  2  3  1 -1</clus>
</clustering>
</event>
<event>
 6    0  0.1631680E+002  0.1270148E+03  0.7546771E-02  0.1231954E+00
         -1   -1    0    0    0  501 -0.00000000000E+00  0.00000000000E+00  0.14558758158E+04  0.14558758158E+04  0.00000000000E+00 0.  1.
         21   -1    0    0  505  502  0.00000000000E+00 -0.00000000000E+00 -0.15270247309E+03  0.15270247309E+03  0.00000000000E+00 0. -1.
         21    1    1    2  503  502 -0.70271646464E+02  0.49280988960E+02 -0.10492312501E+03  0.13555656506E+03  0.00000000000E+00 0. -1.
         21    1    1    2  504  501  0.19422411114E+02 -0.42333400187E+02  0.22010767831E+03  0.22498163675E+03  0.00000000000E+00 0.  1.
         21    1    1    2  505  504 -0.56581278048E+02 -0.18166552171E+02  0.44607797940E+01  0.59593315059E+02  0.00000000000E+00 0. -1.
         -1    1    1    2    0  503  0.10743051340E+03  0.11218963398E+02  0.11835280096E+04  0.11884467720E+04  0.00000000000E+00 0.  1.
<scales pt_clust_3="14000.00000" pt_clust_4="46.57625" pt_clust_5="59.29413" pt_clust_6="127.01483"></scales>
<clustering>
<clus scale="   46.576">  1  4  2 -1</clus>
<clus scale="   59.294">  2  5  1 -1</clus>
<clus scale="  127.015">  1  6  2 -1</clus>
<clus scale="   59.294">  2  3  1 -1</clus>
</clustering>
</event>
<event>
 6    0  0.1631680E+002  0.9639104E+02  0.7546771E-02  0.1288073E+00
         21   -1    0    0  503  502  0.00000000000E+00  0.00000000000E+00  0.39171815904E+03  0.39171815904E+03  0.00000000000E+00 0.  1.
          3   -1    0    0  505    0 -0.00000000000E+00 -0.00000000000E+00 -0.30310686356E+03  0.30310686356E+03  0.00000000000E+00 0.  1.
         21    1    1    2  503  501  0.51460809859E+02 -0.63510823370E+02  0.13234914641E+03  0.15555750124E+03  0.00000000000E+00 0.  1.
         21    1    1    2  504  502 -0.32765539217E+02  0.12117333117E+03  0.19227132064E+03  0.22961885264E+03  0.00000000000E+00 0.  1.
         21    1    1    2  505  504  0.10186068310E+02  0.56240741460E+02 -0.14602609216E+02  0.58991636555E+02  0.00000000000E+00 0.  1.
          3    1    1    2  501    0 -0.28881338952E+02 -0.11390324926E+03 -0.22140656235E+03  0.25065703218E+03  0.00000000000E+00 0.  1.
<scales pt_clust_3="14000.00000" pt_clust_4="96.39104" pt_clust_5="57.15573" pt_clust_6="67.06285"></scales>
<clustering>
<clus scale="   57.156">  2  5  1 -1</clus>
<clus scale="   67.063">  2  6  1 -1</clus>
<clus scale="   96.391">  2  4  1 -1</clus>
<clus scale="   96.391">  1  3  2 -1</clus>
</clustering>
</event>
<event>
 6    0  0.1631680E+002  0.1099345E+03  0.7546771E-02  0.1260691E+00
          2   -1    0    0  504    0 -0.00000000000E+00  0.00000000000E+00  0.89617433075E+03  0.89617433075E+03  0.00000000000E+00 0.  1.
         21   -1    0    0  503  502  0.00000000000E+00 -0.00000000000E+00 -0.84381778785E+03  0.84381778785E+03  0.00000000000E+00 0. -1.
         21    1    1    2  503  505  0.18672366615E+02  0.41391405853E+02 -0.57767004553E+02  0.73477428973E+02  0.00000000000E+00 0.  1.
         21    1    1    2  504  502 -0.11458731392E+03 -0.14306043665E+02 -0.77047662556E+03  0.77908224594E+03  0.00000000000E+00 0. -1.
         21    1    1    2  505  501  0.49015183595E+02 -0.39057721969E+01  0.25839355433E+03  0.26303036365E+03  0.00000000000E+00 0.  1.
          2    1    1    2  501    0  0.46899763712E+02 -0.23179589991E+02  0.62220661868E+03  0.62440208004E+03  0.00000000000E+00 0.  1.
<scales pt_clust_3="45.40821" pt_clust_4="99.69561" pt_clust_5="44.91508" pt_clust_6="44.91508"></scales>
<clustering>
<clus scale="   44.915">  5  6 -1 -1</clus>
<clus scale="   45.408">  2  3  1 -1</clus>
<clus scale="   99.696">  2  4  1 -1</clus>
<clus scale="   45.408">  2  3  1 -1</clus>
</clustering>
</event>
<event>
 6    0  0.1631680E+002  0.1114274E+03  0.7546771E-02  0.1257949E+00
          2   -1    0    0  503    0 -0.00000000000E+00  0.00000000000E+00  0.25292540927E+03  0.25292540927E+03  0.00000000000E+00 0. -1.
         21   -1    0    0  504  502  0.00000000000E+00 -0.00000000000E+00 -0.11489932590E+04  0.11489932590E+04  0.00000000000E+00 0. -1.
         21    1    1    2  503  502 -0.42729324195E+02  0.39164105611E+01  0.59093068407E+02  0.73028242151E+02  0.00000000000E+00 0. -1.
         21    1    1    2  504  505 -0.50114618302E+01  0.92656821349E+02 -0.49642636183E+03  0.50502429052E+03  0.00000000000E+00 0. -1.
         21    1    1    2  505  501 -0.50429536571E+02 -0.15786683566E+03 -0.61073473484E+03  0.63282066362E+03  0.00000000000E+00 0. -1.
          2    1    1    2  501    0  0.98170322597E+02  0.61293603745E+02  0.15200017853E+03  0.19104547200E+03  0.00000000000E+00 0. -1.
<scales pt_clust_3="42.90843" pt_clust_4="111.42739" pt_clust_5="14000.00000" pt_clust_6="87.66708"></scales>
<clustering>
<clus scale="   42.908">  1  3  2 -1</clus>
<clus scale="   87.667">  1  6  2 -1</clus>
<clus scale="  111.427">  2  4  1 -1</clus>
<clus scale="  111.427">  2  3  1 -1</clus>
</clustering>
</event>
<event>
 6    0  0.1631680E+002  0.1241567E+03  0.7546771E-02  0.1236393E+00
          1   -1    0    0  505    0 -0.00000000000E+00  0.00000000000E+00  0.13855027060E+04  0.13855027060E+04  0.00000000000E+00 0. -1.
         21   -1    0    0  501  502  0.00000000000E+00 -0.00000000000E+00 -0.93960336441E+02  0.93960336441E+02  0.00000000000E+00 0.  1.
         21    1    1    2  503  504 -0.11071313274E+03  0.38018533486E+02  0.75790373303E+02  0.13945245546E+03  0.00000000000E+00 0.  1.
         21    1    1    2  504  502  0.46475748852E+02 -0.91782235874E+02 -0.89294310059E+01  0.10326523515E+03  0.00000000000E+00 0. -1.
         21    1    1    2  505  503 -0.18707869317E+02  0.28102224653E+02  0.60107327573E+02  0.68939177778E+02  0.00000000000E+00 0.  1.
          1    1    1    2  501    0  0.82945253206E+02  0.25661477735E+02  0.11645740997E+04  0.11678061740E+04  0.00000000000E+00 0. -1.
<scales pt_clust_3="33.26601" pt_clust_4="107.59993" pt_clust_5="33.26601" pt_clust_6="86.82411"></scales>
<clustering>
<clus scale="   33.266">  3  5 -1 -1</clus>
<clus scale="   86.824">  1  6  2 -1</clus>
<clus scale="  107.600">  2  4  1 -1</clus>
<clus scale="  107.600">  2  3  1 -1</clus>
</clustering>
</event>
<event>
 6    0  0.1631680E+002  0.9914794E+02  0.7546771E-02  0.1282098E+00
         -2   -1    0    0    0  501 -0.00000000000E+00  0.00000000000E+00  0.25915450729E+04  0.25915450729E+04  0.00000000000E+00 0.  1.
         21   -1    0    0  505  502  0.00000000000E+00 -0.00000000000E+00 -0.71116264005E+03  0.71116264005E+03  0.00000000000E+00 0. -1.
         21    1    1    2  503  502  0.72725432818E+02  0.19180802685E+02 -0.48433671577E+03  0.49014176114E+03  0.00000000000E+00 0. -1.
         21    1    1    2  504  501 -0.58810317376E+02 -0.39537351086E+02  0.60345030216E+02  0.93077270225E+02  0.00000000000E+00 0. -1.
         21    1    1    2  505  504 -0.13490892548E+02  0.69945902412E+02 -0.20119260186E+03  0.21343124534E+03  0.00000000000E+00 0.  1.
         -2    1    1    2    0  503 -0.42422289369E+00 -0.49589354012E+02  0.25055667203E+04  0.25060574362E+04  0.00000000000E+00 0.  1.
<scales pt_clust_3="14000.00000" pt_clust_4="99.14794" pt_clust_5="67.76895" pt_clust_6="49.59117"></scales>
<clustering>
<clus scale="   49.591">  1  6  2 -1</clus>
<clus scale="   67.769">  2  5  1 -1</clus>
<clus scale="   99.148">  1  4  2 -1</clus>
<clus scale="   67.769">  2  3  1 -1</clus>
</clustering>
</event>
<event>
 6    0  0.1631680E+002  0.8616186E+02  0.7546771E-02  0.1312422E+00
         21   -1    0    0  505  502  0.00000000000E+00  0.00000000000E+00  0.34377060721E+03  0.34377060721E+03  0.00000000000E+00 0.  1.
         -4   -1    0    0    0  501 -0.00000000000E+00 -0.00000000000E+00 -0.54004930524E+03  0.54004930524E+03  0.00000000000E+00 0.  1.
         21    1    1    2  503  504 -0.37628918104E+02  0.19124972546E+02 -0.17586798747E+03  0.18086251428E+03  0.00000000000E+00 0.  1.
         21    1    1    2  504  502  0.28926126157E+02 -0.86108148766E+02  0.26734467502E+03  0.28235528916E+03  0.00000000000E+00 0.  1.
         21    1    1    2  505  501  0.39620334242E+02  0.79555901051E+02  0.35444875398E+02  0.95683078281E+02  0.00000000000E+00 0.  1.
         -4    1    1    2    0  503 -0.30917542295E+02 -0.12572724830E+02 -0.32320026098E+03  0.32491903073E+03  0.00000000000E+00 0.  1.
<scales pt_clust_3="63.76293" pt_clust_4="14000.00000" pt_clust_5="86.16186" pt_clust_6="33.37616"></scales>
<clustering>
<clus scale="   33.376">  2  6  1 -1</clus>
<clus scale="   63.763">  2  3  1 -1</clus>
<clus scale="   86.162">  2  5  1 -1</clus>
<clus scale="   86.162">  1  3  2 -1</clus>
</clustering>
</event>
<event>
 6    0  0.1631680E+002  0.8034126E+02  0.7546771E-02  0.1328086E+00
         21   -1    0    0  504  502  0.00000000000E+00  0.00000000000E+00  0.10962951436E+03  0.10962951436E+03  0.00000000000E+00 0. -1.
          2   -1    0    0  505    0 -0.00000000000E+00 -0.00000000000E+00 -0.57122202815E+03  0.57122202815E+03  0.00000000000E+00 0.  1.
         21    1    1    2  503  501 -0.70440071408E+02  0.21056436815E+02 -0.71507704374E+02  0.10255987995E+03  0.00000000000E+00 0.  1.
         21    1    1    2  504  503  0.81588009004E+02  0.20862641827E+02  0.60009691198E+02  0.10340704074E+03  0.00000000000E+00 0. -1.
         21    1    1    2  505  502  0.37202115227E+02  0.19642968320E+02 -0.42349496565E+02  0.59693579563E+02  0.00000000000E+00 0.  1.
          2    1    1    2  501    0 -0.48350052823E+02 -0.61562046962E+02 -0.40774500405E+03  0.41519104225E+03  0.00000000000E+00 0.  1.
<scales pt_clust_3="80.34126" pt_clust_4="14000.00000" pt_clust_5="42.06951" pt_clust_6="49.76347"></scales>
<clustering>
<clus scale="   42.070">  2  5  1 -1</clus>
<clus scale="   49.763">  2  6  1 -1</clus>
<clus scale="   80.341">  2  3  1 -1</clus>
<clus scale="   80.341">  1  3  2 -1</clus>
</clustering>
</event>
<event>
 6    0  0.1631680E+002  0.1066827E+03  0.7546771E-02  0.1266839E+00
         21   -1    0    0  504  502  0.00000000000E+00  0.00000000000E+00  0.24577080707E+03  0.24577080707E+03  0.00000000000E+00 0.  1.
         -2   -1    0    0    0  501 -0.00000000000E+00 -0.00000000000E+00 -0.81852559262E+03  0.81852559262E+03  0.00000000000E+00 0.  1.
         21    1    1    2  503  502 -0.25149080861E+02  0.80577737109E+02  0.84715013441E+02  0.11959047407E+03  0.00000000000E+00 0.  1.
         21    1    1    2  504  505 -0.59891722593E+02 -0.13057330391E+02  0.12940124135E+03  0.14318587072E+03  0.00000000000E+00 0.  1.
         21    1    1    2  505  501 -0.25625684195E+02 -0.15663193343E+02 -0.13637880322E+03  0.13964665870E+03  0.00000000000E+00 0.  1.
         -2    1    1    2    0  503  0.11066648765E+03 -0.51857213375E+02 -0.65049223711E+03  0.66187339621E+03  0.00000000000E+00 0.  1.
<scales pt_clust_3="106.68268" pt_clust_4="61.58601" pt_clust_5="30.03350" pt_clust_6="14000.00000"></scales>
<clustering>
<clus scale="   30.034">  2  5  1 -1</clus>
<clus scale="   61.586">  1  4  2 -1</clus>
<clus scale="  106.683">  1  3  2 -1</clus>
<clus scale="   61.586">  1  3  2 -1</clus>
</clustering>
</event>
<event>
 6    0  0.1631680E+002  0.9628016E+02  0.7546771E-02  0.1288319E+00
         21   -1    0    0  504  502  0.00000000000E+00  0.00000000000E+00  0.86447034411E+02  0.86447034411E+02  0.00000000000E+00 0. -1.
          2   -1    0    0  503    0 -0.00000000000E+00 -0.00000000000E+00 -0.13094587036E+04  0.13094587036E+04  0.00000000000E+00 0.  1.
         21    1    1    2  503  505  0.39702190363E+02 -0.10261877484E+02 -0.88904256938E+03  0.88998778656E+03  0.00000000000E+00 0.  1.
         21    1    1    2  504  501 -0.13833355379E+03  0.26793674155E+02 -0.22032619065E+03  0.26152954588E+03  0.00000000000E+00 0. -1.
         21    1    1    2  505  502  0.44785265032E+02  0.26139175967E+02  0.46801854819E+02  0.69852631294E+02  0.00000000000E+00 0. -1.
          2    1    1    2  501    0  0.53846098395E+02 -0.42670972638E+02 -0.16044476400E+03  0.17453577431E+03  0.00000000000E+00 0.  1.
<scales pt_clust_3="41.00695" pt_clust_4="96.28016" pt_clust_5="52.66041" pt_clust_6="14000.00000"></scales>
<clustering>
<clus scale="   41.007">  2  3  1 -1</clus>
<clus scale="   52.660">  1  5  2 -1</clus>
<clus scale="   96.280">  1  4  2 -1</clus>
<clus scale="   52.660">  1  3  2 -1</clus>
</clustering>
</event>
<event>
 6    0  0.1631680E+002  0.1766161E+03  0.7546771E-02  0.1171119E+00
         21   -1    0    0  504  502  0.00000000000E+00  0.00000000000E+00  0.29725829162E+03  0.29725829162E+03  0.00000000000E+00 0. -1.
         -3   -1    0    0    0  501 -0.00000000000E+00 -0.00000000000E+00 -0.49122981501E+03  0.49122981501E+03  0.00000000000E+00 0. -1.
         21    1    1    2  503  505  0.29573720003E+02  0.64573730834E+02  0.52505580454E+02  0.88324445130E+02  0.00000000000E+00 0. -1.
         21    1    1    2  504  503  0.13973945349E+02  0.97276542089E+02  0.18731794652E+03  0.21153252676E+03  0.00000000000E+00 0. -1.
         21    1    1    2  505  501  0.99275386593E+01 -0.30418634921E+02 -0.27013884818E+03  0.27202729031E+03  0.00000000000E+00 0. -1.
         -3    1    1    2    0  502 -0.53475204011E+02 -0.13143163800E+03 -0.16365620218E+03  0.21660384444E+03  0.00000000000E+00 0. -1.
<scales pt_clust_3="55.48996" pt_clust_4="55.48996" pt_clust_5="31.99765" pt_clust_6="163.97035"></scales>
<clustering>
<clus scale="   31.998">  2  5  1 -1</clus>
<clus scale="   55.490">  3  4 -1 -1</clus>
<clus scale="  163.970">  2  6  1 -1</clus>
<clus scale="  176.616">  1  3  2 -1</clus>
</clustering>
</event>
<event>
 6    0  0.1631680E+002  0.7314435E+02  0.7546771E-02  0.1349716E+00
         21   -1    0    0  504  502  0.00000000000E+00  0.00000000000E+00  0.39421902731E+03  0.39421902731E+03  0.00000000000E+00 0. -1.
          2   -1    0    0  505    0 -0.00000000000E+00 -0.00000000000E+00 -0.13280688746E+04  0.13280688746E+04  0.00000000000E+00 0.  1.
         21    1    1    2  503  502  0.59642262243E+02 -0.84600835985E+02  0.34486938507E+03  0.36006859576E+03  0.00000000000E+00 0. -1.
         21    1    1    2  504  501 -0.17648376413E+02  0.25626395241E+02  0.29173485800E+02  0.42652896699E+02  0.00000000000E+00 0. -1.
         21    1    1    2  505  503  0.38141056279E+02 -0.57413171025E+01 -0.98306416033E+02  0.10560234055E+03  0.00000000000E+00 0. -1.
          2    1    1    2  501    0 -0.80134942109E+02  0.64715757847E+02 -0.12095863021E+04  0.12139640689E+04  0.00000000000E+00 0.  1.
<scales pt_clust_3="73.14435" pt_clust_4="31.11555" pt_clust_5="38.35493" pt_clust_6="14000.00000"></scales>
<clustering>
<clus scale="   31.116">  1  4  2 -1</clus>
<clus scale="   38.355">  2  5  1 -1</clus>
<clus scale="   73.144">  1  3  2 -1</clus>
<clus scale="   31.116">  1  3  2 -1</clus>
</clustering>
</event>
<event>
 6    0  0.1631680E+002  0.1450138E+03  0.7546771E-02  0.1206737E+00
         21   -1    0    0  503  502  0.00000000000E+00  0.00000000000E+00  0.10263912738E+03  0.10263912738E+03  0.00000000000E+00 0. -1.
          1   -1    0    0  504    0 -0.00000000000E+00 -0.00000000000E+00 -0.85682161488E+03  0.85682161488E+03  0.00000000000E+00 0.  1.
         21    1    1    2  503  501 -0.10780353896E+03  0.35464157391E+02 -0.15272094180E+02  0.11451002722E+03  0.00000000000E+00 0. -1.
         21    1    1    2  504  505 -0.80020745945E+02 -0.15939309406E+01 -0.30471257955E+03  0.31504859392E+03  0.00000000000E+00 0. -1.
         21    1    1    2  505  502 -0.84322059163E+01  0.47407788065E+02 -0.18478976795E+01  0.48187292844E+02  0.00000000000E+00 0. -1.
          1    1    1    2  501    0  0.19625649082E+03 -0.81278014515E+02 -0.43234991610E+03  0.48171482828E+03  0.00000000000E+00 0.  1.
<scales pt_clust_3="14000.00000" pt_clust_4="80.58286" pt_clust_5="48.15185" pt_clust_6="145.01377"></scales>
<clustering>
<clus scale="   48.152">  1  5  2 -1</clus>
<clus scale="   80.583">  2  4  1 -1</clus>
<clus scale="  145.014">  2  6  1 -1</clus>
<clus scale="   48.152">  1  3  2 -1</clus>
</clustering>
</event>
<event>
 6    0  0.1631680E+002  0.9053580E+02  0.7546771E-02  0.1301559E+00
          4   -1    0    0  505    0 -0.00000000000E+00  0.00000000000E+00  0.23046010833E+03  0.23046010833E+03  0.00000000000E+00 0. -1.
         21   -1    0    0  503  502  0.00000000000E+00 -0.00000000000E+00 -0.23021960361E+03  0.23021960361E+03  0.00000000000E+00 0. -1.
         21    1    1    2  503  501  0.62886280361E+01  0.10508651247E+03 -0.12080670743E+03  0.16024038975E+03  0.00000000000E+00 0. -1.
         21    1    1    2  504  502  0.47005346861E+01 -0.74395512033E+02 -0.41719050455E+02  0.85424038817E+02  0.00000000000E+00 0. -1.
         21    1    1    2  505  504  0.45169033806E+02  0.77577235321E+01  0.87865495140E+01  0.46665054824E+02  0.00000000000E+00 0. -1.
          4    1    1    2  501    0 -0.56158196528E+02 -0.38448723970E+02  0.15397971308E+03  0.16835022855E+03  0.00000000000E+00 0. -1.
<scales pt_clust_3="14000.00000" pt_clust_4="90.53580" pt_clust_5="45.83038" pt_clust_6="38.10774"></scales>
<clustering>
<clus scale="   45.830">  1  5  2 -1</clus>
<clus scale="   38.108">  1  6  2 -1</clus>
<clus scale="   90.536">  1  4  2 -1</clus>
<clus scale="   90.536">  2  3  1 -1</clus>
</clustering>
</event>
<event>
 6    0  0.1631680E+002  0.6839210E+02  0.7546771E-02  0.1365648E+00
         21   -1    0    0  504  502  0.00000000000E+00  0.00000000000E+00  0.12012577079E+03  0.12012577079E+03  0.00000000000E+00 0.  1.
          1   -1    0    0  505    0 -0.00000000000E+00 -0.00000000000E+00 -0.64171288032E+03  0.64171288032E+03  0.00000000000E+00 0. -1.
         21    1    1    2  503  502  0.37429573687E+01 -0.35963752595E+02  0.13371092979E+02  0.38551100607E+02  0.00000000000E+00 0.  1.
         21    1    1    2  504  501  0.61740342775E+02  0.18794123533E+02  0.69085641223E+02  0.94540545950E+02  0.00000000000E+00 0.  1.
         21    1    1    2  505  503  0.45877099819E+02  0.71698821547E+01 -0.76537231652E+02  0.89521300967E+02  0.00000000000E+00 0.  1.
          1    1    1    2  501    0 -0.11136039996E+03  0.99997469070E+01 -0.52750661208E+03  0.53922570358E+03  0.00000000000E+00 0. -1.
<scales pt_clust_3="36.15800" pt_clust_4="68.39210" pt_clust_5="46.37297" pt_clust_6="14000.00000"></scales>
<clustering>
<clus scale="   36.158">  1  3  2 -1</clus>
<clus scale="   46.373">  2  5  1 -1</clus>
<clus scale="   68.392">  1  4  2 -1</clus>
<clus scale="   36.158">  1  3  2 -1</clus>
</clustering>
</event>
<event>
 6    0  0.1631680E+002  0.8612360E+02  0.7546771E-02  0.1312520E+00
          2   -1    0    0  504    0 -0.00000000000E+00  0.00000000000E+00  0.36821523980E+04  0.36821523980E+04  0.00000000000E+00 0.  1.
         21   -1    0    0  503  502  0.00000000000E+00 -0.00000000000E+00 -0.87130209800E+02  0.87130209800E+02  0.00000000000E+00 0. -1.
         21    1    1    2  503  501  0.30179697254E+02 -0.31795043993E+02  0.85945119755E+01  0.44672190286E+02  0.00000000000E+00 0.  1.
         21    1    1    2  504  505  0.76495606831E+01 -0.36700189821E+02  0.27127776069E+03  0.27385588027E+03  0.00000000000E+00 0. -1.
         21    1    1    2  505  502 -0.98635499240E+02  0.83266299752E+02 -0.58025026547E+01  0.12921264420E+03  0.00000000000E+00 0. -1.
          2    1    1    2  501    0  0.60806241303E+02 -0.14771065938E+02  0.33209524182E+04  0.33215418930E+04  0.00000000000E+00 0.  1.
<scales pt_clust_3="44.08697" pt_clust_4="37.48893" pt_clust_5="86.12360" pt_clust_6="14000.00000"></scales>
<clustering>
<clus scale="   37.489">  1  4  2 -1</clus>
<clus scale="   44.087">  2  3  1 -1</clus>
<clus scale="   86.124">  2  5  1 -1</clus>
<clus scale="   44.087">  2  3  1 -1</clus>
</clustering>
</event>
<event>
 6    0  0.1631680E+002  0.9402560E+02  0.7546771E-02  0.1293386E+00
          1   -1    0    0  503    0 -0.00000000000E+00  0.00000000000E+00  0.33135779758E+03  0.33135779758E+03  0.00000000000E+00 0. -1.
         21   -1    0    0  504  502  0.00000000000E+00 -0.00000000000E+00 -0.98788168553E+02  0.98788168553E+02  0.00000000000E+00 0. -1.
         21    1    1    2  503  502  0.20842979147E+02 -0.35686885249E+02  0.25186433889E+02  0.48397727328E+02  0.00000000000E+00 0. -1.
         21    1    1    2  504  505 -0.23807575318E+02 -0.49592599229E+02 -0.12493224332E+02  0.56411941954E+02  0.00000000000E+00 0. -1.
         21    1    1    2  505  501  0.48721678318E+02 -0.15930529036E+02 -0.24565493051E+02  0.56842300643E+02  0.00000000000E+00 0. -1.
          1    1    1    2  501    0 -0.45757082148E+02  0.10121001351E+03  0.24444191252E+03  0.26849399621E+03  0.00000000000E+00 0. -1.
<scales pt_clust_3="41.32776" pt_clust_4="65.57087" pt_clust_5="14000.00000" pt_clust_6="94.02560"></scales>
<clustering>
<clus scale="   41.328">  2  3  1 -1</clus>
<clus scale="   65.571">  2  4  1 -1</clus>
<clus scale="   94.026">  1  6  2 -1</clus>
<clus scale="   41.328">  2  3  1 -1</clus>
</clustering>
</event>
<event>
 6    0  0.1631680E+002  0.1398603E+03  0.7546771E-02  0.1213517E+00
          2   -1    0    0  503    0 -0.00000000000E+00  0.00000000000E+00  0.73653784742E+03  0.73653784742E+03  0.00000000000E+00 0. -1.
         21   -1    0    0  504  502  0.00000000000E+00 -0.00000000000E+00 -0.47743904335E+03  0.47743904335E+03  0.00000000000E+00 0. -1.
         21    1    1    2  503  505 -0.18776596366E+02 -0.28843402833E+02  0.41164219272E+02  0.53656270895E+02  0.00000000000E+00 0. -1.
         21    1    1    2  504  501  0.10804425381E+03 -0.91264381917E+02 -0.44925332006E+03  0.47098969604E+03  0.00000000000E+00 0. -1.
         21    1    1    2  505  502 -0.69649476811E+02  0.25874488821E+02  0.23124967605E+03  0.24289288064E+03  0.00000000000E+00 0. -1.
          2    1    1    2  501    0 -0.19618180638E+02  0.94233295929E+02  0.43593822881E+03  0.44643804319E+03  0.00000000000E+00 0. -1.
<scales pt_clust_3="34.41660" pt_clust_4="139.86035" pt_clust_5="77.76267" pt_clust_6="14000.00000"></scales>
<clustering>
<clus scale="   34.417">  1  3  2 -1</clus>
<clus scale="   77.763">  1  5  2 -1</clus>
<clus scale="  139.860">  2  4  1 -1</clus>
<clus scale="  139.860">  2  3  1 -1</clus>
</clustering>
</event>
<event>
 6    0  0.1631680E+002  0.9540455E+02  0.7546771E-02  0.1290268E+00
         21   -1    0    0  505  502  0.00000000000E+00  0.00000000000E+00  0.19488580780E+03  0.19488580780E+03  0.00000000000E+00 0. -1.
          1   -1    0    0  504    0 -0.00000000000E+00 -0.00000000000E+00 -0.11312764841E+04  0.11312764841E+04  0.00000000000E+00 0. -1.
         21    1    1    2  503  502 -0.16746676127E+02  0.89178564855E+02  0.62201203366E+02  0.11001025994E+03  0.00000000000E+00 0. -1.
         21    1    1    2  504  503 -0.72676471246E+02 -0.14405601432E+02 -0.58707741949E+03  0.59173413566E+03  0.00000000000E+00 0. -1.
         21    1    1    2  505  501 -0.58194521882E+01 -0.10169124373E+03  0.75918728020E+02  0.12703790119E+03  0.00000000000E+00 0. -1.
          1    1    1    2  501    0  0.95242599561E+02  0.26918280305E+02 -0.48743318824E+03  0.49737999516E+03  0.00000000000E+00 0. -1.
<scales pt_clust_3="95.40455" pt_clust_4="74.09042" pt_clust_5="14000.00000" pt_clust_6="32.30888"></scales>
<clustering>
<clus scale="   74.090">  2  4  1 -1</clus>
<clus scale="   32.309">  2  6  1 -1</clus>
<clus scale="   95.405">  1  3  2 -1</clus>
<clus scale="   95.405">  1  3  2 -1</clus>
</clustering>
</event>
<event>
 6    0  0.1631680E+002  0.7100058E+02  0.7546771E-02  0.1356723E+00
          1   -1    0    0  503    0 -0.00000000000E+00  0.00000000000E+00  0.91363317244E+03  0.91363317244E+03  0.00000000000E+00 0.  1.
         21   -1    0    0  504  502  0.00000000000E+00 -0.00000000000E+00 -0.43247740066E+02  0.43247740066E+02  0.00000000000E+00 0.  1.
         21    1    1    2  503  505  0.33344469858E+02  0.35455899766E+02  0.27911622694E+03  0.28332815363E+03  0.00000000000E+00 0.  1.
         21    1    1    2  504  501 -0.40074803106E+02  0.95079458350E+00 -0.33352465537E+01  0.40224591035E+02  0.00000000000E+00 0.  1.
         21    1    1    2  505  502  0.90350661810E+02  0.13412184620E+02  0.13153407297E+03  0.16013850611E+03  0.00000000000E+00 0.  1.
          1    1    1    2  501    0 -0.83620328561E+02 -0.49818878970E+02  0.46307037902E+03  0.47318966174E+03  0.00000000000E+00 0.  1.
<scales pt_clust_3="46.13978" pt_clust_4="40.08608" pt_clust_5="14000.00000" pt_clust_6="71.00058"></scales>
<clustering>
<clus scale="   40.086">  2  4  1 -1</clus>
<clus scale="   46.140">  1  3  2 -1</clus>
<clus scale="   71.001">  1  6  2 -1</clus>
<clus scale="   40.086">  2  3  1 -1</clus>
</clustering>
</event>
<event>
 6    0  0.1631680E+002  0.1229006E+03  0.7546771E-02  0.1238387E+00
          1   -1    0    0  503    0 -0.00000000000E+00  0.00000000000E+00  0.14744598009E+04  0.14744598009E+04  0.00000000000E+00 0.  1.
         21   -1    0    0  504  502  0.00000000000E+00 -0.00000000000E+00 -0.41098185821E+02  0.41098185821E+02  0.00000000000E+00 0.  1.
         21    1    1    2  503  505  0.45912581955E+02 -0.19077053614E+02  0.20064482035E+03  0.20671294853E+03  0.00000000000E+00 0.  1.
         21    1    1    2  504  501 -0.13978003589E+03 -0.56107840726E+02  0.15178759115E+03  0.21383643527E+03  0.00000000000E+00 0.  1.
         21    1    1    2  505  502  0.62186852966E+02 -0.10184312635E+02  0.72066998880E+03  0.72341976588E+03  0.00000000000E+00 0.  1.
          1    1    1    2  501    0  0.31680600969E+02  0.85369206976E+02  0.36025921479E+03  0.37158883705E+03  0.00000000000E+00 0.  1.
<scales pt_clust_3="49.71820" pt_clust_4="14000.00000" pt_clust_5="90.74294" pt_clust_6="122.90060"></scales>
<clustering>
<clus scale="   49.718">  1  3  2 -1</clus>
<clus scale="   90.743">  1  5  2 -1</clus>
<clus scale="  122.901">  1  6  2 -1</clus>
<clus scale="  122.901">  2  3  1 -1</clus>
</clustering>
</event>
<event>
 6    0  0.1631680E+002  0.7617048E+02  0.7546771E-02  0.1340284E+00
         21   -1    0    0  503  502  0.00000000000E+00  0.00000000000E+00  0.48467111969E+03  0.48467111969E+03  0.00000000000E+00 0. -1.
          1   -1    0    0  504    0 -0.00000000000E+00 -0.00000000000E+00 -0.77798982229E+03  0.77798982229E+03  0.00000000000E+00 0. -1.
         21    1    1    2  503  501  0.50225821515E+02  0.57819045772E+02  0.36233238579E+03  0.37033826834E+03  0.00000000000E+00 0. -1.
         21    1    1    2  504  505 -0.31949663622E+02  0.74242923328E+01 -0.18388721260E+02  0.37603805549E+02  0.00000000000E+00 0. -1.
         21    1    1    2  505  502 -0.54299413357E+02  0.18768833483E+02  0.98106361639E+02  0.11369060469E+03  0.00000000000E+00 0. -1.
          1    1    1    2  501    0  0.36023255465E+02 -0.84012171588E+02 -0.73536872877E+03  0.74102826340E+03  0.00000000000E+00 0. -1.
<scales pt_clust_3="14000.00000" pt_clust_4="32.80093" pt_clust_5="57.79062" pt_clust_6="76.17048"></scales>
<clustering>
<clus scale="   32.801">  2  4  1 -1</clus>
<clus scale="   57.791">  1  5  2 -1</clus>
<clus scale="   76.170">  2  6  1 -1</clus>
<clus scale="   57.791">  1  3  2 -1</clus>
</clustering>
</event>
<event>
 6    0  0.1631680E+002  0.1113516E+03  0.7546771E-02  0.1258087E+00
          2   -1    0    0  504    0 -0.00000000000E+00  0.00000000000E+00  0.54591880479E+03  0.54591880479E+03  0.00000000000E+00 0.  1.
         21   -1    0    0  503  502  0.00000000000E+00 -0.00000000000E+00 -0.21525092357E+03  0.21525092357E+03  0.00000000000E+00 0. -1.
         21    1    1    2  503  501  0.64808516554E+00 -0.10795976519E+03 -0.42093178817E+02  0.11587737750E+03  0.00000000000E+00 0. -1.
         21    1    1    2  504  505 -0.52975380169E+02  0.42146640004E+02  0.21114103659E+03  0.22172791321E+03  0.00000000000E+00 0.  1.
         21    1    1    2  505  502  0.12250933975E+03  0.10172422495E+03 -0.73644882058E+02  0.17544208424E+03  0.00000000000E+00 0. -1.
          2    1    1    2  501    0 -0.70182044745E+02 -0.35911099765E+02  0.23526490551E+03  0.24812235340E+03  0.00000000000E+00 0.  1.
<scales pt_clust_3="103.37575" pt_clust_4="67.69587" pt_clust_5="111.35164" pt_clust_6="14000.00000"></scales>
<clustering>
<clus scale="   67.696">  1  4  2 -1</clus>
<clus scale="  103.376">  2  3  1 -1</clus>
<clus scale="  111.352">  2  5  1 -1</clus>
<clus scale="  103.376">  2  3  1 -1</clus>
</clustering>
</event>
<event>
 6    0  0.1631680E+002  0.1281810E+03  0.7546771E-02  0.1230180E+00
         21   -1    0    0  504  502  0.00000000000E+00  0.00000000000E+00  0.19684032269E+03  0.19684032269E+03  0.00000000000E+00 0.  1.
         -1   -1    0    0    0  501 -0.00000000000E+00 -0.00000000000E+00 -0.23387056067E+04  0.23387056067E+04  0.00000000000E+00 0.  1.
         21    1    1    2  503  501  0.18770049614E+02 -0.34438879795E+02 -0.53286569120E+03  0.53430721131E+03  0.00000000000E+00 0.  1.
         21    1    1    2  504  505 -0.13069238057E+02  0.32449139985E+02  0.14317249979E+03  0.14738424734E+03  0.00000000000E+00 0.  1.
         21    1    1    2  505  503  0.13369511557E+03  0.93390544101E+01 -0.45574936227E+02  0.14155803289E+03  0.00000000000E+00 0.  1.
         -1    1    1    2    0  502 -0.13939592712E+03 -0.73493145997E+01 -0.17065971563E+04  0.17122964378E+04  0.00000000000E+00 0.  1.
<scales pt_clust_3="38.73616" pt_clust_4="34.98216" pt_clust_5="14000.00000" pt_clust_6="128.18104"></scales>
<clustering>
<clus scale="   34.982">  1  4  2 -1</clus>
<clus scale="   38.736">  2  3  1 -1</clus>
<clus scale="  128.181">  2  6  1 -1</clus>
<clus scale="   34.982">  1  3  2 -1</clus>
</clustering>
</event>
<event>
 6    0  0.1631680E+002  0.9685811E+02  0.7546771E-02  0.1287045E+00
          2   -1    0    0  502    0 -0.00000000000E+00  0.00000000000E+00  0.15505398985E+04  0.15505398985E+04  0.00000000000E+00 0. -1.
         21   -1    0    0  505  502  0.00000000000E+00 -0.00000000000E+00 -0.14211139317E+03  0.14211139317E+03  0.00000000000E+00 0. -1.
         21    1    1    2  503  504 -0.33538480677E+02 -0.84752853776E+02  0.23949950082E+03  0.25625746195E+03  0.00000000000E+00 0. -1.
         21    1    1    2  504  501  0.64010267932E+01  0.76118415368E+02  0.30807858805E+03  0.31740731359E+03  0.00000000000E+00 0.  1.
         21    1    1    2  505  503  0.10208723036E+03 -0.59099792960E+01 -0.10707186583E+03  0.14805780936E+03  0.00000000000E+00 0. -1.
          2    1    1    2  501    0 -0.74949776480E+02  0.14544417704E+02  0.96792228226E+03  0.97092870674E+03  0.00000000000E+00 0. -1.
<scales pt_clust_3="14000.00000" pt_clust_4="90.54567" pt_clust_5="96.85811" pt_clust_6="76.34795"></scales>
<clustering>
<clus scale="   76.348">  1  6  2 -1</clus>
<clus scale="   90.546">  1  4  2 -1</clus>
<clus scale="   96.858">  2  5  1 -1</clus>
<clus scale="   96.858">  2  3  1 -1</clus>
</clustering>
</event>
<event>
 6    0  0.1631680E+002  0.8328948E+02  0.7546771E-02  0.1319967E+00
         21   -1    0    0  503  502  0.00000000000E+00  0.00000000000E+00  0.14496701097E+03  0.14496701097E+03  0.00000000000E+00 0. -1.
          2   -1    0    0  504    0 -0.00000000000E+00 -0.00000000000E+00 -0.17231965996E+04  0.17231965996E+04  0.00000000000E+00 0. -1.
         21    1    1    2  503  505  0.48937078067E+02  0.30822120791E+02  0.97849558444E+02  0.11366343663E+03  0.00000000000E+00 0. -1.
         21    1    1    2  504  502 -0.27502490598E+02 -0.75296290466E+02 -0.17140762305E+02  0.81973923167E+02  0.00000000000E+00 0. -1.
         21    1    1    2  505  501  0.65280368700E+02  0.23006468908E+02 -0.21586300936E+03  0.22668847116E+03  0.00000000000E+00 0. -1.
          2    1    1    2  501    0 -0.86714956170E+02  0.21467700767E+02 -0.14430753754E+04  0.14458377796E+04  0.00000000000E+00 0. -1.
<scales pt_clust_3="57.83460" pt_clust_4="51.47176" pt_clust_5="14000.00000" pt_clust_6="83.28948"></scales>
<clustering>
<clus scale="   57.835">  1  3  2 -1</clus>
<clus scale="   51.472">  1  4  2 -1</clus>
<clus scale="   83.289">  2  6  1 -1</clus>
<clus scale="   57.835">  1  3  2 -1</clus>
</clustering>
</event>
<event>
 6    0  0.1631680E+002  0.9559168E+02  0.7546771E-02  0.1289849E+00
          2   -1    0    0  503    0 -0.00000000000E+00  0.00000000000E+00  0.50747205319E+03  0.50747205319E+03  0.00000000000E+00 0.  1.
         21   -1    0    0  504  502  0.00000000000E+00 -0.00000000000E+00 -0.21174548311E+03  0.21174548311E+03  0.00000000000E+00 0. -1.
         21    1    1    2  503  502 -0.72054795755E+02  0.70442802656E+02 -0.81123166710E+02  0.12936402210E+03  0.00000000000E+00 0. -1.
         21    1    1    2  504  505 -0.35626516534E+02 -0.50973959628E+02 -0.84959754997E+02  0.10528890354E+03  0.00000000000E+00 0. -1.
         21    1    1    2  505  501  0.66260575699E+02 -0.13405210620E+02  0.10225654016E+03  0.12258288448E+03  0.00000000000E+00 0.  1.
          2    1    1    2  501    0  0.41420736590E+02 -0.60636324081E+01  0.35955295163E+03  0.36198172618E+03  0.00000000000E+00 0.  1.
<scales pt_clust_3="14000.00000" pt_clust_4="60.94546" pt_clust_5="95.59168" pt_clust_6="41.86222"></scales>
<clustering>
<clus scale="   41.862">  1  6  2 -1</clus>
<clus scale="   60.945">  2  4  1 -1</clus>
<clus scale="   95.592">  1  5  2 -1</clus>
<clus scale="   60.945">  2  3  1 -1</clus>
</clustering>
</event>
<event>
 6    0  0.1631680E+002  0.3049610E+03  0.7546771E-02  0.1082787E+00
          2   -1    0    0  504    0 -0.00000000000E+00  0.00000000000E+00  0.96307327968E+03  0.96307327968E+03  0.00000000000E+00 0. -1.
         21   -1    0    0  501  502  0.00000000000E+00 -0.00000000000E+00 -0.23226969231E+03  0.23226969231E+03  0.00000000000E+00 0.  1.
         21    1    1    2  503  502  0.80816291384E+02  0.19251419876E+02 -0.31043418253E+02  0.88688127374E+02  0.00000000000E+00 0. -1.
         21    1    1    2  504  505 -0.37774918637E+02  0.46451815226E+02  0.37334706967E+03  0.37811737602E+03  0.00000000000E+00 0.  1.
         21    1    1    2  505  503 -0.11949667508E+03 -0.32350580215E+03  0.25085796760E+03  0.42645653857E+03  0.00000000000E+00 0.  1.
          2    1    1    2  501    0  0.76455302331E+02  0.25780256705E+03  0.13764196835E+03  0.30208093003E+03  0.00000000000E+00 0. -1.
<scales pt_clust_3="81.84540" pt_clust_4="59.87249" pt_clust_5="304.96096" pt_clust_6="14000.00000"></scales>
<clustering>
<clus scale="   59.872">  1  4  2 -1</clus>
<clus scale="   81.845">  2  3  1 -1</clus>
<clus scale="  304.961">  1  5  2 -1</clus>
<clus scale="   81.845">  2  3  1 -1</clus>
</clustering>
</event>
<event>
 6    0  0.1631680E+002  0.1093801E+03  0.7546771E-02  0.1261722E+00
         21   -1    0    0  505  502  0.00000000000E+00  0.00000000000E+00  0.90550842103E+02  0.90550842103E+02  0.00000000000E+00 0.  1.
          2   -1    0    0  504    0 -0.00000000000E+00 -0.00000000000E+00 -0.13787776991E+04  0.13787776991E+04  0.00000000000E+00 0.  1.
         21    1    1    2  503  502  0.53034484507E+02 -0.63593117907E+02  0.31289001642E+02  0.88519731223E+02  0.00000000000E+00 0.  1.
         21    1    1    2  504  503  0.42983967153E+02  0.48656379106E+00 -0.38505206735E+01  0.43158830916E+02  0.00000000000E+00 0. -1.
         21    1    1    2  505  501 -0.45232748656E+01  0.50338609927E+02 -0.59399102597E+02  0.77991596049E+02  0.00000000000E+00 0.  1.
          2    1    1    2  501    0 -0.91495176794E+02  0.12767944189E+02 -0.12562662353E+04  0.12596583830E+04  0.00000000000E+00 0.  1.
<scales pt_clust_3="41.91584" pt_clust_4="41.91584" pt_clust_5="50.54143" pt_clust_6="92.62618"></scales>
<clustering>
<clus scale="   41.916">  3  4 -1 -1</clus>
<clus scale="   50.541">  1  5  2 -1</clus>
<clus scale="   92.626">  2  6  1 -1</clus>
<clus scale="   50.541">  1  3  2 -1</clus>
</clustering>
</event>
<event>
 6    0  0.1631680E+002  0.1061169E+03  0.7546771E-02  0.1267935E+00
         21   -1    0    0  504  502  0.00000000000E+00  0.00000000000E+00  0.70807494523E+03  0.70807494523E+03  0.00000000000E+00 0. -1.
          2   -1    0    0  505    0 -0.00000000000E+00 -0.00000000000E+00 -0.71254930489E+03  0.71254930489E+03  0.00000000000E+00 0.  1.
         21    1    1    2  503  502  0.34564631958E+02 -0.44411500322E+02  0.39631902646E+03  0.40029472377E+03  0.00000000000E+00 0. -1.
         21    1    1    2  504  501 -0.53516179352E+02 -0.61915411934E+02  0.29126430907E+03  0.30254321580E+03  0.00000000000E+00 0. -1.
         21    1    1    2  505  503  0.32688669722E+02  0.11631980297E+02 -0.22337752879E+02  0.41265328031E+02  0.00000000000E+00 0. -1.
          2    1    1    2  501    0 -0.13737122328E+02  0.94694931960E+02 -0.66971994231E+03  0.67652098253E+03  0.00000000000E+00 0.  1.
<scales pt_clust_3="56.30885" pt_clust_4="106.11692" pt_clust_5="34.69657" pt_clust_6="14000.00000"></scales>
<clustering>
<clus scale="   34.697">  2  5  1 -1</clus>
<clus scale="   56.309">  1  3  2 -1</clus>
<clus scale="  106.117">  1  4  2 -1</clus>
<clus scale="   56.309">  1  3  2 -1</clus>
</clustering>
</event>
<event>
 6    0  0.1631680E+002  0.5733344E+02  0.7546771E-02  0.1409375E+00
          2   -1    0    0  504    0 -0.00000000000E+00  0.00000000000E+00  0.79609447912E+03  0.79609447912E+03  0.00000000000E+00 0. -1.
         21   -1    0    0  505  502  0.00000000000E+00 -0.00000000000E+00 -0.18561545339E+04  0.18561545339E+04  0.00000000000E+00 0. -1.
         21    1    1    2  503  501 -0.27947847227E+02  0.75034844282E+02 -0.21562491034E+03  0.23001176487E+03  0.00000000000E+00 0. -1.
         21    1    1    2  504  502 -0.54573658896E+02  0.80734783930E+01  0.23586251127E+03  0.24222838298E+03  0.00000000000E+00 0.  1.
         21    1    1    2  505  503  0.45943027200E+02 -0.27265729979E+02 -0.16276872230E+04  0.16285637469E+04  0.00000000000E+00 0. -1.
          2    1    1    2  501    0  0.36578478923E+02 -0.55842592696E+02  0.54738956721E+03  0.55144511837E+03  0.00000000000E+00 0. -1.
<scales pt_clust_3="51.27325" pt_clust_4="57.33344" pt_clust_5="53.42454" pt_clust_6="14000.00000"></scales>
<clustering>
<clus scale="   53.425">  2  5  1 -1</clus>
<clus scale="   51.273">  2  3  1 -1</clus>
<clus scale="   57.333">  2  4  1 -1</clus>
<clus scale="   53.425">  2  3  1 -1</clus>
</clustering>
</event>
<event>
 6    0  0.1631680E+002  0.1076767E+03  0.7546771E-02  0.1264934E+00
          1   -1    0    0  504    0 -0.00000000000E+00  0.00000000000E+00  0.16428593272E+04  0.16428593272E+04  0.00000000000E+00 0. -1.
         21   -1    0    0  503  502  0.00000000000E+00 -0.00000000000E+00 -0.86068531489E+02  0.86068531489E+02  0.00000000000E+00 0.  1.
         21    1    1    2  503  505  0.44527980670E+02 -0.79618901085E+02  0.20186505343E+02  0.93431287428E+02  0.00000000000E+00 0.  1.
         21    1    1    2  504  502 -0.34663412072E+02  0.58190312789E+02 -0.12964282342E+02  0.68961853627E+02  0.00000000000E+00 0. -1.
         21    1    1    2  505  501 -0.37288243642E+02 -0.88885932976E+02  0.40397853947E+03  0.41531889259E+03  0.00000000000E+00 0.  1.
          1    1    1    2  501    0  0.27423675044E+02  0.11031452127E+03  0.11455900332E+04  0.11512158250E+04  0.00000000000E+00 0. -1.
<scales pt_clust_3="36.28237" pt_clust_4="67.73230" pt_clust_5="14000.00000" pt_clust_6="107.67667"></scales>
<clustering>
<clus scale="   67.732">  2  4  1 -1</clus>
<clus scale="   36.282">  2  3  1 -1</clus>
<clus scale="  107.677">  1  6  2 -1</clus>
<clus scale="   67.732">  2  3  1 -1</clus>
</clustering>
</event>
<event>
 6    0  0.1631680E+002  0.9512106E+02  0.7546771E-02  0.1290904E+00
         -3   -1    0    0    0  501 -0.00000000000E+00  0.00000000000E+00  0.39245037128E+03  0.39245037128E+03  0.00000000000E+00 0.  1.
         21   -1    0    0  503  502  0.00000000000E+00 -0.00000000000E+00 -0.32563224629E+03  0.32563224629E+03  0.00000000000E+00 0.  1.
         21    1    1    2  503  505  0.74864853139E+02  0.49446839683E+02 -0.24518593536E+03  0.26108596111E+03  0.00000000000E+00 0.  1.
         21    1    1    2  504  501 -0.50946545423E+02  0.18720478020E+01  0.58215382616E+01  0.51312234031E+02  0.00000000000E+00 0.  1.
         21    1    1    2  505  504 -0.55583994604E+02  0.16027949314E+02 -0.27322897633E+02  0.63976685991E+02  0.00000000000E+00 0. -1.
         -3    1    1    2    0  502  0.31665686889E+02 -0.67346836799E+02  0.33350541973E+03  0.34170773644E+03  0.00000000000E+00 0.  1.
<scales pt_clust_3="88.81416" pt_clust_4="31.97403" pt_clust_5="31.97403" pt_clust_6="74.41984"></scales>
<clustering>
<clus scale="   31.974">  4  5 -1 -1</clus>
<clus scale="   74.420">  1  6  2 -1</clus>
<clus scale="   88.814">  2  3  1 -1</clus>
<clus scale="   88.814">  2  3  1 -1</clus>
</clustering>
</event>
<event>
 6    0  0.1631680E+002  0.7099553E+02  0.7546771E-02  0.1356740E+00
         21   -1    0    0  503  502  0.00000000000E+00  0.00000000000E+00  0.18344066053E+03  0.18344066053E+03  0.00000000000E+00 0. -1.
          2   -1    0    0  505    0 -0.00000000000E+00 -0.00000000000E+00 -0.13045946459E+04  0.13045946459E+04  0.00000000000E+00 0. -1.
         21    1    1    2  503  501  0.10204817872E+03 -0.57664336370E+02 -0.27934906473E+03  0.30294373477E+03  0.00000000000E+00 0. -1.
         21    1    1    2  504  502 -0.45491910921E+02  0.18236529560E+02  0.16604966741E+03  0.17313167537E+03  0.00000000000E+00 0. -1.
         21    1    1    2  505  504 -0.36829541218E+02 -0.77825518370E+01 -0.32036409306E+03  0.32256803211E+03  0.00000000000E+00 0. -1.
          2    1    1    2  501    0 -0.19726726584E+02  0.47210358647E+02 -0.68749049496E+03  0.68939186415E+03  0.00000000000E+00 0. -1.
<scales pt_clust_3="70.99553" pt_clust_4="49.12382" pt_clust_5="37.64284" pt_clust_6="14000.00000"></scales>
<clustering>
<clus scale="   37.643">  2  5  1 -1</clus>
<clus scale="   49.124">  1  4  2 -1</clus>
<clus scale="   70.996">  1  3  2 -1</clus>
<clus scale="   49.124">  1  3  2 -1</clus>
</clustering>
</event>
<event>
 6    0  0.1631680E+002  0.1501805E+03  0.7546771E-02  0.1200251E+00
          1   -1    0    0  505    0 -0.00000000000E+00  0.00000000000E+00  0.11352947613E+04  0.11352947613E+04  0.00000000000E+00 0.  1.
         21   -1    0    0  501  502  0.00000000000E+00 -0.00000000000E+00 -0.76158013438E+02  0.76158013438E+02  0.00000000000E+00 0.  1.
         21    1    1    2  503  504  0.81114908990E+01  0.14237409649E+03  0.73302033141E+02  0.16034140980E+03  0.00000000000E+00 0.  1.
         21    1    1    2  504  502 -0.53879168755E+02  0.12634897752E+02  0.60618769568E+02  0.82080696213E+02  0.00000000000E+00 0.  1.
         21    1    1    2  505  503  0.10799749708E+03 -0.31622618181E+01  0.53347673676E+03  0.54430771439E+03  0.00000000000E+00 0.  1.
          1    1    1    2  501    0 -0.62229819224E+02 -0.15184673242E+03  0.39173920840E+03  0.42472295435E+03  0.00000000000E+00 0.  1.
<scales pt_clust_3="14000.00000" pt_clust_4="55.34081" pt_clust_5="103.55947" pt_clust_6="150.18055"></scales>
<clustering>
<clus scale="   55.341">  2  4  1 -1</clus>
<clus scale="  103.559">  1  5  2 -1</clus>
<clus scale="  150.181">  1  6  2 -1</clus>
<clus scale="   55.341">  2  3  1 -1</clus>
</clustering>
</event>
<event>
 6    0  0.1631680E+002  0.1299952E+03  0.7546771E-02  0.1227463E+00
         21   -1    0    0  503  502  0.00000000000E+00  0.00000000000E+00  0.39321622582E+03  0.39321622582E+03  0.00000000000E+00 0. -1.
         -2   -1    0    0    0  501 -0.00000000000E+00 -0.00000000000E+00 -0.14246259099E+03  0.14246259099E+03  0.00000000000E+00 0.  1.
         21    1    1    2  503  505  0.20109956959E+02 -0.18156972489E+03  0.12171645427E+03  0.21951508059E+03  0.00000000000E+00 0. -1.
         21    1    1    2  504  502 -0.67074023090E+02  0.72166237974E+02  0.13462390536E+03  0.16682471751E+03  0.00000000000E+00 0.  1.
         21    1    1    2  505  501  0.36062366548E+02  0.93799710952E+00 -0.16718212862E+02  0.39760190655E+02  0.00000000000E+00 0.  1.
         -2    1    1    2    0  504  0.10901699582E+02  0.10846548981E+03  0.11131488058E+02  0.10957882806E+03  0.00000000000E+00 0.  1.
<scales pt_clust_3="129.99515" pt_clust_4="95.23618" pt_clust_5="36.07456" pt_clust_6="14000.00000"></scales>
<clustering>
<clus scale="   36.075">  2  5  1 -1</clus>
<clus scale="   95.236">  1  4  2 -1</clus>
<clus scale="  129.995">  1  3  2 -1</clus>
<clus scale="   95.236">  1  3  2 -1</clus>
</clustering>
</event>
<event>
 6    0  0.1631680E+002  0.1230696E+03  0.7546771E-02  0.1238117E+00
         21   -1    0    0  504  502  0.00000000000E+00  0.00000000000E+00  0.21694298842E+04  0.21694298842E+04  0.00000000000E+00 0.  1.
          2   -1    0    0  503    0 -0.00000000000E+00 -0.00000000000E+00 -0.17848366138E+03  0.17848366138E+03  0.00000000000E+00 0. -1.
         21    1    1    2  503  505 -0.81304378781E+02  0.38616649715E+02 -0.94351637924E+01  0.90502320191E+02  0.00000000000E+00 0.  1.
         21    1    1    2  504  501 -0.25614571918E+02  0.16725919239E+02  0.93837825661E+03  0.93887678379E+03  0.00000000000E+00 0.  1.
         21    1    1    2  505  502  0.46844348812E+02  0.10475840930E+03  0.11290444834E+04  0.11348612968E+04  0.00000000000E+00 0.  1.
          2    1    1    2  501    0  0.60074601886E+02 -0.16010097826E+03 -0.67041353491E+02  0.18367314477E+03  0.00000000000E+00 0. -1.
<scales pt_clust_3="91.00755" pt_clust_4="30.59187" pt_clust_5="123.06958" pt_clust_6="14000.00000"></scales>
<clustering>
<clus scale="   30.592">  1  4  2 -1</clus>
<clus scale="   91.008">  2  3  1 -1</clus>
<clus scale="  123.070">  1  5  2 -1</clus>
<clus scale="   30.592">  1  3  2 -1</clus>
</clustering>
</event>
<event>
 6    0  0.1631680E+002  0.2018024E+03  0.7546771E-02  0.1148227E+00
          2   -1    0    0  502    0 -0.00000000000E+00  0.00000000000E+00  0.30335733363E+04  0.30335733363E+04  0.00000000000E+00 0. -1.
         21   -1    0    0  503  502  0.00000000000E+00 -0.00000000000E+00 -0.20625655186E+03  0.20625655186E+03  0.00000000000E+00 0. -1.
         21    1    1    2  503  504  0.19147648287E+03  0.65728717137E+02 -0.12887359983E+03  0.23998315041E+03  0.00000000000E+00 0. -1.
         21    1    1    2  504  505 -0.20214319901E+03 -0.11084305746E+02  0.52834616266E+03  0.56580420848E+03  0.00000000000E+00 0. -1.
         21    1    1    2  505  501 -0.33129481048E+02 -0.41123492202E+02  0.24099380482E+03  0.24671181181E+03  0.00000000000E+00 0. -1.
          2    1    1    2  501    0  0.43796197190E+02 -0.13520919189E+02  0.21868504168E+04  0.21873307175E+04  0.00000000000E+00 0. -1.
<scales pt_clust_3="201.80239" pt_clust_4="14000.00000" pt_clust_5="49.47166" pt_clust_6="45.83582"></scales>
<clustering>
<clus scale="   45.836">  1  6  2 -1</clus>
<clus scale="   49.472">  1  5  2 -1</clus>
<clus scale="  201.802">  2  3  1 -1</clus>
<clus scale="  201.802">  2  3  1 -1</clus>
</clustering>
</event>
<event>
 6    0  0.1631680E+002  0.6245053E+02  0.7546771E-02  0.1387827E+00
         -1   -1    0    0    0  501 -0.00000000000E+00  0.00000000000E+00  0.92242812801E+02  0.92242812801E+02  0.00000000000E+00 0. -1.
         21   -1    0    0  505  502  0.00000000000E+00 -0.00000000000E+00 -0.59741403334E+03  0.59741403334E+03  0.00000000000E+00 0. -1.
         21    1    1    2  503  504  0.22372568122E+02  0.43718511170E+02 -0.12248065010E+03  0.13195965168E+03  0.00000000000E+00 0. -1.
         21    1    1    2  504  502  0.11350454362E+02 -0.76620020015E+02 -0.41034715318E+03  0.41759339842E+03  0.00000000000E+00 0. -1.
         21    1    1    2  505  501  0.41851308791E+02  0.25322309666E+02 -0.17249926327E+02  0.51868211581E+02  0.00000000000E+00 0. -1.
         -1    1    1    2    0  503 -0.75574331275E+02  0.75791991786E+01  0.44906509067E+02  0.88235584457E+02  0.00000000000E+00 0. -1.
<scales pt_clust_3="62.45053" pt_clust_4="14000.00000" pt_clust_5="48.91576" pt_clust_6="48.77099"></scales>
<clustering>
<clus scale="   48.916">  1  5  2 -1</clus>
<clus scale="   48.771">  1  6  2 -1</clus>
<clus scale="   62.451">  1  3  2 -1</clus>
<clus scale="   62.451">  2  3  1 -1</clus>
</clustering>
</event>
<event>
 6    0  0.1631680E+002  0.9130106E+02  0.7546771E-02  0.1299731E+00
         21   -1    0    0  503  502  0.00000000000E+00  0.00000000000E+00  0.70322580830E+02  0.70322580830E+02  0.00000000000E+00 0.  1.
          1   -1    0    0  504    0 -0.00000000000E+00 -0.00000000000E+00 -0.98821536410E+03  0.98821536410E+03  0.00000000000E+00 0. -1.
         21    1    1    2  503  501 -0.48349034977E+02 -0.55984779731E+02 -0.21432501787E+02  0.77014783500E+02  0.00000000000E+00 0.  1.
         21    1    1    2  504  505 -0.15253924750E+02  0.47203509045E+02 -0.28646234250E+03  0.29072586255E+03  0.00000000000E+00 0. -1.
         21    1    1    2  505  502  0.96459950052E+02  0.99024294728E+02 -0.96974531718E+02  0.16886205232E+03  0.00000000000E+00 0.  1.
          1    1    1    2  501    0 -0.32856990325E+02 -0.90243024042E+02 -0.51302340727E+03  0.52193524656E+03  0.00000000000E+00 0. -1.
<scales pt_clust_3="91.30106" pt_clust_4="49.60699" pt_clust_5="14000.00000" pt_clust_6="70.77830"></scales>
<clustering>
<clus scale="   49.607">  2  4  1 -1</clus>
<clus scale="   70.778">  2  6  1 -1</clus>
<clus scale="   91.301">  1  3  2 -1</clus>
<clus scale="   91.301">  1  3  2 -1</clus>
</clustering>
</event>
<event>
 6    0  0.1631680E+002  0.2276483E+03  0.7546771E-02  0.1128306E+00
         21   -1    0    0  504  502  0.00000000000E+00  0.00000000000E+00  0.21193799770E+03  0.21193799770E+03  0.00000000000E+00 0. -1.
          2   -1    0    0  503    0 -0.00000000000E+00 -0.00000000000E+00 -0.22108807111E+04  0.22108807111E+04  0.00000000000E+00 0. -1.
         21    1    1    2  503  502  0.30629470903E+02 -0.28194521280E+01 -0.30352010965E+03  0.30507469702E+03  0.00000000000E+00 0.  1.
         21    1    1    2  504  505  0.17558474632E+02  0.42090501432E+02  0.10065456856E+03  0.11050453617E+03  0.00000000000E+00 0. -1.
         21    1    1    2  505  501  0.90148212711E+02  0.16178036533E+03  0.93070808788E+01  0.18543518710E+03  0.00000000000E+00 0. -1.
          2    1    1    2  501    0 -0.13833615825E+03 -0.20105141463E+03 -0.18053842532E+04  0.18218042885E+04  0.00000000000E+00 0. -1.
<scales pt_clust_3="30.75896" pt_clust_4="45.62984" pt_clust_5="14000.00000" pt_clust_6="227.64827"></scales>
<clustering>
<clus scale="   30.759">  2  3  1 -1</clus>
<clus scale="   45.630">  1  4  2 -1</clus>
<clus scale="  227.648">  2  6  1 -1</clus>
<clus scale="   45.630">  1  3  2 -1</clus>
</clustering>
</event>
<event>
 6    0  0.1631680E+002  0.9542912E+02  0.7546771E-02  0.1290213E+00
          1   -1    0    0  503    0 -0.00000000000E+00  0.00000000000E+00  0.12729031868E+04  0.12729031868E+04  0.00000000000E+00 0. -1.
         21   -1    0    0  501  502  0.00000000000E+00 -0.00000000000E+00 -0.38469060220E+02  0.38469060220E+02  0.00000000000E+00 0. -1.
         21    1    1    2  503  504  0.50154520103E+02  0.72386411774E+01  0.38058429753E+03  0.38394307044E+03  0.00000000000E+00 0. -1.
         21    1    1    2  504  505  0.35282782616E+02 -0.10133442921E+03  0.20391310851E+03  0.23042156391E+03  0.00000000000E+00 0. -1.
         21    1    1    2  505  502 -0.75460081596E+02  0.58308959924E+02  0.76196551332E+02  0.12206585582E+03  0.00000000000E+00 0. -1.
          1    1    1    2  501    0 -0.99772211234E+01  0.35786828111E+02  0.57374016919E+03  0.57494175683E+03  0.00000000000E+00 0. -1.
<scales pt_clust_3="52.12517" pt_clust_4="95.42912" pt_clust_5="14000.00000" pt_clust_6="37.15161"></scales>
<clustering>
<clus scale="   37.152">  1  6  2 -1</clus>
<clus scale="   52.125">  1  3  2 -1</clus>
<clus scale="   95.429">  1  4  2 -1</clus>
<clus scale="   95.429">  2  3  1 -1</clus>
</clustering>
</event>
<event>
 6    0  0.1631680E+002  0.1096626E+03  0.7546771E-02  0.1261196E+00
          2   -1    0    0  503    0 -0.00000000000E+00  0.00000000000E+00  0.73009476715E+03  0.73009476715E+03  0.00000000000E+00 0. -1.
         21   -1    0    0  505  502  0.00000000000E+00 -0.00000000000E+00 -0.26817219014E+03  0.26817219014E+03  0.00000000000E+00 0. -1.
         21    1    1    2  503  502  0.53870863000E+02  0.41195918532E+01  0.15192364099E+03  0.16124463901E+03  0.00000000000E+00 0. -1.
         21    1    1    2  504  501 -0.31531287732E+02 -0.12726404772E+03 -0.22462151143E+03  0.26008687654E+03  0.00000000000E+00 0. -1.
         21    1    1    2  505  504  0.35430030404E+02  0.18283604427E+02  0.13276745848E+02  0.42022008823E+02  0.00000000000E+00 0.  1.
          2    1    1    2  501    0 -0.57769605672E+02  0.10486085144E+03  0.52134370161E+03  0.53491343291E+03  0.00000000000E+00 0. -1.
<scales pt_clust_3="54.70320" pt_clust_4="109.66264" pt_clust_5="39.86950" pt_clust_6="14000.00000"></scales>
<clustering>
<clus scale="   39.870">  2  5  1 -1</clus>
<clus scale="   54.703">  1  3  2 -1</clus>
<clus scale="  109.663">  2  4  1 -1</clus>
<clus scale="   39.870">  2  3  1 -1</clus>
</clustering>
</event>
<event>
 6    0  0.1631680E+002  0.2518169E+03  0.7546771E-02  0.1112162E+00
         21   -1    0    0  505  502  0.00000000000E+00  0.00000000000E+00  0.21310353552E+04  0.21310353552E+04  0.00000000000E+00 0. -1.
          4   -1    0    0  503    0 -0.00000000000E+00 -0.00000000000E+00 -0.67599691557E+03  0.67599691557E+03  0.00000000000E+00 0.  1.
         21    1    1    2  503  504 -0.46410294595E+02  0.40939713401E+02 -0.52989470516E+03  0.53349636750E+03  0.00000000000E+00 0.  1.
         21    1    1    2  504  502 -0.17602381104E+03 -0.21783718613E+03  0.17666602558E+04  0.17887218569E+04  0.00000000000E+00 0. -1.
         21    1    1    2  505  501  0.16765362350E+02  0.25204387848E+02  0.22709415870E+03  0.22910280543E+03  0.00000000000E+00 0. -1.
          4    1    1    2  501    0  0.20566874329E+03  0.15169308488E+03 -0.88212697222E+01  0.25571124099E+03  0.00000000000E+00 0.  1.
<scales pt_clust_3="61.89068" pt_clust_4="14000.00000" pt_clust_5="30.27108" pt_clust_6="251.81686"></scales>
<clustering>
<clus scale="   30.271">  1  5  2 -1</clus>
<clus scale="   61.891">  2  3  1 -1</clus>
<clus scale="  251.817">  2  6  1 -1</clus>
<clus scale="   30.271">  1  3  2 -1</clus>
</clustering>
</event>
<event>
 6    0  0.1631680E+002  0.1312276E+03  0.7546771E-02  0.1225645E+00
         21   -1    0    0  501  502  0.00000000000E+00  0.00000000000E+00  0.20481905870E+04  0.20481905870E+04  0.00000000000E+00 0.  1.
          1   -1    0    0  504    0 -0.00000000000E+00 -0.00000000000E+00 -0.35021364447E+03  0.35021364447E+03  0.00000000000E+00 0.  1.
         21    1    1    2  503  502 -0.59894073475E+02  0.72750405596E+00  0.18404530974E+04  0.18414275531E+04  0.00000000000E+00 0.  1.
         21    1    1    2  504  505 -0.96467710303E+02 -0.82822625278E+01 -0.17030857621E+02  0.98309028655E+02  0.00000000000E+00 0.  1.
         21    1    1    2  505  503 -0.30064218479E+02  0.10486101865E+03  0.10168807356E+03  0.14913133397E+03  0.00000000000E+00 0.  1.
          1    1    1    2  501    0  0.18642600226E+03 -0.97306260183E+02 -0.22713337089E+03  0.30953631574E+03  0.00000000000E+00 0.  1.
<scales pt_clust_3="59.89849" pt_clust_4="108.51786" pt_clust_5="14000.00000" pt_clust_6="131.22760"></scales>
<clustering>
<clus scale="   59.898">  1  3  2 -1</clus>
<clus scale="  108.518">  2  4  1 -1</clus>
<clus scale="  131.228">  2  6  1 -1</clus>
<clus scale="   59.898">  1  3  2 -1</clus>
</clustering>
</event>
<event>
 6    0  0.1631680E+002  0.1645329E+03  0.7546771E-02  0.1183672E+00
          1   -1    0    0  503    0 -0.00000000000E+00  0.00000000000E+00  0.23984804215E+04  0.23984804215E+04  0.00000000000E+00 0. -1.
         21   -1    0    0  505  502  0.00000000000E+00 -0.00000000000E+00 -0.25978197750E+04  0.25978197750E+04  0.00000000000E+00 0.  1.
         21    1    1    2  503  502  0.10589941381E+02  0.42064765077E+02  0.22456877954E+03  0.22871975879E+03  0.00000000000E+00 0. -1.
         21    1    1    2  504  501 -0.37208520421E+02  0.18372016486E+03  0.86122241232E+02  0.20628769571E+03  0.00000000000E+00 0.  1.
         21    1    1    2  505  504  0.57007725741E+02 -0.15393958666E+03 -0.25322519225E+04  0.25375671569E+04  0.00000000000E+00 0.  1.
          1    1    1    2  501    0 -0.30389146701E+02 -0.71845343276E+02  0.20222215482E+04  0.20237255850E+04  0.00000000000E+00 0. -1.
<scales pt_clust_3="43.37731" pt_clust_4="164.53289" pt_clust_5="14000.00000" pt_clust_6="38.57722"></scales>
<clustering>
<clus scale="   43.377">  1  3  2 -1</clus>
<clus scale="   38.577">  1  6  2 -1</clus>
<clus scale="  164.533">  1  4  2 -1</clus>
<clus scale="  164.533">  2  3  1 -1</clus>
</clustering>
</event>
<event>
 6    0  0.1631680E+002  0.7306104E+02  0.7546771E-02  0.1349983E+00
         21   -1    0    0  505  502  0.00000000000E+00  0.00000000000E+00  0.11051638701E+04  0.11051638701E+04  0.00000000000E+00 0.  1.
         -4   -1    0    0    0  501 -0.00000000000E+00 -0.00000000000E+00 -0.98949593630E+02  0.98949593630E+02  0.00000000000E+00 0.  1.
         21    1    1    2  503  501 -0.14031659027E+02  0.60459433541E+02 -0.81611164711E+01  0.62600594097E+02  0.00000000000E+00 0. -1.
         21    1    1    2  504  502 -0.49581276097E+02 -0.55246934861E+02  0.65754921722E+03  0.66172615168E+03  0.00000000000E+00 0.  1.
         21    1    1    2  505  503 -0.24685884558E+02  0.56799472956E+02  0.36627583336E+03  0.37147484320E+03  0.00000000000E+00 0.  1.
         -4    1    1    2    0  504  0.88298819683E+02 -0.62011971636E+02 -0.94496576405E+01  0.10831187476E+03  0.00000000000E+00 0.  1.
<scales pt_clust_3="64.31944" pt_clust_4="14000.00000" pt_clust_5="61.93200" pt_clust_6="73.06104"></scales>
<clustering>
<clus scale="   61.932">  1  5  2 -1</clus>
<clus scale="   64.319">  2  3  1 -1</clus>
<clus scale="   73.061">  2  6  1 -1</clus>
<clus scale="   61.932">  1  3  2 -1</clus>
</clustering>
</event>
<event>
 6    0  0.1631680E+002  0.1325045E+03  0.7546771E-02  0.1223786E+00
         21   -1    0    0  505  502  0.00000000000E+00  0.00000000000E+00  0.10461295015E+04  0.10461295015E+04  0.00000000000E+00 0.  1.
          1   -1    0    0  503    0 -0.00000000000E+00 -0.00000000000E+00 -0.36276802630E+04  0.36276802630E+04  0.00000000000E+00 0.  1.
         21    1    1    2  503  502 -0.34057030870E+02 -0.54090388724E+02 -0.22658564951E+03  0.23542877493E+03  0.00000000000E+00 0.  1.
         21    1    1    2  504  501 -0.44843661318E+02  0.93834411204E+02  0.55040020469E+03  0.56013947907E+03  0.00000000000E+00 0.  1.
         21    1    1    2  505  504 -0.26973542193E+02  0.17949312627E+02  0.48482568175E+03  0.48590708112E+03  0.00000000000E+00 0. -1.
          1    1    1    2  501    0  0.10587423438E+03 -0.57693335108E+02 -0.33901909985E+04  0.33923344294E+04  0.00000000000E+00 0.  1.
<scales pt_clust_3="63.91317" pt_clust_4="132.50453" pt_clust_5="32.39984" pt_clust_6="14000.00000"></scales>
<clustering>
<clus scale="   32.400">  1  5  2 -1</clus>
<clus scale="   63.913">  2  3  1 -1</clus>
<clus scale="  132.505">  1  4  2 -1</clus>
<clus scale="   32.400">  1  3  2 -1</clus>
</clustering>
</event>
<event>
 6    0  0.1631680E+002  0.7245084E+02  0.7546771E-02  0.1351952E+00
         21   -1    0    0  504  502  0.00000000000E+00  0.00000000000E+00  0.22216953131E+03  0.22216953131E+03  0.00000000000E+00 0. -1.
          1   -1    0    0  505    0 -0.00000000000E+00 -0.00000000000E+00 -0.13535600673E+04  0.13535600673E+04  0.00000000000E+00 0.  1.
         21    1    1    2  503  502 -0.46887929085E+02 -0.66760164282E+01  0.20913659695E+03  0.21443218806E+03  0.00000000000E+00 0. -1.
         21    1    1    2  504  501 -0.51482819834E+02  0.28368271786E+02 -0.43180800910E+03  0.43579054178E+03  0.00000000000E+00 0.  1.
         21    1    1    2  505  503 -0.13412418207E+01 -0.44812969672E+02 -0.91402753060E+02  0.10180601381E+03  0.00000000000E+00 0.  1.
          1    1    1    2  501    0  0.99711990740E+02  0.23120714315E+02 -0.81731637083E+03  0.82370085501E+03  0.00000000000E+00 0.  1.
<scales pt_clust_3="47.37701" pt_clust_4="72.45084" pt_clust_5="44.83304" pt_clust_6="14000.00000"></scales>
<clustering>
<clus scale="   44.833">  2  5  1 -1</clus>
<clus scale="   47.377">  1  3  2 -1</clus>
<clus scale="   72.451">  1  4  2 -1</clus>
<clus scale="   47.377">  1  3  2 -1</clus>
</clustering>
</event>
<event>
 6    0  0.1631680E+002  0.9868977E+02  0.7546771E-02  0.1283076E+00
         21   -1    0    0  503  502  0.00000000000E+00  0.00000000000E+00  0.11679866140E+04  0.11679866140E+04  0.00000000000E+00 0. -1.
          1   -1    0    0  504    0 -0.00000000000E+00 -0.00000000000E+00 -0.26220078664E+04  0.26220078664E+04  0.00000000000E+00 0.  1.
         21    1    1    2  503  501 -0.20851855384E+02  0.63017050208E+02  0.16570587570E+03  0.17850598234E+03  0.00000000000E+00 0.  1.
         21    1    1    2  504  505 -0.26671927566E+02 -0.13254453425E+03 -0.38934379260E+03  0.41215049935E+03  0.00000000000E+00 0.  1.
         21    1    1    2  505  502 -0.29641085897E+02  0.24413180597E+02  0.98320054288E+03  0.98395015365E+03  0.00000000000E+00 0. -1.
          1    1    1    2  501    0  0.77164868846E+02  0.45114303446E+02 -0.22135838784E+04  0.22153878451E+04  0.00000000000E+00 0.  1.
<scales pt_clust_3="14000.00000" pt_clust_4="98.68977" pt_clust_5="38.40049" pt_clust_6="89.32050"></scales>
<clustering>
<clus scale="   38.400">  1  5  2 -1</clus>
<clus scale="   89.321">  2  6  1 -1</clus>
<clus scale="   98.690">  2  4  1 -1</clus>
<clus scale="   38.400">  1  3  2 -1</clus>
</clustering>
</event>
<event>
 6    0  0.1631680E+002  0.1070141E+03  0.7546771E-02  0.1266201E+00
         21   -1    0    0  503  502  0.00000000000E+00  0.00000000000E+00  0.93966618755E+02  0.93966618755E+02  0.00000000000E+00 0. -1.
          2   -1    0    0  504    0 -0.00000000000E+00 -0.00000000000E+00 -0.14916825356E+04  0.14916825356E+04  0.00000000000E+00 0. -1.
         21    1    1    2  503  501  0.11429806035E+03 -0.41009129128E+01  0.30229765002E-01  0.11437160924E+03  0.00000000000E+00 0. -1.
         21    1    1    2  504  505 -0.30615319740E+02  0.49214830399E+02 -0.13915156849E+03  0.15074002902E+03  0.00000000000E+00 0. -1.
         21    1    1    2  505  502 -0.86607747323E+02  0.60530562041E+02 -0.68866770108E+02  0.12612487012E+03  0.00000000000E+00 0. -1.
          2    1    1    2  501    0  0.29250067104E+01 -0.10564447953E+03 -0.11897278080E+04  0.11944126460E+04  0.00000000000E+00 0. -1.
<scales pt_clust_3="107.01407" pt_clust_4="57.96031" pt_clust_5="14000.00000" pt_clust_6="66.62236"></scales>
<clustering>
<clus scale="   57.960">  2  4  1 -1</clus>
<clus scale="   66.622">  2  6  1 -1</clus>
<clus scale="  107.014">  1  3  2 -1</clus>
<clus scale="  107.014">  1  3  2 -1</clus>
</clustering>
</event>
<event>
 6    0  0.1631680E+002  0.1558332E+03  0.7546771E-02  0.1193483E+00
         21   -1    0    0  505  502  0.00000000000E+00  0.00000000000E+00  0.16077946627E+03  0.16077946627E+03  0.00000000000E+00 0. -1.
          2   -1    0    0  503    0 -0.00000000000E+00 -0.00000000000E+00 -0.75670853085E+03  0.75670853085E+03  0.00000000000E+00 0. -1.
         21    1    1    2  503  504  0.26429561817E+02 -0.47864355566E+02 -0.80996980565E+02  0.97724250482E+02  0.00000000000E+00 0. -1.
         21    1    1    2  504  502  0.14906725330E+03 -0.93153333381E+02  0.62783741945E+02  0.18665580028E+03  0.00000000000E+00 0. -1.
         21    1    1    2  505  501 -0.37924536197E+02 -0.43427540911E+00 -0.23031373179E+02  0.44372324611E+02  0.00000000000E+00 0.  1.
          2    1    1    2  501    0 -0.13757227892E+03  0.14145196436E+03 -0.55468445279E+03  0.58873562174E+03  0.00000000000E+00 0. -1.
<scales pt_clust_3="53.70853" pt_clust_4="155.83317" pt_clust_5="37.92702" pt_clust_6="14000.00000"></scales>
<clustering>
<clus scale="   37.927">  1  5  2 -1</clus>
<clus scale="   53.709">  2  3  1 -1</clus>
<clus scale="  155.833">  1  4  2 -1</clus>
<clus scale="   37.927">  1  3  2 -1</clus>
</clustering>
</event>
<event>
 6    0  0.1631680E+002  0.1659364E+03  0.7546771E-02  0.1182153E+00
         21   -1    0    0  505  502  0.00000000000E+00  0.00000000000E+00  0.31221000674E+03  0.31221000674E+03  0.00000000000E+00 0. -1.
          2   -1    0    0  503    0 -0.00000000000E+00 -0.00000000000E+00 -0.15697688371E+04  0.15697688371E+04  0.00000000000E+00 0.  1.
         21    1    1    2  503  502  0.55633946339E+01 -0.40636083821E+02 -0.27730114766E+03  0.28031797866E+03  0.00000000000E+00 0. -1.
         21    1    1    2  504  501  0.20197876231E+03 -0.14321916010E+02  0.20696546524E+02  0.20354086749E+03  0.00000000000E+00 0. -1.
         21    1    1    2  505  504 -0.10534253125E+03  0.13324167045E+03  0.15803485062E+03  0.23200302939E+03  0.00000000000E+00 0. -1.
          2    1    1    2  501    0 -0.10219962569E+03 -0.78283670621E+02 -0.11589890798E+04  0.11661169683E+04  0.00000000000E+00 0.  1.
<scales pt_clust_3="41.01515" pt_clust_4="14000.00000" pt_clust_5="165.93636" pt_clust_6="150.47505"></scales>
<clustering>
<clus scale="   41.015">  2  3  1 -1</clus>
<clus scale="  150.475">  2  6  1 -1</clus>
<clus scale="  165.936">  1  5  2 -1</clus>
<clus scale="  165.936">  1  3  2 -1</clus>
</clustering>
</event>
<event>
 6    0  0.1631680E+002  0.1440039E+03  0.7546771E-02  0.1208041E+00
         21   -1    0    0  504  502  0.00000000000E+00  0.00000000000E+00  0.20728489348E+03  0.20728489348E+03  0.00000000000E+00 0.  1.
          2   -1    0    0  503    0 -0.00000000000E+00 -0.00000000000E+00 -0.37237971116E+04  0.37237971116E+04  0.00000000000E+00 0.  1.
         21    1    1    2  503  502  0.30406084173E+01 -0.71443881504E+02 -0.16786006123E+03  0.18245677203E+03  0.00000000000E+00 0.  1.
         21    1    1    2  504  505  0.37027264414E+02  0.47573500141E+02  0.11916879345E+03  0.13354945735E+03  0.00000000000E+00 0.  1.
         21    1    1    2  505  501 -0.17578677135E+03 -0.22393301932E+02 -0.36709732154E+02  0.18096975822E+03  0.00000000000E+00 0.  1.
          2    1    1    2  501    0  0.13571889852E+03  0.46263683295E+02 -0.34311112182E+04  0.34341060175E+04  0.00000000000E+00 0.  1.
<scales pt_clust_3="67.45581" pt_clust_4="60.28479" pt_clust_5="14000.00000" pt_clust_6="144.00388"></scales>
<clustering>
<clus scale="   60.285">  1  4  2 -1</clus>
<clus scale="   67.456">  1  3  2 -1</clus>
<clus scale="  144.004">  2  6  1 -1</clus>
<clus scale="   60.285">  1  3  2 -1</clus>
</clustering>
</event>
<event>
 6    0  0.1631680E+002  0.1765586E+03  0.7546771E-02  0.1171176E+00
         21   -1    0    0  505  502  0.00000000000E+00  0.00000000000E+00  0.40342044509E+03  0.40342044509E+03  0.00000000000E+00 0.  1.
         -4   -1    0    0    0  501 -0.00000000000E+00 -0.00000000000E+00 -0.45861731725E+03  0.45861731725E+03  0.00000000000E+00 0. -1.
         21    1    1    2  503  501  0.28146933008E+02  0.12188615469E+02 -0.68000841363E+02  0.74598435714E+02  0.00000000000E+00 0. -1.
         21    1    1    2  504  503 -0.57697904887E+02  0.16113086608E+03  0.11146511021E+02  0.17151224137E+03  0.00000000000E+00 0.  1.
         21    1    1    2  505  504  0.63946975643E+02  0.16908452651E+02  0.27404474555E+03  0.28191423169E+03  0.00000000000E+00 0.  1.
         -4    1    1    2    0  502 -0.34396003764E+02 -0.19022793420E+03 -0.27238728737E+03  0.33401285356E+03  0.00000000000E+00 0. -1.
<scales pt_clust_3="30.67266" pt_clust_4="14000.00000" pt_clust_5="66.45274" pt_clust_6="176.55857"></scales>
<clustering>
<clus scale="   30.673">  2  3  1 -1</clus>
<clus scale="   66.453">  1  5  2 -1</clus>
<clus scale="  176.559">  2  6  1 -1</clus>
<clus scale="   66.453">  1  3  2 -1</clus>
</clustering>
</event>
<event>
 6    0  0.1631680E+002  0.6696572E+02  0.7546771E-02  0.1370726E+00
         21   -1    0    0  505  502  0.00000000000E+00  0.00000000000E+00  0.47668160927E+03  0.47668160927E+03  0.00000000000E+00 0. -1.
         -1   -1    0    0    0  501 -0.00000000000E+00 -0.00000000000E+00 -0.37972201328E+03  0.37972201328E+03  0.00000000000E+00 0.  1.
         21    1    1    2  503  502 -0.87713737814E+02 -0.81512652136E+02 -0.20227836142E+03  0.23506285916E+03  0.00000000000E+00 0.  1.
         21    1    1    2  504  501  0.33270955858E+02  0.37367479725E+02 -0.10271477556E+02  0.51076298768E+02  0.00000000000E+00 0.  1.
         21    1    1    2  505  504  0.66720621279E+02 -0.34245150961E+00  0.43316700198E+03  0.43827549576E+03  0.00000000000E+00 0. -1.
         -1    1    1    2    0  503 -0.12277839324E+02  0.44487623921E+02 -0.12365756701E+03  0.13198896886E+03  0.00000000000E+00 0.  1.
<scales pt_clust_3="66.96572" pt_clust_4="53.29393" pt_clust_5="14000.00000" pt_clust_6="46.15077"></scales>
<clustering>
<clus scale="   46.151">  2  6  1 -1</clus>
<clus scale="   53.294">  2  4  1 -1</clus>
<clus scale="   66.966">  2  3  1 -1</clus>
<clus scale="   66.966">  1  3  2 -1</clus>
</clustering>
</event>
<event>
 6    0  0.1631680E+002  0.8483556E+02  0.7546771E-02  0.1315863E+00
          1   -1    0    0  504    0 -0.00000000000E+00  0.00000000000E+00  0.89653683235E+03  0.89653683235E+03  0.00000000000E+00 0. -1.
         21   -1    0    0  505  502  0.00000000000E+00 -0.00000000000E+00 -0.11617868450E+03  0.11617868450E+03  0.00000000000E+00 0.  1.
         21    1    1    2  503  502 -0.81283689375E+02  0.37359363141E+02 -0.56170612230E+02  0.10563095120E+03  0.00000000000E+00 0.  1.
         21    1    1    2  504  503 -0.29019104280E+02 -0.46029457117E+02  0.92583461528E+02  0.10738955575E+03  0.00000000000E+00 0.  1.
         21    1    1    2  505  501  0.42669449426E+02 -0.70654747327E+02  0.46971963924E+02  0.94969156199E+02  0.00000000000E+00 0. -1.
          1    1    1    2  501    0  0.67633344228E+02  0.79324841303E+02  0.69697333462E+03  0.70472585370E+03  0.00000000000E+00 0. -1.
<scales pt_clust_3="84.83556" pt_clust_4="54.41341" pt_clust_5="14000.00000" pt_clust_6="57.27035"></scales>
<clustering>
<clus scale="   54.413">  1  4  2 -1</clus>
<clus scale="   57.270">  1  6  2 -1</clus>
<clus scale="   84.836">  2  3  1 -1</clus>
<clus scale="   84.836">  2  3  1 -1</clus>
</clustering>
</event>
<event>
 6    0  0.1631680E+002  0.1032002E+03  0.7546771E-02  0.1273707E+00
          2   -1    0    0  504    0 -0.00000000000E+00  0.00000000000E+00  0.19756075684E+04  0.19756075684E+04  0.00000000000E+00 0.  1.
         21   -1    0    0  505  502  0.00000000000E+00 -0.00000000000E+00 -0.99971125273E+02  0.99971125273E+02  0.00000000000E+00 0. -1.
         21    1    1    2  503  502 -0.79325697870E+02 -0.49457245808E+02  0.43149935098E+02  0.10295874127E+03  0.00000000000E+00 0.  1.
         21    1    1    2  504  503  0.22623048108E+02  0.27980727401E+02  0.13178899578E+03  0.13661282085E+03  0.00000000000E+00 0. -1.
         21    1    1    2  505  501 -0.28167492824E+02  0.62288602309E+02 -0.48790175516E+02  0.83986658801E+02  0.00000000000E+00 0. -1.
          2    1    1    2  501    0  0.84870142586E+02 -0.40812083903E+02  0.17494876878E+04  0.17520204728E+04  0.00000000000E+00 0.  1.
<scales pt_clust_3="14000.00000" pt_clust_4="35.98227" pt_clust_5="68.51663" pt_clust_6="103.20017"></scales>
<clustering>
<clus scale="   35.982">  1  4  2 -1</clus>
<clus scale="   68.517">  2  5  1 -1</clus>
<clus scale="  103.200">  1  6  2 -1</clus>
<clus scale="   68.517">  2  3  1 -1</clus>
</clustering>
</event>
<event>
 6    0  0.1631680E+002  0.2393880E+03  0.7546771E-02  0.1120201E+00
         -4   -1    0    0    0  501 -0.00000000000E+00  0.00000000000E+00  0.38399869091E+03  0.38399869091E+03  0.00000000000E+00 0. -1.
         21   -1    0    0  505  502  0.00000000000E+00 -0.00000000000E+00 -0.81593091424E+03  0.81593091424E+03  0.00000000000E+00 0. -1.
         21    1    1    2  503  504 -0.84765619055E+02 -0.73811172970E+02 -0.33098854946E+03  0.34955216965E+03  0.00000000000E+00 0. -1.
         21    1    1    2  504  501  0.19544349581E+02  0.29344880515E+02 -0.53369596449E+01  0.35659315069E+02  0.00000000000E+00 0. -1.
         21    1    1    2  505  503  0.15913083883E+02 -0.12717619849E+03 -0.42288797506E+03  0.44188375298E+03  0.00000000000E+00 0. -1.
         -4    1    1    2    0  502  0.49308185591E+02  0.17164249094E+03  0.32728126084E+03  0.37283436746E+03  0.00000000000E+00 0. -1.
<scales pt_clust_3="106.25872" pt_clust_4="35.25767" pt_clust_5="106.25872" pt_clust_6="210.71826"></scales>
<clustering>
<clus scale="   35.258">  1  4  2 -1</clus>
<clus scale="  106.259">  3  5 -1 -1</clus>
<clus scale="  210.718">  1  6  2 -1</clus>
<clus scale="  239.388">  2  3  1 -1</clus>
</clustering>
</event>
<event>
 6    0  0.1631680E+002  0.1564981E+03  0.7546771E-02  0.1192708E+00
         21   -1    0    0  503  502  0.00000000000E+00  0.00000000000E+00  0.23887785037E+04  0.23887785037E+04  0.00000000000E+00 0. -1.
          2   -1    0    0  505    0 -0.00000000000E+00 -0.00000000000E+00 -0.49735548420E+02  0.49735548420E+02  0.00000000000E+00 0. -1.
         21    1    1    2  503  501 -0.39921924312E+02  0.11138548085E+03  0.19723319886E+04  0.19758780222E+04  0.00000000000E+00 0. -1.
         21    1    1    2  504  502 -0.20696738195E+02  0.44331092692E+02  0.16701182624E+03  0.17403031591E+03  0.00000000000E+00 0. -1.
         21    1    1    2  505  504  0.61119764047E+02 -0.97832443098E+01  0.50293102672E+02  0.79754207430E+02  0.00000000000E+00 0. -1.
          2    1    1    2  501    0 -0.50110153965E+00 -0.14593332923E+03  0.14940603781E+03  0.20885150662E+03  0.00000000000E+00 0. -1.
<scales pt_clust_3="14000.00000" pt_clust_4="48.92444" pt_clust_5="61.10489" pt_clust_6="156.49812"></scales>
<clustering>
<clus scale="   48.924">  1  4  2 -1</clus>
<clus scale="   61.105">  2  5  1 -1</clus>
<clus scale="  156.498">  2  6  1 -1</clus>
<clus scale="   48.924">  1  3  2 -1</clus>
</clustering>
</event>
<event>
 6    0  0.1631680E+002  0.9474888E+02  0.7546771E-02  0.1291743E+00
         21   -1    0    0  504  502  0.00000000000E+00  0.00000000000E+00  0.84616850402E+03  0.84616850402E+03  0.00000000000E+00 0.  1.
          2   -1    0    0  503    0 -0.00000000000E+00 -0.00000000000E+00 -0.21029700569E+03  0.21029700569E+03  0.00000000000E+00 0.  1.
         21    1    1    2  503  502  0.98189675226E+02  0.10524801389E+02  0.69488455986E+03  0.70186646543E+03  0.00000000000E+00 0.  1.
         21    1    1    2  504  505 -0.74145683636E+02  0.69943435057E+02  0.10361819482E+03  0.14534922362E+03  0.00000000000E+00 0.  1.
         21    1    1    2  505  501 -0.38493756845E+02 -0.33126080317E+02 -0.14126379004E+02  0.52713006905E+02  0.00000000000E+00 0.  1.
          2    1    1    2  501    0  0.14449765255E+02 -0.47342156129E+02 -0.14850487735E+03  0.15653681375E+03  0.00000000000E+00 0.  1.
<scales pt_clust_3="94.74888" pt_clust_4="14000.00000" pt_clust_5="67.59924" pt_clust_6="49.49824"></scales>
<clustering>
<clus scale="   49.498">  2  6  1 -1</clus>
<clus scale="   67.599">  2  5  1 -1</clus>
<clus scale="   94.749">  1  3  2 -1</clus>
<clus scale="   94.749">  1  3  2 -1</clus>
</clustering>
</event>
<event>
 6    0  0.1631680E+002  0.1766654E+03  0.7546771E-02  0.1171070E+00
         21   -1    0    0  503  502  0.00000000000E+00  0.00000000000E+00  0.39527994032E+02  0.39527994032E+02  0.00000000000E+00 0.  1.
          2   -1    0    0  504    0 -0.00000000000E+00 -0.00000000000E+00 -0.17265758545E+04  0.17265758545E+04  0.00000000000E+00 0.  1.
         21    1    1    2  503  505 -0.29038397745E+02  0.38303295606E+02 -0.53446201197E+02  0.71880925288E+02  0.00000000000E+00 0.  1.
         21    1    1    2  504  502 -0.43634598147E+02  0.40197038791E+02 -0.56293528211E+03  0.56605292326E+03  0.00000000000E+00 0.  1.
         21    1    1    2  505  501  0.35400506670E+00  0.11658158256E+03 -0.18718523600E+03  0.22052143499E+03  0.00000000000E+00 0.  1.
          2    1    1    2  501    0  0.72318990825E+02 -0.19508191696E+03 -0.88348114116E+03  0.90764856500E+03  0.00000000000E+00 0.  1.
<scales pt_clust_3="33.87681" pt_clust_4="59.32773" pt_clust_5="33.87681" pt_clust_6="168.60345"></scales>
<clustering>
<clus scale="   33.877">  3  5 -1 -1</clus>
<clus scale="   59.328">  2  4  1 -1</clus>
<clus scale="  168.603">  2  6  1 -1</clus>
<clus scale="  176.665">  1  3  2 -1</clus>
</clustering>
</event>
<event>
 6    0  0.1631680E+002  0.9044462E+02  0.7546771E-02  0.1301779E+00
          1   -1    0    0  504    0 -0.00000000000E+00  0.00000000000E+00  0.96433397521E+03  0.96433397521E+03  0.00000000000E+00 0.  1.
         21   -1    0    0  505  502  0.00000000000E+00 -0.00000000000E+00 -0.35983971201E+02  0.35983971201E+02  0.00000000000E+00 0.  1.
         21    1    1    2  503  501  0.10146032380E+03  0.51455021745E+02  0.21474799458E+03  0.24301958305E+03  0.00000000000E+00 0.  1.
         21    1    1    2  504  502 -0.28098800797E+02 -0.22617180091E+02  0.60720009071E+02  0.70625766849E+02  0.00000000000E+00 0. -1.
         21    1    1    2  505  503  0.14262323611E+02 -0.28880621452E+02  0.46488662070E+01  0.32544064394E+02  0.00000000000E+00 0.  1.
          1    1    1    2  501    0 -0.87623846610E+02  0.42779798229E-01  0.64823313415E+03  0.65412853212E+03  0.00000000000E+00 0.  1.
<scales pt_clust_3="90.44462" pt_clust_4="38.30103" pt_clust_5="32.21031" pt_clust_6="14000.00000"></scales>
<clustering>
<clus scale="   32.210">  2  5  1 -1</clus>
<clus scale="   38.301">  2  4  1 -1</clus>
<clus scale="   90.445">  2  3  1 -1</clus>
<clus scale="   32.210">  2  3  1 -1</clus>
</clustering>
</event>
<event>
 6    0  0.1631680E+002  0.8630214E+02  0.7546771E-02  0.1312062E+00
         21   -1    0    0  503  502  0.00000000000E+00  0.00000000000E+00  0.24083430553E+03  0.24083430553E+03  0.00000000000E+00 0.  1.
          2   -1    0    0  505    0 -0.00000000000E+00 -0.00000000000E+00 -0.24109050928E+04  0.24109050928E+04  0.00000000000E+00 0. -1.
         21    1    1    2  503  504  0.31685698461E+02 -0.76683927730E+02  0.19187223324E+03  0.20904392397E+03  0.00000000000E+00 0.  1.
         21    1    1    2  504  501 -0.11729159046E+02  0.13975132234E+03 -0.84095322826E+02  0.16352378600E+03  0.00000000000E+00 0. -1.
         21    1    1    2  505  502  0.72554902168E+01 -0.30510630668E+02 -0.63258208231E+03  0.63335900687E+03  0.00000000000E+00 0. -1.
          2    1    1    2  501    0 -0.27212029632E+02 -0.32556763938E+02 -0.16452656153E+04  0.16458126814E+04  0.00000000000E+00 0. -1.
<scales pt_clust_3="86.30214" pt_clust_4="14000.00000" pt_clust_5="31.36145" pt_clust_6="64.15762"></scales>
<clustering>
<clus scale="   31.361">  2  5  1 -1</clus>
<clus scale="   64.158">  2  6  1 -1</clus>
<clus scale="   86.302">  1  3  2 -1</clus>
<clus scale="   86.302">  1  3  2 -1</clus>
</clustering>
</event>
<event>
 6    0  0.1631680E+002  0.1144807E+03  0.7546771E-02  0.1252490E+00
         21   -1    0    0  505  502  0.00000000000E+00  0.00000000000E+00  0.48120499520E+03  0.48120499520E+03  0.00000000000E+00 0. -1.
          2   -1    0    0  504    0 -0.00000000000E+00 -0.00000000000E+00 -0.52550720723E+03  0.52550720723E+03  0.00000000000E+00 0.  1.
         21    1    1    2  503  502  0.29120128661E+02  0.19151272225E+02  0.17864463325E+03  0.18201279656E+03  0.00000000000E+00 0. -1.
         21    1    1    2  504  503 -0.16946721439E+00  0.41473631414E+02 -0.62081104252E+02  0.74660259355E+02  0.00000000000E+00 0. -1.
         21    1    1    2  505  501 -0.74546660374E+02  0.85056885620E+02  0.27010706681E+03  0.29283050713E+03  0.00000000000E+00 0. -1.
          2    1    1    2  501    0  0.45595998928E+02 -0.14568178926E+03 -0.43097280784E+03  0.45720863939E+03  0.00000000000E+00 0.  1.
<scales pt_clust_3="34.85331" pt_clust_4="41.87628" pt_clust_5="114.48071" pt_clust_6="14000.00000"></scales>
<clustering>
<clus scale="   34.853">  1  3  2 -1</clus>
<clus scale="   41.876">  2  4  1 -1</clus>
<clus scale="  114.481">  1  5  2 -1</clus>
<clus scale="   34.853">  1  3  2 -1</clus>
</clustering>
</event>
<event>
 6    0  0.1631680E+002  0.9052612E+02  0.7546771E-02  0.1301583E+00
         21   -1    0    0  504  502  0.00000000000E+00  0.00000000000E+00  0.45582021849E+02  0.45582021849E+02  0.00000000000E+00 0. -1.
          2   -1    0    0  505    0 -0.00000000000E+00 -0.00000000000E+00 -0.14900122949E+04  0.14900122949E+04  0.00000000000E+00 0. -1.
         21    1    1    2  503  502  0.72698521656E+02 -0.77483662209E+02 -0.27277389962E+03  0.29273604711E+03  0.00000000000E+00 0. -1.
         21    1    1    2  504  501 -0.54134162898E+02  0.68609339694E+02 -0.24233822876E+02  0.90691936010E+02  0.00000000000E+00 0. -1.
         21    1    1    2  505  503  0.42263905547E+02  0.22745261813E+01 -0.39540779645E+03  0.39766661498E+03  0.00000000000E+00 0. -1.
          2    1    1    2  501    0 -0.60828264304E+02  0.65997963331E+01 -0.75201475413E+03  0.75449971868E+03  0.00000000000E+00 0. -1.
<scales pt_clust_3="14000.00000" pt_clust_4="90.52612" pt_clust_5="42.32507" pt_clust_6="32.74873"></scales>
<clustering>
<clus scale="   42.325">  2  5  1 -1</clus>
<clus scale="   32.749">  2  6  1 -1</clus>
<clus scale="   90.526">  1  4  2 -1</clus>
<clus scale="   90.526">  1  3  2 -1</clus>
</clustering>
</event>
<event>
 6    0  0.1631680E+002  0.4236031E+03  0.7546771E-02  0.1035900E+00
          2   -1    0    0  503    0 -0.00000000000E+00  0.00000000000E+00  0.11553951647E+04  0.11553951647E+04  0.00000000000E+00 0.  1.
         21   -1    0    0  501  502  0.00000000000E+00 -0.00000000000E+00 -0.60968774613E+03  0.60968774613E+03  0.00000000000E+00 0. -1.
         21    1    1    2  503  505  0.37960654438E+02  0.33527007881E+01  0.12560260227E+02  0.40124955139E+02  0.00000000000E+00 0. -1.
         21    1    1    2  504  502 -0.56906066464E+02 -0.17181646617E+02 -0.14992291766E+03  0.16127737169E+03  0.00000000000E+00 0. -1.
         21    1    1    2  505  504  0.25650458609E+03 -0.35267744750E+03 -0.27166320848E+03  0.51378680744E+03  0.00000000000E+00 0. -1.
          2    1    1    2  501    0 -0.23755917406E+03  0.36650639333E+03  0.95473328445E+03  0.10498937765E+04  0.00000000000E+00 0.  1.
<scales pt_clust_3="38.10842" pt_clust_4="59.25574" pt_clust_5="423.60310" pt_clust_6="14000.00000"></scales>
<clustering>
<clus scale="   38.108">  1  3  2 -1</clus>
<clus scale="   59.256">  2  4  1 -1</clus>
<clus scale="  423.603">  2  5  1 -1</clus>
<clus scale="   59.256">  2  3  1 -1</clus>
</clustering>
</event>
<event>
 6    0  0.1631680E+002  0.7552833E+02  0.7546771E-02  0.1342243E+00
         -3   -1    0    0    0  501 -0.00000000000E+00  0.00000000000E+00  0.59923949611E+03  0.59923949611E+03  0.00000000000E+00 0.  1.
         21   -1    0    0  505  502  0.00000000000E+00 -0.00000000000E+00 -0.25992450786E+04  0.25992450786E+04  0.00000000000E+00 0.  1.
         21    1    1    2  503  502 -0.31472771378E+02 -0.94803650932E+02 -0.21050526165E+04  0.21074213593E+04  0.00000000000E+00 0.  1.
         21    1    1    2  504  503  0.91500614299E+02  0.63062237477E+02 -0.43861664914E+02  0.11946988684E+03  0.00000000000E+00 0.  1.
         21    1    1    2  505  501  0.14915056320E+02  0.33631073656E+02 -0.40800312597E+03  0.40965846607E+03  0.00000000000E+00 0.  1.
         -3    1    1    2    0  504 -0.74942899240E+02 -0.18896602003E+01  0.55691182489E+03  0.56193486247E+03  0.00000000000E+00 0.  1.
<scales pt_clust_3="64.77149" pt_clust_4="75.52833" pt_clust_5="36.79005" pt_clust_6="14000.00000"></scales>
<clustering>
<clus scale="   36.790">  2  5  1 -1</clus>
<clus scale="   64.771">  2  3  1 -1</clus>
<clus scale="   75.528">  2  4  1 -1</clus>
<clus scale="   36.790">  2  3  1 -1</clus>
</clustering>
</event>
<event>
 6    0  0.1631680E+002  0.1355132E+03  0.7546771E-02  0.1219497E+00
         -3   -1    0    0    0  501 -0.00000000000E+00  0.00000000000E+00  0.22472795323E+04  0.22472795323E+04  0.00000000000E+00 0. -1.
         21   -1    0    0  501  502  0.00000000000E+00 -0.00000000000E+00 -0.17996614710E+03  0.17996614710E+03  0.00000000000E+00 0.  1.
         21    1    1    2  503  505 -0.58144721179E+02 -0.42076854061E+01  0.11242690965E+04  0.11257795141E+04  0.00000000000E+00 0. -1.
         21    1    1    2  504  502  0.17834419624E+02  0.34465940617E+02 -0.13288346798E+03  0.13843404079E+03  0.00000000000E+00 0.  1.
         21    1    1    2  505  504  0.96738255021E+02  0.21793068692E+02  0.16140031602E+02  0.10046754923E+03  0.00000000000E+00 0. -1.
         -3    1    1    2    0  503 -0.56427953467E+02 -0.52051323903E+02  0.10597877251E+04  0.10625645752E+04  0.00000000000E+00 0. -1.
<scales pt_clust_3="43.36229" pt_clust_4="38.80680" pt_clust_5="126.13548" pt_clust_6="43.36229"></scales>
<clustering>
<clus scale="   38.807">  2  4  1 -1</clus>
<clus scale="   43.362">  3  6 -1 -1</clus>
<clus scale="  126.135">  2  5  1 -1</clus>
<clus scale="   38.807">  2  3  1 -1</clus>
</clustering>
</event>
<event>
 6    0  0.1631680E+002  0.1238122E+03  0.7546771E-02  0.1236937E+00
         21   -1    0    0  501  502  0.00000000000E+00  0.00000000000E+00  0.11899275821E+02  0.11899275821E+02  0.00000000000E+00 0. -1.
          1   -1    0    0  505    0 -0.00000000000E+00 -0.00000000000E+00 -0.21901315014E+04  0.21901315014E+04  0.00000000000E+00 0.  1.
         21    1    1    2  503  504 -0.41953155176E+02  0.14488118625E+02 -0.16027047393E+03  0.16630272885E+03  0.00000000000E+00 0. -1.
         21    1    1    2  504  502 -0.16017624537E+02  0.31653111721E+02 -0.60041959226E+02  0.69738946401E+02  0.00000000000E+00 0. -1.
         21    1    1    2  505  503 -0.37052379001E+02  0.35684653538E+02 -0.47529953138E+03  0.47807522192E+03  0.00000000000E+00 0.  1.
          1    1    1    2  501    0  0.95023158714E+02 -0.81825883883E+02 -0.14826202610E+04  0.14879138800E+04  0.00000000000E+00 0.  1.
<scales pt_clust_3="49.36209" pt_clust_4="35.47511" pt_clust_5="49.36209" pt_clust_6="113.20304"></scales>
<clustering>
<clus scale="   35.475">  1  4  2 -1</clus>
<clus scale="   49.362">  3  5 -1 -1</clus>
<clus scale="  113.203">  2  6  1 -1</clus>
<clus scale="   35.475">  1  3  2 -1</clus>
</clustering>
</event>
<event>
 6    0  0.1631680E+002  0.8836861E+02  0.7546771E-02  0.1306851E+00
         21   -1    0    0  503  502  0.00000000000E+00  0.00000000000E+00  0.11627482091E+04  0.11627482091E+04  0.00000000000E+00 0.  1.
          1   -1    0    0  504    0 -0.00000000000E+00 -0.00000000000E+00 -0.36524196999E+03  0.36524196999E+03  0.00000000000E+00 0. -1.
         21    1    1    2  503  501  0.64492309318E+02  0.59862255592E+02  0.11205255541E+04  0.11239752066E+04  0.00000000000E+00 0.  1.
         21    1    1    2  504  505  0.21569892373E+02  0.27863761855E+02 -0.87816292757E+02  0.94622147277E+02  0.00000000000E+00 0. -1.
         21    1    1    2  505  502 -0.48309057429E+02 -0.11361904009E+03 -0.78892666817E+02  0.14651656622E+03  0.00000000000E+00 0. -1.
          1    1    1    2  501    0 -0.37753144262E+02  0.25893022644E+02 -0.15631035544E+03  0.16287625898E+03  0.00000000000E+00 0. -1.
<scales pt_clust_3="88.36861" pt_clust_4="35.23705" pt_clust_5="14000.00000" pt_clust_6="49.07910"></scales>
<clustering>
<clus scale="   35.237">  2  4  1 -1</clus>
<clus scale="   49.079">  2  6  1 -1</clus>
<clus scale="   88.369">  1  3  2 -1</clus>
<clus scale="   88.369">  1  3  2 -1</clus>
</clustering>
</event>
<event>
 6    0  0.1631680E+002  0.1129658E+03  0.7546771E-02  0.1255174E+00
          2   -1    0    0  505    0 -0.00000000000E+00  0.00000000000E+00  0.14862952701E+04  0.14862952701E+04  0.00000000000E+00 0. -1.
         21   -1    0    0  504  502  0.00000000000E+00 -0.00000000000E+00 -0.21617529402E+04  0.21617529402E+04  0.00000000000E+00 0. -1.
         21    1    1    2  503  501 -0.97593272472E+02 -0.10870793071E+03 -0.30390526432E+03  0.33719470742E+03  0.00000000000E+00 0. -1.
         21    1    1    2  504  503 -0.32393723928E+01  0.57508393512E+02 -0.18378990998E+04  0.18388014602E+04  0.00000000000E+00 0. -1.
         21    1    1    2  505  502  0.33050269316E+02  0.71466944866E+01  0.17875426392E+03  0.18192438653E+03  0.00000000000E+00 0. -1.
          2    1    1    2  501    0  0.67782375549E+02  0.44052842708E+02  0.12875924301E+04  0.12901276562E+04  0.00000000000E+00 0. -1.
<scales pt_clust_3="112.96581" pt_clust_4="57.60138" pt_clust_5="33.81413" pt_clust_6="14000.00000"></scales>
<clustering>
<clus scale="   33.814">  1  5  2 -1</clus>
<clus scale="   57.601">  2  4  1 -1</clus>
<clus scale="  112.966">  2  3  1 -1</clus>
<clus scale="   57.601">  2  3  1 -1</clus>
</clustering>
</event>
<event>
 6    0  0.1631680E+002  0.1807605E+03  0.7546771E-02  0.1167069E+00
         21   -1    0    0  501  502  0.00000000000E+00  0.00000000000E+00  0.20715944325E+02  0.20715944325E+02  0.00000000000E+00 0.  1.
          1   -1    0    0  504    0 -0.00000000000E+00 -0.00000000000E+00 -0.36644359696E+04  0.36644359696E+04  0.00000000000E+00 0. -1.
         21    1    1    2  503  505  0.66538614191E+02 -0.67829036318E+02 -0.34819798287E+03  0.36092935682E+03  0.00000000000E+00 0.  1.
         21    1    1    2  504  503  0.73654391886E+02  0.21706753430E+02 -0.72659798650E+03  0.73064409022E+03  0.00000000000E+00 0.  1.
         21    1    1    2  505  502  0.24156738612E+02 -0.73532880704E+02 -0.17891538095E+03  0.19493933955E+03  0.00000000000E+00 0.  1.
          1    1    1    2  501    0 -0.16434974469E+03  0.11965516359E+03 -0.23900086749E+04  0.23986391273E+04  0.00000000000E+00 0. -1.
<scales pt_clust_3="48.87648" pt_clust_4="76.78641" pt_clust_5="48.87648" pt_clust_6="172.45780"></scales>
<clustering>
<clus scale="   48.876">  3  5 -1 -1</clus>
<clus scale="   76.786">  2  4  1 -1</clus>
<clus scale="  172.458">  2  6  1 -1</clus>
<clus scale="  180.761">  1  3  2 -1</clus>
</clustering>
</event>
<event>
 6    0  0.1631680E+002  0.1162460E+03  0.7546771E-02  0.1249422E+00
         21   -1    0    0  505  502  0.00000000000E+00  0.00000000000E+00  0.12601598464E+03  0.12601598464E+03  0.00000000000E+00 0. -1.
          1   -1    0    0  503    0 -0.00000000000E+00 -0.00000000000E+00 -0.27380529641E+04  0.27380529641E+04  0.00000000000E+00 0.  1.
         21    1    1    2  503  504 -0.47933177969E+02  0.16048231596E+02 -0.50550648738E+03  0.50802750326E+03  0.00000000000E+00 0. -1.
         21    1    1    2  504  502  0.26788400292E+02 -0.29532817788E+02  0.10755102369E+03  0.11470409065E+03  0.00000000000E+00 0. -1.
         21    1    1    2  505  501 -0.26673187380E+02 -0.93883468614E+02 -0.18777301818E+03  0.21162294526E+03  0.00000000000E+00 0.  1.
          1    1    1    2  501    0  0.47817965056E+02  0.10736805481E+03 -0.20263084976E+04  0.20297144096E+04  0.00000000000E+00 0.  1.
<scales pt_clust_3="47.63248" pt_clust_4="39.87237" pt_clust_5="14000.00000" pt_clust_6="116.24601"></scales>
<clustering>
<clus scale="   39.872">  1  4  2 -1</clus>
<clus scale="   47.632">  2  3  1 -1</clus>
<clus scale="  116.246">  2  6  1 -1</clus>
<clus scale="   39.872">  1  3  2 -1</clus>
</clustering>
</event>
<event>
 6    0  0.1631680E+002  0.1352156E+03  0.7546771E-02  0.1219916E+00
         21   -1    0    0  501  502  0.00000000000E+00  0.00000000000E+00  0.68260503161E+02  0.68260503161E+02  0.00000000000E+00 0. -1.
          2   -1    0    0  505    0 -0.00000000000E+00 -0.00000000000E+00 -0.42284904279E+04  0.42284904279E+04  0.00000000000E+00 0.  1.
         21    1    1    2  503  504  0.19017840628E+02  0.52128622282E+02 -0.29974651362E+02  0.63067830528E+02  0.00000000000E+00 0. -1.
         21    1    1    2  504  502  0.43306127713E+02  0.50967519878E+02  0.26650318686E+02  0.71995473928E+02  0.00000000000E+00 0. -1.
         21    1    1    2  505  503 -0.35511389479E+02  0.34489233505E+02 -0.60684966067E+03  0.60886540111E+03  0.00000000000E+00 0. -1.
          2    1    1    2  501    0 -0.26812578861E+02 -0.13758537567E+03 -0.35500559314E+04  0.35528222255E+04  0.00000000000E+00 0.  1.
<scales pt_clust_3="55.66240" pt_clust_4="55.66240" pt_clust_5="49.50319" pt_clust_6="120.68678"></scales>
<clustering>
<clus scale="   49.503">  2  5  1 -1</clus>
<clus scale="   55.662">  3  4 -1 -1</clus>
<clus scale="  120.687">  2  6  1 -1</clus>
<clus scale="  135.216">  1  3  2 -1</clus>
</clustering>
</event>
<event>
 6    0  0.1631680E+002  0.1702767E+03  0.7546771E-02  0.1177560E+00
         21   -1    0    0  505  502  0.00000000000E+00  0.00000000000E+00  0.79404462048E+02  0.79404462048E+02  0.00000000000E+00 0. -1.
          2   -1    0    0  504    0 -0.00000000000E+00 -0.00000000000E+00 -0.48266638990E+04  0.48266638990E+04  0.00000000000E+00 0. -1.
         21    1    1    2  503  502  0.74261290296E+02  0.18769352355E+02 -0.85241566890E+02  0.11459996750E+03  0.00000000000E+00 0.  1.
         21    1    1    2  504  503  0.12481978783E+03 -0.13512992986E+03 -0.32752862684E+04  0.32804481732E+04  0.00000000000E+00 0. -1.
         21    1    1    2  505  501 -0.12826817073E+03 -0.17622094118E+02 -0.14314921853E+02  0.13026196226E+03  0.00000000000E+00 0. -1.
          2    1    1    2  501    0 -0.70812907390E+02  0.13398267162E+03 -0.13724166798E+04  0.13807582580E+04  0.00000000000E+00 0. -1.
<scales pt_clust_3="76.59653" pt_clust_4="14000.00000" pt_clust_5="61.75868" pt_clust_6="170.27674"></scales>
<clustering>
<clus scale="   76.597">  1  3  2 -1</clus>
<clus scale="   61.759">  1  5  2 -1</clus>
<clus scale="  170.277">  1  6  2 -1</clus>
<clus scale="   76.597">  1  3  2 -1</clus>
</clustering>
</event>
<event>
 6    0  0.1631680E+002  0.1235369E+03  0.7546771E-02  0.1237374E+00
         21   -1    0    0  503  502  0.00000000000E+00  0.00000000000E+00  0.80470578840E+03  0.80470578840E+03  0.00000000000E+00 0.  1.
          2   -1    0    0  505    0 -0.00000000000E+00 -0.00000000000E+00 -0.38447388202E+03  0.38447388202E+03  0.00000000000E+00 0. -1.
         21    1    1    2  503  501 -0.97446589830E+01 -0.33873511529E+02  0.58967837503E+03  0.59073086862E+03  0.00000000000E+00 0.  1.
         21    1    1    2  504  502  0.64888743901E+02  0.73382684576E+02  0.15601938269E+03  0.18422164709E+03  0.00000000000E+00 0. -1.
         21    1    1    2  505  504 -0.18966017122E+02  0.10322076233E+03 -0.10015511154E+03  0.14506992089E+03  0.00000000000E+00 0. -1.
          2    1    1    2  501    0 -0.36178067796E+02 -0.14272993537E+03 -0.22531073981E+03  0.26915723381E+03  0.00000000000E+00 0. -1.
<scales pt_clust_3="35.24731" pt_clust_4="73.69660" pt_clust_5="123.53686" pt_clust_6="14000.00000"></scales>
<clustering>
<clus scale="   35.247">  1  3  2 -1</clus>
<clus scale="   73.697">  1  4  2 -1</clus>
<clus scale="  123.537">  1  5  2 -1</clus>
<clus scale="   35.247">  1  3  2 -1</clus>
</clustering>
</event>
<event>
 6    0  0.1631680E+002  0.1584211E+03  0.7546771E-02  0.1190491E+00
         21   -1    0    0  505  502  0.00000000000E+00  0.00000000000E+00  0.45286309457E+03  0.45286309457E+03  0.00000000000E+00 0. -1.
          1   -1    0    0  503    0 -0.00000000000E+00 -0.00000000000E+00 -0.90889348396E+03  0.90889348396E+03  0.00000000000E+00 0.  1.
         21    1    1    2  503  504 -0.14542776317E+02  0.64810668843E+02 -0.44118098431E+03  0.44615308590E+03  0.00000000000E+00 0.  1.
         21    1    1    2  504  502  0.64504213328E+02  0.91034268355E+02  0.69289769463E+02  0.13133584318E+03  0.00000000000E+00 0. -1.
         21    1    1    2  505  501 -0.99000486741E+02 -0.17828049824E+03  0.31841471427E+03  0.37811765721E+03  0.00000000000E+00 0. -1.
          1    1    1    2  501    0  0.49039049731E+02  0.22435561043E+02 -0.40255388881E+03  0.40614999224E+03  0.00000000000E+00 0.  1.
<scales pt_clust_3="89.23949" pt_clust_4="158.42112" pt_clust_5="14000.00000" pt_clust_6="53.92757"></scales>
<clustering>
<clus scale="   53.928">  2  6  1 -1</clus>
<clus scale="   89.239">  2  3  1 -1</clus>
<clus scale="  158.421">  2  4  1 -1</clus>
<clus scale="  158.421">  1  3  2 -1</clus>
</clustering>
</event>
<event>
 6    0  0.1631680E+002  0.9391732E+02  0.7546771E-02  0.1293633E+00
          2   -1    0    0  503    0 -0.00000000000E+00  0.00000000000E+00  0.18587880664E+04  0.18587880664E+04  0.00000000000E+00 0.  1.
         21   -1    0    0  501  502  0.00000000000E+00 -0.00000000000E+00 -0.24763138137E+02  0.24763138137E+02  0.00000000000E+00 0.  1.
         21    1    1    2  503  504  0.38053675563E+02  0.60784477042E+02  0.51952324211E+03  0.52444945797E+03  0.00000000000E+00 0.  1.
         21    1    1    2  504  505 -0.36154719122E+02  0.31531567687E+02  0.82281267874E+02  0.95245002591E+02  0.00000000000E+00 0.  1.
         21    1    1    2  505  502  0.14891873493E+02  0.37816017651E+02  0.21370868969E+02  0.45918766617E+02  0.00000000000E+00 0.  1.
          2    1    1    2  501    0 -0.16790829934E+02 -0.13013206238E+03  0.12108495493E+04  0.12179379773E+04  0.00000000000E+00 0.  1.
<scales pt_clust_3="93.91732" pt_clust_4="58.52497" pt_clust_5="40.64258" pt_clust_6="14000.00000"></scales>
<clustering>
<clus scale="   40.643">  2  5  1 -1</clus>
<clus scale="   58.525">  2  4  1 -1</clus>
<clus scale="   93.917">  1  3  2 -1</clus>
<clus scale="   40.643">  2  3  1 -1</clus>
</clustering>
</event>
<event>
 6    0  0.1631680E+002  0.2093258E+03  0.7546771E-02  0.1142101E+00
         21   -1    0    0  504  502  0.00000000000E+00  0.00000000000E+00  0.17208261382E+04  0.17208261382E+04  0.00000000000E+00 0. -1.
          1   -1    0    0  505    0 -0.00000000000E+00 -0.00000000000E+00 -0.75182984695E+03  0.75182984695E+03  0.00000000000E+00 0. -1.
         21    1    1    2  503  502 -0.65490384734E+02 -0.11730682724E+03  0.87828358705E+03  0.88849982639E+03  0.00000000000E+00 0. -1.
         21    1    1    2  504  501 -0.56105479820E+02  0.28353108319E+03  0.78258267407E+03  0.83425016737E+03  0.00000000000E+00 0. -1.
         21    1    1    2  505  503 -0.34428055616E+02  0.24230818044E+02 -0.81009757070E+02  0.91296244704E+02  0.00000000000E+00 0. -1.
          1    1    1    2  501    0  0.15602392017E+03 -0.19045507399E+03 -0.61086021279E+03  0.65860974670E+03  0.00000000000E+00 0. -1.
<scales pt_clust_3="134.31667" pt_clust_4="209.32581" pt_clust_5="42.10016" pt_clust_6="14000.00000"></scales>
<clustering>
<clus scale="   42.100">  2  5  1 -1</clus>
<clus scale="  134.317">  1  3  2 -1</clus>
<clus scale="  209.326">  1  4  2 -1</clus>
<clus scale="  134.317">  1  3  2 -1</clus>
</clustering>
</event>
<event>
 6    0  0.1631680E+002  0.1394977E+03  0.7546771E-02  0.1214006E+00
         21   -1    0    0  504  502  0.00000000000E+00  0.00000000000E+00  0.32731064573E+02  0.32731064573E+02  0.00000000000E+00 0.  1.
         -1   -1    0    0    0  501 -0.00000000000E+00 -0.00000000000E+00 -0.21224348456E+04  0.21224348456E+04  0.00000000000E+00 0.  1.
         21    1    1    2  503  505 -0.39093368826E+02  0.74972426291E+02 -0.68790894484E+02  0.10900157501E+03  0.00000000000E+00 0.  1.
         21    1    1    2  504  503 -0.51061577246E+02  0.26967593930E+02 -0.79845777840E+02  0.98538743812E+02  0.00000000000E+00 0.  1.
         21    1    1    2  505  501  0.52360455735E+02 -0.27298882463E+02 -0.40504420685E+03  0.40932585530E+03  0.00000000000E+00 0.  1.
         -1    1    1    2    0  502  0.37794490337E+02 -0.74641137758E+02 -0.15360229019E+04  0.15382997361E+04  0.00000000000E+00 0.  1.
<scales pt_clust_3="40.99224" pt_clust_4="40.99224" pt_clust_5="59.04952" pt_clust_6="130.38085"></scales>
<clustering>
<clus scale="   40.992">  3  4 -1 -1</clus>
<clus scale="   59.050">  2  5  1 -1</clus>
<clus scale="  130.381">  2  6  1 -1</clus>
<clus scale="  139.498">  1  3  2 -1</clus>
</clustering>
</event>
<event>
 6    0  0.1631680E+002  0.1444035E+03  0.7546771E-02  0.1207524E+00
          2   -1    0    0  503    0 -0.00000000000E+00  0.00000000000E+00  0.22138355429E+04  0.22138355429E+04  0.00000000000E+00 0. -1.
         21   -1    0    0  505  502  0.00000000000E+00 -0.00000000000E+00 -0.17515439088E+02  0.17515439088E+02  0.00000000000E+00 0. -1.
         21    1    1    2  503  504 -0.93546200074E+02 -0.11033408744E+03  0.96347157376E+03  0.97426997072E+03  0.00000000000E+00 0. -1.
         21    1    1    2  504  502  0.34288392047E+01 -0.39713079233E+02  0.11555927692E+03  0.12224087730E+03  0.00000000000E+00 0.  1.
         21    1    1    2  505  501  0.33419780705E+02  0.13772928077E+02  0.89770210936E+02  0.96774304759E+02  0.00000000000E+00 0.  1.
          2    1    1    2  501    0  0.56697580165E+02  0.13627423860E+03  0.10275190422E+04  0.10380658292E+04  0.00000000000E+00 0. -1.
<scales pt_clust_3="14000.00000" pt_clust_4="38.17051" pt_clust_5="36.14658" pt_clust_6="144.40346"></scales>
<clustering>
<clus scale="   36.147">  2  5  1 -1</clus>
<clus scale="   38.171">  2  4  1 -1</clus>
<clus scale="  144.403">  1  6  2 -1</clus>
<clus scale="   36.147">  2  3  1 -1</clus>
</clustering>
</event>
<event>
 6    0  0.1631680E+002  0.6737457E+02  0.7546771E-02  0.1369256E+00
         21   -1    0    0  505  502  0.00000000000E+00  0.00000000000E+00  0.36961155338E+03  0.36961155338E+03  0.00000000000E+00 0. -1.
         -3   -1    0    0    0  501 -0.00000000000E+00 -0.00000000000E+00 -0.18627526509E+03  0.18627526509E+03  0.00000000000E+00 0. -1.
         21    1    1    2  503  502  0.34473281095E+02 -0.78808617925E+02  0.11233148158E+03  0.14148345176E+03  0.00000000000E+00 0. -1.
         21    1    1    2  504  501 -0.11393157957E+02  0.66404284374E+02 -0.16586275550E+02  0.69386148243E+02  0.00000000000E+00 0. -1.
         21    1    1    2  505  504  0.35724995982E+02  0.57843800419E+02  0.19945170659E+03  0.21072058240E+03  0.00000000000E+00 0. -1.
         -3    1    1    2    0  503 -0.58805119119E+02 -0.45439466867E+02 -0.11186062433E+03  0.13429663607E+03  0.00000000000E+00 0. -1.
<scales pt_clust_3="14000.00000" pt_clust_4="67.37457" pt_clust_5="65.70540" pt_clust_6="69.56507"></scales>
<clustering>
<clus scale="   67.375">  2  4  1 -1</clus>
<clus scale="   69.565">  2  6  1 -1</clus>
<clus scale="   65.705">  1  5  2 -1</clus>
<clus scale="   65.705">  1  3  2 -1</clus>
</clustering>
</event>
<event>
 6    0  0.2840707E+002  0.9698062E+02  0.7546771E-02  0.1286777E+00
         21   -1    0    0  504  502  0.00000000000E+00  0.00000000000E+00  0.96299093417E+03  0.96299093417E+03  0.00000000000E+00 0. -1.
         -2   -1    0    0    0  501 -0.00000000000E+00 -0.00000000000E+00 -0.11357818010E+04  0.11357818010E+04  0.00000000000E+00 0.  1.
         21    1    1    2  503  505  0.72270089479E+01 -0.90391746081E+02  0.11388233116E+02  0.91392501177E+02  0.00000000000E+00 0. -1.
         21    1    1    2  504  503 -0.57006339641E+02  0.79974854225E+02  0.90164500961E+03  0.90697818244E+03  0.00000000000E+00 0. -1.
         21    1    1    2  505  501 -0.28518669376E+02 -0.12734644887E+02 -0.37065633589E+02  0.48470061653E+02  0.00000000000E+00 0.  1.
         -2    1    1    2    0  502  0.78298000069E+02  0.23151536743E+02 -0.10487584759E+04  0.10519319899E+04  0.00000000000E+00 0.  1.
<scales pt_clust_3="96.98062" pt_clust_4="14000.00000" pt_clust_5="31.23277" pt_clust_6="52.04975"></scales>
<clustering>
<clus scale="   31.233">  2  5  1 -1</clus>
<clus scale="   52.050">  2  6  1 -1</clus>
<clus scale="   96.981">  2  3  1 -1</clus>
<clus scale="   96.981">  1  3  2 -1</clus>
</clustering>
</event>
<event>
 6    0  0.1631680E+002  0.7938421E+02  0.7546771E-02  0.1330808E+00
         21   -1    0    0  504  502  0.00000000000E+00  0.00000000000E+00  0.27398745571E+03  0.27398745571E+03  0.00000000000E+00 0.  1.
          2   -1    0    0  503    0 -0.00000000000E+00 -0.00000000000E+00 -0.67798190775E+03  0.67798190775E+03  0.00000000000E+00 0. -1.
         21    1    1    2  503  505  0.59810958595E+02 -0.52832420529E+02 -0.49855380323E+03  0.50490049528E+03  0.00000000000E+00 0. -1.
         21    1    1    2  504  501 -0.35227626266E+02  0.28081662488E+02  0.16740308218E+03  0.17335904172E+03  0.00000000000E+00 0.  1.
         21    1    1    2  505  502  0.89042238758E+01 -0.52345331738E+02  0.81902836321E+02  0.97608368263E+02  0.00000000000E+00 0.  1.
          2    1    1    2  501    0 -0.33487556205E+02  0.77096089779E+02 -0.15474656732E+03  0.17610145819E+03  0.00000000000E+00 0. -1.
<scales pt_clust_3="79.38421" pt_clust_4="45.05070" pt_clust_5="35.38588" pt_clust_6="14000.00000"></scales>
<clustering>
<clus scale="   45.051">  1  4  2 -1</clus>
<clus scale="   35.386">  1  5  2 -1</clus>
<clus scale="   79.384">  2  3  1 -1</clus>
<clus scale="   45.051">  1  3  2 -1</clus>
</clustering>
</event>
<event>
 6    0  0.2310103E+002  0.1399205E+03  0.7546771E-02  0.1213436E+00
         21   -1    0    0  503  502  0.00000000000E+00  0.00000000000E+00  0.12467522255E+04  0.12467522255E+04  0.00000000000E+00 0. -1.
          1   -1    0    0  505    0 -0.00000000000E+00 -0.00000000000E+00 -0.15591347383E+04  0.15591347383E+04  0.00000000000E+00 0.  1.
         21    1    1    2  503  501 -0.40770147859E+02  0.15162426459E+02 -0.42686859514E+01  0.43707274135E+02  0.00000000000E+00 0. -1.
         21    1    1    2  504  502  0.17611457843E+03 -0.49689567898E+02  0.11925651241E+04  0.12065226783E+04  0.00000000000E+00 0. -1.
         21    1    1    2  505  504 -0.66972772457E+02 -0.11765885711E+03 -0.18394843835E+03  0.22839874535E+03  0.00000000000E+00 0. -1.
          1    1    1    2  501    0 -0.68371658115E+02  0.15218599855E+03 -0.13167305127E+04  0.13272582661E+04  0.00000000000E+00 0.  1.
<scales pt_clust_3="43.49832" pt_clust_4="139.92051" pt_clust_5="135.51335" pt_clust_6="14000.00000"></scales>
<clustering>
<clus scale="   43.498">  1  3  2 -1</clus>
<clus scale="  135.513">  2  5  1 -1</clus>
<clus scale="  139.921">  1  4  2 -1</clus>
<clus scale="   43.498">  1  3  2 -1</clus>
</clustering>
</event>
<event>
 6    0  0.1631680E+002  0.8835884E+02  0.7546771E-02  0.1306875E+00
          1   -1    0    0  503    0 -0.00000000000E+00  0.00000000000E+00  0.56255055399E+03  0.56255055399E+03  0.00000000000E+00 0. -1.
         21   -1    0    0  504  502  0.00000000000E+00 -0.00000000000E+00 -0.10288182218E+03  0.10288182218E+03  0.00000000000E+00 0. -1.
         21    1    1    2  503  502 -0.43918949013E+02  0.10644190700E+02  0.27213138348E+03  0.27585804820E+03  0.00000000000E+00 0.  1.
         21    1    1    2  504  505 -0.52423109609E+02 -0.52097231355E-01 -0.51464248966E+02  0.73462603118E+02  0.00000000000E+00 0. -1.
         21    1    1    2  505  501  0.14305288751E+03 -0.36551202181E+02  0.13928813732E+03  0.20298104395E+03  0.00000000000E+00 0. -1.
          1    1    1    2  501    0 -0.46710828891E+02  0.25959108712E+02  0.99713459981E+02  0.11313068091E+03  0.00000000000E+00 0. -1.
<scales pt_clust_3="45.19041" pt_clust_4="54.09837" pt_clust_5="14000.00000" pt_clust_6="88.35884"></scales>
<clustering>
<clus scale="   45.190">  1  3  2 -1</clus>
<clus scale="   54.098">  2  4  1 -1</clus>
<clus scale="   88.359">  1  6  2 -1</clus>
<clus scale="   54.098">  2  3  1 -1</clus>
</clustering>
</event>
<event>
 6    0  0.1631680E+002  0.1194419E+03  0.7546771E-02  0.1244021E+00
          1   -1    0    0  504    0 -0.00000000000E+00  0.00000000000E+00  0.24423304939E+04  0.24423304939E+04  0.00000000000E+00 0. -1.
         21   -1    0    0  505  502  0.00000000000E+00 -0.00000000000E+00 -0.21866946615E+03  0.21866946615E+03  0.00000000000E+00 0. -1.
         21    1    1    2  503  502 -0.46665773225E+02 -0.69280647282E+02 -0.17807686117E+03  0.19669486765E+03  0.00000000000E+00 0. -1.
         21    1    1    2  504  503  0.11704173912E+02 -0.68239200563E+02  0.17433985630E+03  0.18758454540E+03  0.00000000000E+00 0. -1.
         21    1    1    2  505  501 -0.30769723786E+02 -0.23141696562E+02 -0.38841064212E+01  0.38696256981E+02  0.00000000000E+00 0. -1.
          1    1    1    2  501    0  0.65731323099E+02  0.16066154441E+03  0.22312821390E+04  0.22380242900E+04  0.00000000000E+00 0. -1.
<scales pt_clust_3="14000.00000" pt_clust_4="69.83585" pt_clust_5="38.50083" pt_clust_6="119.44191"></scales>
<clustering>
<clus scale="   38.501">  2  5  1 -1</clus>
<clus scale="   69.836">  1  4  2 -1</clus>
<clus scale="  119.442">  1  6  2 -1</clus>
<clus scale="   38.501">  2  3  1 -1</clus>
</clustering>
</event>
<event>
 6    0  0.1631680E+002  0.1092506E+03  0.7546771E-02  0.1261964E+00
          2   -1    0    0  505    0 -0.00000000000E+00  0.00000000000E+00  0.21962706531E+04  0.21962706531E+04  0.00000000000E+00 0. -1.
         21   -1    0    0  503  502  0.00000000000E+00 -0.00000000000E+00 -0.89047091220E+02  0.89047091220E+02  0.00000000000E+00 0. -1.
         21    1    1    2  503  501 -0.93787574007E+01  0.39335739946E+02 -0.40200398734E+01  0.40637694916E+02  0.00000000000E+00 0.  1.
         21    1    1    2  504  502  0.63457742334E+02 -0.13044937621E+03  0.20120582030E+02  0.14645396081E+03  0.00000000000E+00 0. -1.
         21    1    1    2  505  504  0.26054095382E+02 -0.15485530938E+02  0.71874958939E+03  0.71938834422E+03  0.00000000000E+00 0. -1.
          2    1    1    2  501    0 -0.80133080315E+02  0.10659916721E+03  0.13723734303E+04  0.13788377444E+04  0.00000000000E+00 0. -1.
<scales pt_clust_3="40.17768" pt_clust_4="109.25056" pt_clust_5="30.30870" pt_clust_6="14000.00000"></scales>
<clustering>
<clus scale="   30.309">  1  5  2 -1</clus>
<clus scale="   40.178">  2  3  1 -1</clus>
<clus scale="  109.251">  2  4  1 -1</clus>
<clus scale="   40.178">  2  3  1 -1</clus>
</clustering>
</event>
<event>
 6    0  0.1631680E+002  0.8842119E+02  0.7546771E-02  0.1306721E+00
         21   -1    0    0  504  502  0.00000000000E+00  0.00000000000E+00  0.25737834434E+03  0.25737834434E+03  0.00000000000E+00 0.  1.
          1   -1    0    0  505    0 -0.00000000000E+00 -0.00000000000E+00 -0.33683677282E+04  0.33683677282E+04  0.00000000000E+00 0.  1.
         21    1    1    2  503  502  0.27661690045E+02 -0.31197119461E+02  0.23023366653E+03  0.23397856860E+03  0.00000000000E+00 0.  1.
         21    1    1    2  504  501  0.87642393655E+01  0.11276785714E+03 -0.10852809982E+03  0.15675378766E+03  0.00000000000E+00 0.  1.
         21    1    1    2  505  503  0.21532171208E+02 -0.49190370717E+02 -0.11366890196E+04  0.11379566135E+04  0.00000000000E+00 0.  1.
          1    1    1    2  501    0 -0.57958100618E+02 -0.32380366959E+02 -0.20960059310E+04  0.20970571028E+04  0.00000000000E+00 0.  1.
<scales pt_clust_3="41.69448" pt_clust_4="14000.00000" pt_clust_5="54.69247" pt_clust_6="88.42119"></scales>
<clustering>
<clus scale="   41.694">  1  3  2 -1</clus>
<clus scale="   54.692">  2  5  1 -1</clus>
<clus scale="   88.421">  2  6  1 -1</clus>
<clus scale="   41.694">  1  3  2 -1</clus>
</clustering>
</event>
<event>
 6    0  0.1631680E+002  0.6705077E+02  0.7546771E-02  0.1370419E+00
         21   -1    0    0  504  502  0.00000000000E+00  0.00000000000E+00  0.88021582453E+03  0.88021582453E+03  0.00000000000E+00 0. -1.
          2   -1    0    0  503    0 -0.00000000000E+00 -0.00000000000E+00 -0.35055342239E+04  0.35055342239E+04  0.00000000000E+00 0.  1.
         21    1    1    2  503  505  0.51833892638E+02  0.39572537856E+02 -0.57243329926E+03  0.57613593906E+03  0.00000000000E+00 0. -1.
         21    1    1    2  504  501  0.47288808904E+02 -0.38290615692E+02  0.60225737294E+03  0.60532334000E+03  0.00000000000E+00 0. -1.
         21    1    1    2  505  502  0.19782322135E+02  0.37345478351E+02  0.27160549627E+03  0.27487373579E+03  0.00000000000E+00 0. -1.
          2    1    1    2  501    0 -0.11890502368E+03 -0.38627400516E+02 -0.29267479693E+04  0.29294170336E+04  0.00000000000E+00 0.  1.
<scales pt_clust_3="65.33012" pt_clust_4="14000.00000" pt_clust_5="42.26139" pt_clust_6="67.05077"></scales>
<clustering>
<clus scale="   42.261">  1  5  2 -1</clus>
<clus scale="   65.330">  2  3  1 -1</clus>
<clus scale="   67.051">  2  6  1 -1</clus>
<clus scale="   42.261">  1  3  2 -1</clus>
</clustering>
</event>
<event>
 6    0  0.1631680E+002  0.1849145E+03  0.7546771E-02  0.1163130E+00
         21   -1    0    0  504  502  0.00000000000E+00  0.00000000000E+00  0.11264862689E+03  0.11264862689E+03  0.00000000000E+00 0. -1.
          1   -1    0    0  503    0 -0.00000000000E+00 -0.00000000000E+00 -0.13037072891E+04  0.13037072891E+04  0.00000000000E+00 0. -1.
         21    1    1    2  503  505 -0.46669985842E+02  0.27675587921E+02 -0.12042758650E+03  0.13208644645E+03  0.00000000000E+00 0.  1.
         21    1    1    2  504  501  0.32869576926E+02 -0.27200858206E+02 -0.45557000697E+02  0.62415832021E+02  0.00000000000E+00 0. -1.
         21    1    1    2  505  502  0.15176275819E+03 -0.36533549741E+02  0.28495607953E+02  0.15867777004E+03  0.00000000000E+00 0. -1.
          1    1    1    2  501    0 -0.13796234928E+03  0.36058820025E+02 -0.10535696830E+04  0.10631758675E+04  0.00000000000E+00 0. -1.
<scales pt_clust_3="51.90277" pt_clust_4="42.66492" pt_clust_5="184.91445" pt_clust_6="14000.00000"></scales>
<clustering>
<clus scale="   42.665">  1  4  2 -1</clus>
<clus scale="   51.903">  2  3  1 -1</clus>
<clus scale="  184.914">  1  5  2 -1</clus>
<clus scale="   42.665">  1  3  2 -1</clus>
</clustering>
</event>
<event>
 6    0  0.1631680E+002  0.1307920E+03  0.7546771E-02  0.1226285E+00
         21   -1    0    0  505  502  0.00000000000E+00  0.00000000000E+00  0.15566033935E+03  0.15566033935E+03  0.00000000000E+00 0. -1.
          2   -1    0    0  503    0 -0.00000000000E+00 -0.00000000000E+00 -0.99196996377E+03  0.99196996377E+03  0.00000000000E+00 0. -1.
         21    1    1    2  503  502  0.14057626346E+02  0.34091502418E+02 -0.21373761067E+03  0.21689539785E+03  0.00000000000E+00 0. -1.
         21    1    1    2  504  501  0.92245579231E+02 -0.36263372273E+02 -0.13763802826E+03  0.16961281166E+03  0.00000000000E+00 0. -1.
         21    1    1    2  505  504 -0.13960511713E+03 -0.16645006451E+02  0.10152408595E+03  0.17341794889E+03  0.00000000000E+00 0. -1.
          2    1    1    2  501    0  0.33301911551E+02  0.18816876305E+02 -0.58645807145E+03  0.58770414471E+03  0.00000000000E+00 0. -1.
<scales pt_clust_3="36.87611" pt_clust_4="130.79201" pt_clust_5="14000.00000" pt_clust_6="62.59147"></scales>
<clustering>
<clus scale="   36.876">  2  3  1 -1</clus>
<clus scale="   62.591">  2  6  1 -1</clus>
<clus scale="  130.792">  2  4  1 -1</clus>
<clus scale="  130.792">  1  3  2 -1</clus>
</clustering>
</event>
<event>
 6    0  0.1631680E+002  0.6642665E+02  0.7546771E-02  0.1372684E+00
          4   -1    0    0  504    0 -0.00000000000E+00  0.00000000000E+00  0.29296600451E+03  0.29296600451E+03  0.00000000000E+00 0. -1.
         21   -1    0    0  505  502  0.00000000000E+00 -0.00000000000E+00 -0.16685587207E+03  0.16685587207E+03  0.00000000000E+00 0. -1.
         21    1    1    2  503  502  0.53825076542E+02 -0.59272031698E+02 -0.35611655408E+02  0.87627065495E+02  0.00000000000E+00 0. -1.
         21    1    1    2  504  503  0.54179977336E+02  0.42338739723E+02  0.19617633697E+03  0.20787783435E+03  0.00000000000E+00 0. -1.
         21    1    1    2  505  501 -0.36638722224E+02  0.14049484367E+02 -0.73204240182E+02  0.83058080629E+02  0.00000000000E+00 0. -1.
          4    1    1    2  501    0 -0.71366331654E+02  0.28838076073E+01  0.38749691058E+02  0.81258896111E+02  0.00000000000E+00 0. -1.
<scales pt_clust_3="57.07097" pt_clust_4="66.42665" pt_clust_5="39.24008" pt_clust_6="14000.00000"></scales>
<clustering>
<clus scale="   39.240">  2  5  1 -1</clus>
<clus scale="   57.071">  2  3  1 -1</clus>
<clus scale="   66.427">  1  4  2 -1</clus>
<clus scale="   39.240">  2  3  1 -1</clus>
</clustering>
</event>
<event>
 6    0  0.4094666E+002  0.1123698E+03  0.7546771E-02  0.1256243E+00
         21   -1    0    0  505  502  0.00000000000E+00  0.00000000000E+00  0.50023163360E+03  0.50023163360E+03  0.00000000000E+00 0. -1.
          2   -1    0    0  503    0 -0.00000000000E+00 -0.00000000000E+00 -0.15127766512E+04  0.15127766512E+04  0.00000000000E+00 0.  1.
         21    1    1    2  503  504 -0.54338765017E+00  0.42807642830E+02 -0.41713827021E+02  0.59773178931E+02  0.00000000000E+00 0. -1.
         21    1    1    2  504  502 -0.79403247357E+02  0.11382605706E+03  0.45848107994E+03  0.47902624941E+03  0.00000000000E+00 0. -1.
         21    1    1    2  505  501  0.28780217922E+02 -0.14914509429E+02  0.43011702356E+01  0.32699290520E+02  0.00000000000E+00 0.  1.
          2    1    1    2  501    0  0.51166417086E+02 -0.14171919047E+03 -0.14336134408E+04  0.14415095660E+04  0.00000000000E+00 0.  1.
<scales pt_clust_3="42.52808" pt_clust_4="112.36976" pt_clust_5="32.41517" pt_clust_6="14000.00000"></scales>
<clustering>
<clus scale="   32.415">  1  5  2 -1</clus>
<clus scale="   42.528">  2  3  1 -1</clus>
<clus scale="  112.370">  1  4  2 -1</clus>
<clus scale="   32.415">  1  3  2 -1</clus>
</clustering>
</event>
<event>
 6    0  0.1631680E+002  0.1037860E+03  0.7546771E-02  0.1272530E+00
         21   -1    0    0  505  502  0.00000000000E+00  0.00000000000E+00  0.84716717321E+03  0.84716717321E+03  0.00000000000E+00 0. -1.
         -1   -1    0    0    0  501 -0.00000000000E+00 -0.00000000000E+00 -0.16061411504E+03  0.16061411504E+03  0.00000000000E+00 0.  1.
         21    1    1    2  503  502  0.10708629411E+03 -0.33015442647E+02  0.63646059541E+03  0.64625040298E+03  0.00000000000E+00 0. -1.
         21    1    1    2  504  501  0.68137859103E+01  0.39604315453E+02 -0.39918571326E+02  0.56642932636E+02  0.00000000000E+00 0. -1.
         21    1    1    2  505  504 -0.32546754142E+02  0.10357033552E+03  0.12296868423E+03  0.16403476128E+03  0.00000000000E+00 0. -1.
         -1    1    1    2    0  503 -0.81353325878E+02 -0.11015920833E+03 -0.32957650153E+02  0.14085319135E+03  0.00000000000E+00 0.  1.
<scales pt_clust_3="14000.00000" pt_clust_4="40.18619" pt_clust_5="103.78598" pt_clust_6="110.05387"></scales>
<clustering>
<clus scale="   40.186">  2  4  1 -1</clus>
<clus scale="  110.054">  2  6  1 -1</clus>
<clus scale="  103.786">  2  5  1 -1</clus>
<clus scale="  103.786">  1  3  2 -1</clus>
</clustering>
</event>
<event>
 6    0  0.1631680E+002  0.1164302E+03  0.7546771E-02  0.1249105E+00
         21   -1    0    0  504  502  0.00000000000E+00  0.00000000000E+00  0.13173880874E+03  0.13173880874E+03  0.00000000000E+00 0.  1.
          2   -1    0    0  503    0 -0.00000000000E+00 -0.00000000000E+00 -0.98643035626E+03  0.98643035626E+03  0.00000000000E+00 0. -1.
         21    1    1    2  503  505  0.81981694892E+01 -0.48518493545E+02 -0.10584003534E+03  0.11671918128E+03  0.00000000000E+00 0.  1.
         21    1    1    2  504  501  0.74840585594E+02 -0.21651915928E+02  0.89865683452E+02  0.11893594822E+03  0.00000000000E+00 0.  1.
         21    1    1    2  505  502  0.43705426754E+02  0.75521117119E+01 -0.15101036159E+02  0.46853388481E+02  0.00000000000E+00 0.  1.
          2    1    1    2  501    0 -0.12674418184E+03  0.62618297761E+02 -0.82361615947E+03  0.83566064703E+03  0.00000000000E+00 0. -1.
<scales pt_clust_3="49.24255" pt_clust_4="14000.00000" pt_clust_5="44.35311" pt_clust_6="116.43017"></scales>
<clustering>
<clus scale="   44.353">  1  5  2 -1</clus>
<clus scale="   49.243">  2  3  1 -1</clus>
<clus scale="  116.430">  2  6  1 -1</clus>
<clus scale="   44.353">  1  3  2 -1</clus>
</clustering>
</event>
<event>
 6    0  0.1631680E+002  0.9010125E+02  0.7546771E-02  0.1302607E+00
          3   -1    0    0  503    0 -0.00000000000E+00  0.00000000000E+00  0.36894357619E+03  0.36894357619E+03  0.00000000000E+00 0.  1.
         21   -1    0    0  504  502  0.00000000000E+00 -0.00000000000E+00 -0.51473015546E+03  0.51473015546E+03  0.00000000000E+00 0.  1.
         21    1    1    2  503  505 -0.53187659363E+02 -0.40540297222E+02  0.46857297148E+02  0.81658123316E+02  0.00000000000E+00 0. -1.
         21    1    1    2  504  501 -0.37396021795E+02 -0.28486325044E+02 -0.53127459610E+02  0.70939834545E+02  0.00000000000E+00 0.  1.
         21    1    1    2  505  502  0.49980392732E+02 -0.29913217573E+02 -0.42356992913E+03  0.42755622450E+03  0.00000000000E+00 0.  1.
          3    1    1    2  501    0  0.40603288427E+02  0.98939839838E+02  0.28405351232E+03  0.30351954929E+03  0.00000000000E+00 0.  1.
<scales pt_clust_3="14000.00000" pt_clust_4="47.00993" pt_clust_5="58.59867" pt_clust_6="90.10125"></scales>
<clustering>
<clus scale="   47.010">  2  4  1 -1</clus>
<clus scale="   58.599">  2  5  1 -1</clus>
<clus scale="   90.101">  1  6  2 -1</clus>
<clus scale="   47.010">  2  3  1 -1</clus>
</clustering>
</event>
<event>
 6    0  0.1631680E+002  0.8313889E+02  0.7546771E-02  0.1320373E+00
          1   -1    0    0  504    0 -0.00000000000E+00  0.00000000000E+00  0.46462192105E+03  0.46462192105E+03  0.00000000000E+00 0.  1.
         21   -1    0    0  501  502  0.00000000000E+00 -0.00000000000E+00 -0.37386248476E+03  0.37386248476E+03  0.00000000000E+00 0.  1.
         21    1    1    2  503  505  0.69371089652E+02  0.31196641161E+02  0.32980847774E+03  0.33846596652E+03  0.00000000000E+00 0.  1.
         21    1    1    2  504  503  0.14510810667E+02 -0.30858981461E+02  0.10682057888E+03  0.11213151401E+03  0.00000000000E+00 0.  1.
         21    1    1    2  505  502 -0.85282527191E+02 -0.47305526438E+02 -0.31939707409E+03  0.33395420825E+03  0.00000000000E+00 0.  1.
          1    1    1    2  501    0  0.14006268720E+01  0.46967866738E+02 -0.26472546246E+02  0.53932717031E+02  0.00000000000E+00 0.  1.
<scales pt_clust_3="83.13889" pt_clust_4="34.10045" pt_clust_5="14000.00000" pt_clust_6="45.81686"></scales>
<clustering>
<clus scale="   34.100">  1  4  2 -1</clus>
<clus scale="   45.817">  2  6  1 -1</clus>
<clus scale="   83.139">  1  3  2 -1</clus>
<clus scale="   45.817">  2  3  1 -1</clus>
</clustering>
</event>
<event>
 6    0  0.1631680E+002  0.2505956E+03  0.7546771E-02  0.1112929E+00
         21   -1    0    0  505  502  0.00000000000E+00  0.00000000000E+00  0.73509162158E+02  0.73509162158E+02  0.00000000000E+00 0.  1.
          2   -1    0    0  504    0 -0.00000000000E+00 -0.00000000000E+00 -0.14236445117E+04  0.14236445117E+04  0.00000000000E+00 0.  1.
         21    1    1    2  503  502 -0.22857707920E+03  0.10098632450E+03 -0.41657344195E+03  0.48577685351E+03  0.00000000000E+00 0.  1.
         21    1    1    2  504  503 -0.38731214912E+02 -0.32682190367E+00 -0.32898002871E+03  0.33125228016E+03  0.00000000000E+00 0.  1.
         21    1    1    2  505  501  0.23759511787E+03 -0.82984499424E+02 -0.39960221571E+03  0.47224971993E+03  0.00000000000E+00 0.  1.
          2    1    1    2  501    0  0.29713176236E+02 -0.17675003168E+02 -0.20497966316E+03  0.20787482023E+03  0.00000000000E+00 0.  1.
<scales pt_clust_3="250.59558" pt_clust_4="31.09728" pt_clust_5="14000.00000" pt_clust_6="34.57280"></scales>
<clustering>
<clus scale="   34.573">  2  6  1 -1</clus>
<clus scale="   31.097">  2  4  1 -1</clus>
<clus scale="  250.596">  2  3  1 -1</clus>
<clus scale="  250.596">  1  3  2 -1</clus>
</clustering>
</event>
<event>
 6    0  0.1631680E+002  0.1069838E+03  0.7546771E-02  0.1266260E+00
         21   -1    0    0  505  502  0.00000000000E+00  0.00000000000E+00  0.11595596814E+03  0.11595596814E+03  0.00000000000E+00 0.  1.
          2   -1    0    0  503    0 -0.00000000000E+00 -0.00000000000E+00 -0.88600292396E+03  0.88600292396E+03  0.00000000000E+00 0.  1.
         21    1    1    2  503  504  0.33215177951E+02 -0.44518908339E+02 -0.20659814931E+03  0.21393451461E+03  0.00000000000E+00 0.  1.
         21    1    1    2  504  502 -0.74812848861E+02 -0.66421728950E+02  0.48375700885E+02  0.11112613044E+03  0.00000000000E+00 0.  1.
         21    1    1    2  505  501  0.76188005294E+02  0.13990421922E+03 -0.17075513845E+03  0.23352755729E+03  0.00000000000E+00 0.  1.
          2    1    1    2  501    0 -0.34590334383E+02 -0.28963581927E+02 -0.44106936894E+03  0.44337068975E+03  0.00000000000E+00 0.  1.
<scales pt_clust_3="60.62382" pt_clust_4="106.98383" pt_clust_5="14000.00000" pt_clust_6="45.11519"></scales>
<clustering>
<clus scale="   45.115">  2  6  1 -1</clus>
<clus scale="   60.624">  2  3  1 -1</clus>
<clus scale="  106.984">  1  4  2 -1</clus>
<clus scale="  106.984">  1  3  2 -1</clus>
</clustering>
</event>
<event>
 6    0  0.1631680E+002  0.1251707E+03  0.7546771E-02  0.1234803E+00
         21   -1    0    0  504  502  0.00000000000E+00  0.00000000000E+00  0.46042149709E+03  0.46042149709E+03  0.00000000000E+00 0. -1.
          2   -1    0    0  503    0 -0.00000000000E+00 -0.00000000000E+00 -0.20024809544E+03  0.20024809544E+03  0.00000000000E+00 0.  1.
         21    1    1    2  503  505  0.40372575174E+02 -0.82303425277E+01 -0.64270757096E+02  0.76344047456E+02  0.00000000000E+00 0. -1.
         21    1    1    2  504  501  0.60006549396E+02 -0.11383555838E+03  0.38160942724E+03  0.40272208194E+03  0.00000000000E+00 0. -1.
         21    1    1    2  505  502 -0.69338082713E+02  0.69288524927E+02 -0.68164101540E+02  0.11939436394E+03  0.00000000000E+00 0.  1.
          2    1    1    2  501    0 -0.31041041857E+02  0.52777375976E+02  0.10998833035E+02  0.62209099195E+02  0.00000000000E+00 0.  1.
<scales pt_clust_3="41.20295" pt_clust_4="125.17065" pt_clust_5="14000.00000" pt_clust_6="56.12338"></scales>
<clustering>
<clus scale="   41.203">  2  3  1 -1</clus>
<clus scale="   56.123">  2  6  1 -1</clus>
<clus scale="  125.171">  1  4  2 -1</clus>
<clus scale="  125.171">  1  3  2 -1</clus>
</clustering>
</event>
<event>
 6    0  0.1631680E+002  0.1188524E+03  0.7546771E-02  0.1245002E+00
         21   -1    0    0  504  502  0.00000000000E+00  0.00000000000E+00  0.12657525315E+03  0.12657525315E+03  0.00000000000E+00 0. -1.
         -2   -1    0    0    0  501 -0.00000000000E+00 -0.00000000000E+00 -0.87245720318E+03  0.87245720318E+03  0.00000000000E+00 0. -1.
         21    1    1    2  503  502  0.64603787992E+02  0.80739701094E+02 -0.86439099323E+02  0.13477487395E+03  0.00000000000E+00 0. -1.
         21    1    1    2  504  505 -0.73992393713E+02 -0.99977998281E+02  0.58637113522E+02  0.13750921987E+03  0.00000000000E+00 0. -1.
         21    1    1    2  505  501 -0.25240959853E+02 -0.37640961931E+02 -0.29093759937E+03  0.29444631904E+03  0.00000000000E+00 0. -1.
         -2    1    1    2    0  503  0.34629565575E+02  0.56879259118E+02 -0.42714236486E+03  0.43230204347E+03  0.00000000000E+00 0. -1.
<scales pt_clust_3="118.85242" pt_clust_4="14000.00000" pt_clust_5="45.32050" pt_clust_6="33.06514"></scales>
<clustering>
<clus scale="   45.321">  2  5  1 -1</clus>
<clus scale="   33.065">  2  6  1 -1</clus>
<clus scale="  118.852">  2  3  1 -1</clus>
<clus scale="  118.852">  1  3  2 -1</clus>
</clustering>
</event>
<event>
 6    0  0.1631680E+002  0.1649131E+03  0.7546771E-02  0.1183259E+00
          2   -1    0    0  503    0 -0.00000000000E+00  0.00000000000E+00  0.24358275280E+04  0.24358275280E+04  0.00000000000E+00 0.  1.
         21   -1    0    0  504  502  0.00000000000E+00 -0.00000000000E+00 -0.57838318318E+02  0.57838318318E+02  0.00000000000E+00 0.  1.
         21    1    1    2  503  502 -0.15226078635E+03  0.78474425498E+02  0.31775360329E+03  0.36098328898E+03  0.00000000000E+00 0.  1.
         21    1    1    2  504  505  0.16342491742E+03 -0.21469375593E+02  0.17305430833E+03  0.23899044197E+03  0.00000000000E+00 0.  1.
         21    1    1    2  505  501  0.63661392584E+02 -0.43725628000E+02  0.74725376189E+03  0.75123424317E+03  0.00000000000E+00 0. -1.
          2    1    1    2  501    0 -0.74825523652E+02 -0.13279421905E+02  0.11399275361E+04  0.11424578722E+04  0.00000000000E+00 0.  1.
<scales pt_clust_3="164.91314" pt_clust_4="14000.00000" pt_clust_5="55.29472" pt_clust_6="75.99475"></scales>
<clustering>
<clus scale="   75.995">  1  6  2 -1</clus>
<clus scale="   55.295">  1  5  2 -1</clus>
<clus scale="  164.913">  1  3  2 -1</clus>
<clus scale="  164.913">  2  3  1 -1</clus>
</clustering>
</event>
<event>
 6    0  0.1631680E+002  0.1512287E+03  0.7546771E-02  0.1198971E+00
          1   -1    0    0  504    0 -0.00000000000E+00  0.00000000000E+00  0.10670260664E+04  0.10670260664E+04  0.00000000000E+00 0.  1.
         21   -1    0    0  505  502  0.00000000000E+00 -0.00000000000E+00 -0.18210307634E+03  0.18210307634E+03  0.00000000000E+00 0.  1.
         21    1    1    2  503  502  0.24146929521E+02 -0.22971654799E+02 -0.14905685953E+03  0.15273741684E+03  0.00000000000E+00 0.  1.
         21    1    1    2  504  503  0.78587867481E+02  0.15785138548E+03  0.42595135509E+03  0.46100723390E+03  0.00000000000E+00 0.  1.
         21    1    1    2  505  501 -0.30286842367E+02 -0.16094789951E+02  0.52597283007E+02  0.62791792966E+02  0.00000000000E+00 0. -1.
          1    1    1    2  501    0 -0.72447954635E+02 -0.11878494073E+03  0.55543121145E+03  0.57259269898E+03  0.00000000000E+00 0.  1.
<scales pt_clust_3="33.32823" pt_clust_4="14000.00000" pt_clust_5="32.98240" pt_clust_6="151.22872"></scales>
<clustering>
<clus scale="   33.328">  2  3  1 -1</clus>
<clus scale="   32.982">  2  5  1 -1</clus>
<clus scale="  151.229">  1  6  2 -1</clus>
<clus scale="   33.328">  2  3  1 -1</clus>
</clustering>
</event>
<event>
 6    0  0.1631680E+002  0.1083795E+03  0.7546771E-02  0.1263601E+00
          1   -1    0    0  504    0 -0.00000000000E+00  0.00000000000E+00  0.23533242769E+04  0.23533242769E+04  0.00000000000E+00 0.  1.
         21   -1    0    0  503  502  0.00000000000E+00 -0.00000000000E+00 -0.40005534001E+02  0.40005534001E+02  0.00000000000E+00 0.  1.
         21    1    1    2  503  501  0.11815878410E+03  0.52656912794E+02  0.22963783608E+03  0.26356741924E+03  0.00000000000E+00 0.  1.
         21    1    1    2  504  505 -0.51588383137E+02 -0.45089476201E+01  0.64111252248E+03  0.64320055842E+03  0.00000000000E+00 0.  1.
         21    1    1    2  505  502 -0.38221562951E+02  0.27595336597E+02  0.57756162948E+01  0.47494717810E+02  0.00000000000E+00 0.  1.
          1    1    1    2  501    0 -0.28348838015E+02 -0.75743301770E+02  0.14367927680E+04  0.14390671154E+04  0.00000000000E+00 0.  1.
<scales pt_clust_3="108.37948" pt_clust_4="53.75659" pt_clust_5="47.14224" pt_clust_6="14000.00000"></scales>
<clustering>
<clus scale="   47.142">  2  5  1 -1</clus>
<clus scale="   53.757">  1  4  2 -1</clus>
<clus scale="  108.379">  2  3  1 -1</clus>
<clus scale="   47.142">  2  3  1 -1</clus>
</clustering>
</event>
<event>
 6    0  0.1631680E+002  0.1352855E+03  0.7546771E-02  0.1219817E+00
         21   -1    0    0  504  502  0.00000000000E+00  0.00000000000E+00  0.71660147478E+03  0.71660147478E+03  0.00000000000E+00 0.  1.
         -1   -1    0    0    0  501 -0.00000000000E+00 -0.00000000000E+00 -0.12640640655E+04  0.12640640655E+04  0.00000000000E+00 0.  1.
         21    1    1    2  503  501 -0.34547574198E+01  0.31023239548E+02 -0.86465732797E+03  0.86522059127E+03  0.00000000000E+00 0.  1.
         21    1    1    2  504  503  0.72832988966E+02  0.46793505009E+02  0.11655228976E+02  0.87350562421E+02  0.00000000000E+00 0.  1.
         21    1    1    2  505  502 -0.90887951323E+02 -0.11497893683E+03  0.65744271585E+03  0.67358124991E+03  0.00000000000E+00 0.  1.
         -1    1    1    2    0  505  0.21509719777E+02  0.37162192275E+02 -0.35190320753E+03  0.35451313664E+03  0.00000000000E+00 0.  1.
<scales pt_clust_3="31.21501" pt_clust_4="135.28549" pt_clust_5="14000.00000" pt_clust_6="67.19948"></scales>
<clustering>
<clus scale="   31.215">  2  3  1 -1</clus>
<clus scale="   67.199">  2  6  1 -1</clus>
<clus scale="  135.285">  2  4  1 -1</clus>
<clus scale="  135.285">  1  3  2 -1</clus>
</clustering>
</event>
<event>
 6    0  0.1631680E+002  0.9718123E+02  0.7546771E-02  0.1286338E+00
         21   -1    0    0  505  502  0.00000000000E+00  0.00000000000E+00  0.23703084987E+03  0.23703084987E+03  0.00000000000E+00 0.  1.
          1   -1    0    0  504    0 -0.00000000000E+00 -0.00000000000E+00 -0.94016734116E+03  0.94016734116E+03  0.00000000000E+00 0.  1.
         21    1    1    2  503  502 -0.43039196175E+02 -0.25118068001E+02  0.17486822173E+03  0.18183009849E+03  0.00000000000E+00 0.  1.
         21    1    1    2  504  503 -0.53893574870E+02 -0.14488828807E+02 -0.11782410739E+03  0.13037240450E+03  0.00000000000E+00 0.  1.
         21    1    1    2  505  501 -0.20505192095E+02  0.98346376581E+02 -0.72737115513E+01  0.10072427497E+03  0.00000000000E+00 0. -1.
          1    1    1    2  501    0  0.11743796314E+03 -0.58739479773E+02 -0.75290689408E+03  0.76427141307E+03  0.00000000000E+00 0.  1.
<scales pt_clust_3="49.83262" pt_clust_4="60.96438" pt_clust_5="97.18123" pt_clust_6="14000.00000"></scales>
<clustering>
<clus scale="   49.833">  1  3  2 -1</clus>
<clus scale="   60.964">  2  4  1 -1</clus>
<clus scale="   97.181">  1  5  2 -1</clus>
<clus scale="   49.833">  1  3  2 -1</clus>
</clustering>
</event>
<event>
 6    0  0.1631680E+002  0.1600612E+03  0.7546771E-02  0.1188628E+00
         21   -1    0    0  501  502  0.00000000000E+00  0.00000000000E+00  0.12725440267E+03  0.12725440267E+03  0.00000000000E+00 0.  1.
          1   -1    0    0  504    0 -0.00000000000E+00 -0.00000000000E+00 -0.18924925847E+04  0.18924925847E+04  0.00000000000E+00 0. -1.
         21    1    1    2  503  505  0.14590902582E+03  0.37630927519E+02 -0.59615701848E+02  0.16204802507E+03  0.00000000000E+00 0.  1.
         21    1    1    2  504  503 -0.19358767880E+02 -0.78937587054E+02 -0.71779046119E+03  0.72237736033E+03  0.00000000000E+00 0. -1.
         21    1    1    2  505  502 -0.60376021465E-01  0.48206891468E+02  0.61628582577E+02  0.78243148075E+02  0.00000000000E+00 0.  1.
          1    1    1    2  501    0 -0.12648988192E+03 -0.69002319334E+01 -0.10494606016E+04  0.10570784539E+04  0.00000000000E+00 0. -1.
<scales pt_clust_3="160.06122" pt_clust_4="79.40528" pt_clust_5="48.20693" pt_clust_6="14000.00000"></scales>
<clustering>
<clus scale="   48.207">  1  5  2 -1</clus>
<clus scale="   79.405">  2  4  1 -1</clus>
<clus scale="  160.061">  1  3  2 -1</clus>
<clus scale="   48.207">  1  3  2 -1</clus>
</clustering>
</event>
<event>
 6    0  0.1631680E+002  0.1475879E+03  0.7546771E-02  0.1203469E+00
         21   -1    0    0  503  502  0.00000000000E+00  0.00000000000E+00  0.14835718615E+03  0.14835718615E+03  0.00000000000E+00 0.  1.
         -2   -1    0    0    0  501 -0.00000000000E+00 -0.00000000000E+00 -0.35821183271E+03  0.35821183271E+03  0.00000000000E+00 0.  1.
         21    1    1    2  503  501 -0.44882652493E+02  0.37706676089E+02 -0.10543093048E+03  0.12063136830E+03  0.00000000000E+00 0.  1.
         21    1    1    2  504  505 -0.52894316486E+02 -0.55070438400E+02  0.53805167609E+02  0.93410695124E+02  0.00000000000E+00 0.  1.
         21    1    1    2  505  502 -0.63923510122E+01 -0.69744433162E+02  0.15792454250E+02  0.71795192874E+02  0.00000000000E+00 0.  1.
         -2    1    1    2    0  504  0.10416931999E+03  0.87108195472E+02 -0.17402133794E+03  0.22073176256E+03  0.00000000000E+00 0.  1.
<scales pt_clust_3="58.61950" pt_clust_4="55.47710" pt_clust_5="55.47710" pt_clust_6="135.74492"></scales>
<clustering>
<clus scale="   55.477">  4  5 -1 -1</clus>
<clus scale="   58.620">  2  3  1 -1</clus>
<clus scale="  135.745">  2  6  1 -1</clus>
<clus scale="  147.588">  1  3  2 -1</clus>
</clustering>
</event>
<event>
 6    0  0.1631680E+002  0.8831704E+02  0.7546771E-02  0.1306979E+00
         21   -1    0    0  505  502  0.00000000000E+00  0.00000000000E+00  0.22131609730E+03  0.22131609730E+03  0.00000000000E+00 0. -1.
          2   -1    0    0  503    0 -0.00000000000E+00 -0.00000000000E+00 -0.24876546263E+04  0.24876546263E+04  0.00000000000E+00 0. -1.
         21    1    1    2  503  504  0.55720784553E+02 -0.33133908891E+02 -0.15774813341E+03  0.17054950995E+03  0.00000000000E+00 0. -1.
         21    1    1    2  504  502 -0.63898041896E+02  0.10361413843E+03  0.16405264734E+03  0.20428441091E+03  0.00000000000E+00 0. -1.
         21    1    1    2  505  501  0.29653943109E+02 -0.18404017762E+02  0.20384317412E+02  0.40417627443E+02  0.00000000000E+00 0. -1.
          2    1    1    2  501    0 -0.21476685767E+02 -0.52076211780E+02 -0.22930273604E+04  0.22937191754E+04  0.00000000000E+00 0. -1.
<scales pt_clust_3="14000.00000" pt_clust_4="88.31704" pt_clust_5="34.90078" pt_clust_6="56.34136"></scales>
<clustering>
<clus scale="   34.901">  1  5  2 -1</clus>
<clus scale="   56.341">  2  6  1 -1</clus>
<clus scale="   88.317">  1  4  2 -1</clus>
<clus scale="   34.901">  1  3  2 -1</clus>
</clustering>
</event>
<event>
 6    0  0.1631680E+002  0.2861548E+03  0.7546771E-02  0.1092374E+00
         -1   -1    0    0    0  501 -0.00000000000E+00  0.00000000000E+00  0.25028591415E+04  0.25028591415E+04  0.00000000000E+00 0. -1.
         21   -1    0    0  503  502  0.00000000000E+00 -0.00000000000E+00 -0.48374205585E+03  0.48374205585E+03  0.00000000000E+00 0.  1.
         21    1    1    2  503  505 -0.12589077689E+03  0.25638202098E+03 -0.39531758897E+03  0.48770505896E+03  0.00000000000E+00 0.  1.
         21    1    1    2  504  501  0.53606725152E+01  0.43035242372E+02  0.16881241708E+04  0.16886811377E+04  0.00000000000E+00 0. -1.
         21    1    1    2  505  504 -0.20323145906E+02 -0.40492945466E+02  0.30691586318E+02  0.54723691056E+02  0.00000000000E+00 0. -1.
         -1    1    1    2    0  502  0.14085325028E+03 -0.25892431789E+03  0.69561891756E+03  0.75549130966E+03  0.00000000000E+00 0. -1.
<scales pt_clust_3="14000.00000" pt_clust_4="43.36783" pt_clust_5="43.17058" pt_clust_6="286.15481"></scales>
<clustering>
<clus scale="   43.368">  1  4  2 -1</clus>
<clus scale="   43.171">  1  5  2 -1</clus>
<clus scale="  286.155">  1  6  2 -1</clus>
<clus scale="  286.155">  2  3  1 -1</clus>
</clustering>
</event>
<event>
 6    0  0.1631680E+002  0.8279146E+02  0.7546771E-02  0.1321311E+00
         21   -1    0    0  504  502  0.00000000000E+00  0.00000000000E+00  0.16349118719E+04  0.16349118719E+04  0.00000000000E+00 0. -1.
          2   -1    0    0  503    0 -0.00000000000E+00 -0.00000000000E+00 -0.19037027891E+04  0.19037027891E+04  0.00000000000E+00 0.  1.
         21    1    1    2  503  502 -0.32081496452E+02 -0.10150255808E+03  0.20368277428E+01  0.10647131247E+03  0.00000000000E+00 0. -1.
         21    1    1    2  504  505  0.41225972481E+02  0.67738878670E+01  0.15689493118E+04  0.15695054665E+04  0.00000000000E+00 0. -1.
         21    1    1    2  505  501  0.38863472182E+02  0.48554642498E+02 -0.78727953297E+02  0.10032952411E+03  0.00000000000E+00 0.  1.
          2    1    1    2  501    0 -0.48007948211E+02  0.46174027714E+02 -0.17610491034E+04  0.17623083580E+04  0.00000000000E+00 0.  1.
<scales pt_clust_3="82.79146" pt_clust_4="41.77878" pt_clust_5="14000.00000" pt_clust_6="66.37030"></scales>
<clustering>
<clus scale="   41.779">  1  4  2 -1</clus>
<clus scale="   66.370">  2  6  1 -1</clus>
<clus scale="   82.791">  1  3  2 -1</clus>
<clus scale="   41.779">  1  3  2 -1</clus>
</clustering>
</event>
<event>
 6    0  0.1631680E+002  0.1546428E+03  0.7546771E-02  0.1194881E+00
         21   -1    0    0  503  502  0.00000000000E+00  0.00000000000E+00  0.43883810709E+03  0.43883810709E+03  0.00000000000E+00 0. -1.
          2   -1    0    0  504    0 -0.00000000000E+00 -0.00000000000E+00 -0.78514231633E+03  0.78514231633E+03  0.00000000000E+00 0. -1.
         21    1    1    2  503  501 -0.97115340962E+02  0.10390743904E+03  0.32592092588E+03  0.35560173687E+03  0.00000000000E+00 0. -1.
         21    1    1    2  504  505 -0.28454877064E+02 -0.11969276843E+02 -0.51507461932E+02  0.60049664875E+02  0.00000000000E+00 0. -1.
         21    1    1    2  505  502 -0.47715188442E+02 -0.49374987836E+02  0.68140628455E+02  0.96735587443E+02  0.00000000000E+00 0.  1.
          2    1    1    2  501    0  0.17328540647E+03 -0.42563174358E+02 -0.68885830164E+03  0.71159343423E+03  0.00000000000E+00 0. -1.
<scales pt_clust_3="14000.00000" pt_clust_4="30.86978" pt_clust_5="69.21990" pt_clust_6="154.64285"></scales>
<clustering>
<clus scale="   30.870">  2  4  1 -1</clus>
<clus scale="   69.220">  1  5  2 -1</clus>
<clus scale="  154.643">  2  6  1 -1</clus>
<clus scale="   69.220">  1  3  2 -1</clus>
</clustering>
</event>
<event>
 6    0  0.1631680E+002  0.1182243E+03  0.7546771E-02  0.1246056E+00
          1   -1    0    0  505    0 -0.00000000000E+00  0.00000000000E+00  0.16780265485E+04  0.16780265485E+04  0.00000000000E+00 0.  1.
         21   -1    0    0  503  502  0.00000000000E+00 -0.00000000000E+00 -0.74052356403E+03  0.74052356403E+03  0.00000000000E+00 0. -1.
         21    1    1    2  503  504 -0.36886245680E+02 -0.83177028222E+01 -0.30659578928E+03  0.30891869044E+03  0.00000000000E+00 0.  1.
         21    1    1    2  504  501 -0.64675996672E+02  0.69545226615E+02 -0.42443079743E+03  0.43492645918E+03  0.00000000000E+00 0. -1.
         21    1    1    2  505  502  0.23898907966E+01 -0.39808645187E+02  0.34638329326E+03  0.34867151541E+03  0.00000000000E+00 0. -1.
          1    1    1    2  501    0  0.99172351556E+02 -0.21418878606E+02  0.13221462779E+04  0.13260334475E+04  0.00000000000E+00 0.  1.
<scales pt_clust_3="37.81242" pt_clust_4="14000.00000" pt_clust_5="39.89655" pt_clust_6="118.22428"></scales>
<clustering>
<clus scale="   37.812">  2  3  1 -1</clus>
<clus scale="   39.897">  1  5  2 -1</clus>
<clus scale="  118.224">  1  6  2 -1</clus>
<clus scale="   37.812">  2  3  1 -1</clus>
</clustering>
</event>
<event>
 6    0  0.1631680E+002  0.8205988E+02  0.7546771E-02  0.1323305E+00
          2   -1    0    0  505    0 -0.00000000000E+00  0.00000000000E+00  0.18430126668E+04  0.18430126668E+04  0.00000000000E+00 0. -1.
         21   -1    0    0  504  502  0.00000000000E+00 -0.00000000000E+00 -0.54660541157E+02  0.54660541157E+02  0.00000000000E+00 0. -1.
         21    1    1    2  503  502 -0.10692842082E+02  0.61372523527E+02  0.75136709327E+03  0.75394524494E+03  0.00000000000E+00 0. -1.
         21    1    1    2  504  501 -0.59523833595E+02  0.10701878478E+02 -0.28323117834E+02  0.66781853618E+02  0.00000000000E+00 0. -1.
         21    1    1    2  505  503 -0.29834263238E+02  0.62979089804E+01  0.23423792376E+03  0.23621420755E+03  0.00000000000E+00 0.  1.
          2    1    1    2  501    0  0.10005093892E+03 -0.78372310985E+02  0.83107022640E+03  0.84073190181E+03  0.00000000000E+00 0. -1.
<scales pt_clust_3="82.05988" pt_clust_4="60.84276" pt_clust_5="30.49175" pt_clust_6="14000.00000"></scales>
<clustering>
<clus scale="   30.492">  1  5  2 -1</clus>
<clus scale="   60.843">  2  4  1 -1</clus>
<clus scale="   82.060">  1  3  2 -1</clus>
<clus scale="   60.843">  2  3  1 -1</clus>
</clustering>
</event>
<event>
 6    0  0.1631680E+002  0.7273791E+02  0.7546771E-02  0.1351023E+00
          2   -1    0    0  503    0 -0.00000000000E+00  0.00000000000E+00  0.23269859536E+04  0.23269859536E+04  0.00000000000E+00 0. -1.
         21   -1    0    0  505  502  0.00000000000E+00 -0.00000000000E+00 -0.20439216376E+03  0.20439216376E+03  0.00000000000E+00 0.  1.
         21    1    1    2  503  504  0.74269396995E+01  0.41403833421E+02  0.20359940225E+03  0.20789938300E+03  0.00000000000E+00 0.  1.
         21    1    1    2  504  502 -0.63492615694E+02 -0.36968529254E+02 -0.16343047169E+03  0.17918566761E+03  0.00000000000E+00 0.  1.
         21    1    1    2  505  501  0.43444618559E+02  0.59819227777E+02  0.14509546084E+02  0.75341235861E+02  0.00000000000E+00 0. -1.
          2    1    1    2  501    0  0.12621057436E+02 -0.64254531944E+02  0.20679153132E+04  0.20689518309E+04  0.00000000000E+00 0. -1.
<scales pt_clust_3="42.06467" pt_clust_4="72.73791" pt_clust_5="14000.00000" pt_clust_6="31.06223"></scales>
<clustering>
<clus scale="   42.065">  1  3  2 -1</clus>
<clus scale="   31.062">  1  6  2 -1</clus>
<clus scale="   72.738">  2  4  1 -1</clus>
<clus scale="   72.738">  2  3  1 -1</clus>
</clustering>
</event>
<event>
 6    0  0.1631680E+002  0.8724905E+02  0.7546771E-02  0.1309654E+00
         21   -1    0    0  505  502  0.00000000000E+00  0.00000000000E+00  0.36919099667E+03  0.36919099667E+03  0.00000000000E+00 0.  1.
          2   -1    0    0  504    0 -0.00000000000E+00 -0.00000000000E+00 -0.59690915519E+03  0.59690915519E+03  0.00000000000E+00 0. -1.
         21    1    1    2  503  501  0.82087179487E+01 -0.12016079193E+03  0.10722058667E+03  0.16125214161E+03  0.00000000000E+00 0. -1.
         21    1    1    2  504  502  0.55337000563E+02  0.24414846920E+02 -0.22108838975E+02  0.64397741748E+02  0.00000000000E+00 0. -1.
         21    1    1    2  505  503 -0.23850566994E+02  0.18756664441E+02  0.20914623562E+03  0.21133577520E+03  0.00000000000E+00 0.  1.
          2    1    1    2  501    0 -0.39695151518E+02  0.76989280569E+02 -0.52197614184E+03  0.52911449330E+03  0.00000000000E+00 0. -1.
<scales pt_clust_3="87.24905" pt_clust_4="58.69631" pt_clust_5="30.34241" pt_clust_6="14000.00000"></scales>
<clustering>
<clus scale="   30.342">  1  5  2 -1</clus>
<clus scale="   58.696">  1  4  2 -1</clus>
<clus scale="   87.249">  1  3  2 -1</clus>
<clus scale="   30.342">  1  3  2 -1</clus>
</clustering>
</event>
<event>
 6    0  0.1631680E+002  0.1040505E+03  0.7546771E-02  0.1272002E+00
          2   -1    0    0  505    0 -0.00000000000E+00  0.00000000000E+00  0.24767939315E+04  0.24767939315E+04  0.00000000000E+00 0.  1.
         21   -1    0    0  503  502  0.00000000000E+00 -0.00000000000E+00 -0.64163827295E+03  0.64163827295E+03  0.00000000000E+00 0. -1.
         21    1    1    2  503  501  0.63399176991E+02 -0.63673260442E+02  0.73944438468E+02  0.11636803564E+03  0.00000000000E+00 0. -1.
         21    1    1    2  504  502 -0.10086027919E+03  0.29959234533E+02 -0.61317585987E+03  0.62213743400E+03  0.00000000000E+00 0. -1.
         21    1    1    2  505  504 -0.40215769674E+02 -0.33545126869E+02  0.50244994387E+03  0.50517178243E+03  0.00000000000E+00 0. -1.
          2    1    1    2  501    0  0.77676871874E+02  0.67259152778E+02  0.18719371361E+04  0.18747549524E+04  0.00000000000E+00 0.  1.
<scales pt_clust_3="104.05048" pt_clust_4="14000.00000" pt_clust_5="52.36968" pt_clust_6="53.04104"></scales>
<clustering>
<clus scale="   52.370">  1  5  2 -1</clus>
<clus scale="   53.041">  1  6  2 -1</clus>
<clus scale="  104.050">  1  3  2 -1</clus>
<clus scale="  104.050">  2  3  1 -1</clus>
</clustering>
</event>
<event>
 6    0  0.1631680E+002  0.1038297E+03  0.7546771E-02  0.1272443E+00
         21   -1    0    0  504  502  0.00000000000E+00  0.00000000000E+00  0.83617455162E+02  0.83617455162E+02  0.00000000000E+00 0. -1.
         -1   -1    0    0    0  501 -0.00000000000E+00 -0.00000000000E+00 -0.93587640372E+03  0.93587640372E+03  0.00000000000E+00 0. -1.
         21    1    1    2  503  501  0.78845755834E+02 -0.96424620826E+01 -0.26422984755E+03  0.27591129485E+03  0.00000000000E+00 0. -1.
         21    1    1    2  504  503 -0.48109505520E+02  0.39896848062E+01 -0.43625812321E+02  0.65066532156E+02  0.00000000000E+00 0. -1.
         21    1    1    2  505  502  0.10960078135E+03 -0.70647477733E+01  0.63601290473E+01  0.11001224102E+03  0.00000000000E+00 0. -1.
         -1    1    1    2    0  505 -0.14033703167E+03  0.12717525050E+02 -0.55076341773E+03  0.56850379085E+03  0.00000000000E+00 0. -1.
<scales pt_clust_3="14000.00000" pt_clust_4="48.27465" pt_clust_5="71.30561" pt_clust_6="103.82971"></scales>
<clustering>
<clus scale="   48.275">  1  4  2 -1</clus>
<clus scale="   71.306">  1  5  2 -1</clus>
<clus scale="  103.830">  1  6  2 -1</clus>
<clus scale="   48.275">  1  3  2 -1</clus>
</clustering>
</event>
<event>
 6    0  0.1631680E+002  0.1220421E+03  0.7546771E-02  0.1239766E+00
         21   -1    0    0  504  502  0.00000000000E+00  0.00000000000E+00  0.80418641618E+02  0.80418641618E+02  0.00000000000E+00 0.  1.
          2   -1    0    0  503    0 -0.00000000000E+00 -0.00000000000E+00 -0.30840491668E+03  0.30840491668E+03  0.00000000000E+00 0.  1.
         21    1    1    2  503  502  0.27073149840E+02  0.10250168670E+03 -0.59828459256E+02  0.12173329764E+03  0.00000000000E+00 0.  1.
         21    1    1    2  504  505  0.27154836419E+00 -0.82562759493E+02 -0.51791932362E+02  0.97463261034E+02  0.00000000000E+00 0. -1.
         21    1    1    2  505  501  0.38086379636E+02 -0.39666399577E+02 -0.48710381102E+02  0.73462213391E+02  0.00000000000E+00 0.  1.
          2    1    1    2  501    0 -0.65431077839E+02  0.19727472373E+02 -0.67655502341E+02  0.96164786229E+02  0.00000000000E+00 0.  1.
<scales pt_clust_3="110.41187" pt_clust_4="42.43416" pt_clust_5="42.43416" pt_clust_6="68.34032"></scales>
<clustering>
<clus scale="   42.434">  4  5 -1 -1</clus>
<clus scale="   68.340">  2  6  1 -1</clus>
<clus scale="  110.412">  1  3  2 -1</clus>
<clus scale="  110.412">  1  3  2 -1</clus>
</clustering>
</event>
<event>
 6    0  0.1631680E+002  0.8792143E+02  0.7546771E-02  0.1307965E+00
          2   -1    0    0  504    0 -0.00000000000E+00  0.00000000000E+00  0.31193555123E+03  0.31193555123E+03  0.00000000000E+00 0. -1.
         21   -1    0    0  503  502  0.00000000000E+00 -0.00000000000E+00 -0.12976281575E+03  0.12976281575E+03  0.00000000000E+00 0.  1.
         21    1    1    2  503  501  0.64273362837E+02 -0.78284908430E+02 -0.25835549434E+02  0.10453261535E+03  0.00000000000E+00 0.  1.
         21    1    1    2  504  505  0.77696372213E+01 -0.51313495969E+02  0.63224492503E+02  0.81797179557E+02  0.00000000000E+00 0.  1.
         21    1    1    2  505  502 -0.27427658671E+01  0.34214301075E+02 -0.29291692951E+02  0.45123657194E+02  0.00000000000E+00 0.  1.
          2    1    1    2  501    0 -0.69300234191E+02  0.95384103325E+02  0.17407548536E+03  0.21024491487E+03  0.00000000000E+00 0. -1.
<scales pt_clust_3="14000.00000" pt_clust_4="48.46365" pt_clust_5="34.32406" pt_clust_6="87.92143"></scales>
<clustering>
<clus scale="   34.324">  2  5  1 -1</clus>
<clus scale="   48.464">  1  4  2 -1</clus>
<clus scale="   87.921">  1  6  2 -1</clus>
<clus scale="   34.324">  2  3  1 -1</clus>
</clustering>
</event>
<event>
 6    0  0.1631680E+002  0.9027489E+02  0.7546771E-02  0.1302187E+00
          2   -1    0    0  505    0 -0.00000000000E+00  0.00000000000E+00  0.76409743009E+03  0.76409743009E+03  0.00000000000E+00 0.  1.
         21   -1    0    0  503  502  0.00000000000E+00 -0.00000000000E+00 -0.21633454580E+03  0.21633454580E+03  0.00000000000E+00 0.  1.
         21    1    1    2  503  501  0.15265706091E+02 -0.11454759250E+03 -0.16294814750E+03  0.19976559139E+03  0.00000000000E+00 0.  1.
         21    1    1    2  504  502 -0.20117174496E+02  0.23412572568E+02 -0.14058452489E+02  0.33918864225E+02  0.00000000000E+00 0. -1.
         21    1    1    2  505  504  0.37631030336E+02  0.70593942691E+02  0.14430570161E+03  0.16499616573E+03  0.00000000000E+00 0.  1.
          2    1    1    2  501    0 -0.32779561931E+02  0.20541077243E+02  0.58046378265E+03  0.58175135454E+03  0.00000000000E+00 0.  1.
<scales pt_clust_3="14000.00000" pt_clust_4="30.86826" pt_clust_5="90.27489" pt_clust_6="38.78247"></scales>
<clustering>
<clus scale="   30.868">  2  4  1 -1</clus>
<clus scale="   38.782">  1  6  2 -1</clus>
<clus scale="   90.275">  1  5  2 -1</clus>
<clus scale="   30.868">  2  3  1 -1</clus>
</clustering>
</event>
<event>
 6    0  0.1631680E+002  0.1332497E+03  0.7546771E-02  0.1222712E+00
         21   -1    0    0  505  502  0.00000000000E+00  0.00000000000E+00  0.64389752596E+02  0.64389752596E+02  0.00000000000E+00 0. -1.
          1   -1    0    0  504    0 -0.00000000000E+00 -0.00000000000E+00 -0.90695164643E+03  0.90695164643E+03  0.00000000000E+00 0.  1.
         21    1    1    2  503  502 -0.14141513581E+03 -0.68586209471E+01 -0.13343241383E+03  0.19454945484E+03  0.00000000000E+00 0. -1.
         21    1    1    2  504  503  0.59860536034E+02  0.71546367837E+02 -0.34014360934E+03  0.35270361708E+03  0.00000000000E+00 0.  1.
         21    1    1    2  505  501 -0.90824153535E+01  0.39715855385E+02 -0.13918773487E+02  0.43053126402E+02  0.00000000000E+00 0.  1.
          1    1    1    2  501    0  0.90637015131E+02 -0.10440360227E+03 -0.35506709717E+03  0.38103520070E+03  0.00000000000E+00 0.  1.
<scales pt_clust_3="133.24971" pt_clust_4="96.47701" pt_clust_5="40.74113" pt_clust_6="14000.00000"></scales>
<clustering>
<clus scale="   40.741">  1  5  2 -1</clus>
<clus scale="   96.477">  2  4  1 -1</clus>
<clus scale="  133.250">  1  3  2 -1</clus>
<clus scale="   40.741">  1  3  2 -1</clus>
</clustering>
</event>
<event>
 6    0  0.1631680E+002  0.9419739E+02  0.7546771E-02  0.1292994E+00
         21   -1    0    0  505  502  0.00000000000E+00  0.00000000000E+00  0.76871989285E+02  0.76871989285E+02  0.00000000000E+00 0.  1.
          2   -1    0    0  504    0 -0.00000000000E+00 -0.00000000000E+00 -0.94015223844E+03  0.94015223844E+03  0.00000000000E+00 0. -1.
         21    1    1    2  503  502  0.11741192432E+02  0.89193771452E+02 -0.42350894061E+02  0.99433307766E+02  0.00000000000E+00 0.  1.
         21    1    1    2  504  503  0.15205252793E+02 -0.33202980877E+02 -0.15609877340E+03  0.16031364480E+03  0.00000000000E+00 0. -1.
         21    1    1    2  505  501 -0.84865350595E+02 -0.72237522071E+02 -0.24475217334E+02  0.11410268879E+03  0.00000000000E+00 0.  1.
          2    1    1    2  501    0  0.57918905370E+02  0.16246731496E+02 -0.64035536436E+03  0.64317458637E+03  0.00000000000E+00 0. -1.
<scales pt_clust_3="94.19739" pt_clust_4="36.51900" pt_clust_5="14000.00000" pt_clust_6="71.25309"></scales>
<clustering>
<clus scale="   36.519">  2  4  1 -1</clus>
<clus scale="   71.253">  2  6  1 -1</clus>
<clus scale="   94.197">  2  3  1 -1</clus>
<clus scale="   94.197">  1  3  2 -1</clus>
</clustering>
</event>
<event>
 6    0  0.1631680E+002  0.1318638E+03  0.7546771E-02  0.1224716E+00
         21   -1    0    0  503  502  0.00000000000E+00  0.00000000000E+00  0.74567582138E+03  0.74567582138E+03  0.00000000000E+00 0.  1.
          2   -1    0    0  504    0 -0.00000000000E+00 -0.00000000000E+00 -0.68056132499E+03  0.68056132499E+03  0.00000000000E+00 0. -1.
         21    1    1    2  503  501 -0.60778560875E+02 -0.73168235232E+02 -0.56936447161E+02  0.11085749016E+03  0.00000000000E+00 0.  1.
         21    1    1    2  504  505  0.30865681418E+02  0.88239203185E+01 -0.15415820091E+03  0.15746524305E+03  0.00000000000E+00 0. -1.
         21    1    1    2  505  502  0.78119519454E+02  0.10968603702E+03  0.70819731535E+03  0.72088634576E+03  0.00000000000E+00 0.  1.
          2    1    1    2  501    0 -0.48206639997E+02 -0.45341722110E+02 -0.43198817089E+03  0.43702806740E+03  0.00000000000E+00 0. -1.
<scales pt_clust_3="131.86380" pt_clust_4="32.10221" pt_clust_5="14000.00000" pt_clust_6="44.26800"></scales>
<clustering>
<clus scale="   32.102">  2  4  1 -1</clus>
<clus scale="   44.268">  2  6  1 -1</clus>
<clus scale="  131.864">  2  3  1 -1</clus>
<clus scale="  131.864">  1  3  2 -1</clus>
</clustering>
</event>
<event>
 6    0  0.1631680E+002  0.9029247E+02  0.7546771E-02  0.1302145E+00
          4   -1    0    0  503    0 -0.00000000000E+00  0.00000000000E+00  0.27099723360E+03  0.27099723360E+03  0.00000000000E+00 0. -1.
         21   -1    0    0  504  502  0.00000000000E+00 -0.00000000000E+00 -0.27157940751E+03  0.27157940751E+03  0.00000000000E+00 0. -1.
         21    1    1    2  503  505  0.21104343548E+02 -0.21677536485E+02  0.72725428616E+02  0.78767359179E+02  0.00000000000E+00 0. -1.
         21    1    1    2  504  501  0.79216774701E+02  0.86600207388E+02 -0.16926492385E+03  0.20597453183E+03  0.00000000000E+00 0. -1.
         21    1    1    2  505  502 -0.70062835974E+02 -0.17743378411E+02 -0.58843408878E+02  0.93199652524E+02  0.00000000000E+00 0. -1.
          4    1    1    2  501    0 -0.30258282274E+02 -0.47179292492E+02  0.15480073020E+03  0.16463509758E+03  0.00000000000E+00 0. -1.
<scales pt_clust_3="30.25407" pt_clust_4="90.29247" pt_clust_5="14000.00000" pt_clust_6="66.19974"></scales>
<clustering>
<clus scale="   30.254">  1  3  2 -1</clus>
<clus scale="   66.200">  1  6  2 -1</clus>
<clus scale="   90.292">  1  4  2 -1</clus>
<clus scale="   90.292">  2  3  1 -1</clus>
</clustering>
</event>
<event>
 6    0  0.1631680E+002  0.2125807E+03  0.7546771E-02  0.1139538E+00
         21   -1    0    0  505  502  0.00000000000E+00  0.00000000000E+00  0.28903512004E+03  0.28903512004E+03  0.00000000000E+00 0. -1.
         -2   -1    0    0    0  501 -0.00000000000E+00 -0.00000000000E+00 -0.39193447078E+03  0.39193447078E+03  0.00000000000E+00 0. -1.
         21    1    1    2  503  504  0.56811105350E+02 -0.17982613190E+03 -0.82800303958E+02  0.20596317569E+03  0.00000000000E+00 0. -1.
         21    1    1    2  504  502 -0.80952034701E+02  0.20679016797E+03  0.16241401956E+03  0.27512491570E+03  0.00000000000E+00 0. -1.
         21    1    1    2  505  501  0.34141361445E+02  0.15178268785E+02 -0.70556731862E+02  0.79838993078E+02  0.00000000000E+00 0.  1.
         -2    1    1    2    0  503 -0.10000432095E+02 -0.42142304853E+02 -0.11195633448E+03  0.12004250635E+03  0.00000000000E+00 0. -1.
<scales pt_clust_3="14000.00000" pt_clust_4="212.58075" pt_clust_5="37.36325" pt_clust_6="36.66907"></scales>
<clustering>
<clus scale="   37.363">  2  5  1 -1</clus>
<clus scale="   36.669">  2  6  1 -1</clus>
<clus scale="  212.581">  1  4  2 -1</clus>
<clus scale="  212.581">  1  3  2 -1</clus>
</clustering>
</event>
<event>
 6    0  0.1631680E+002  0.1219819E+03  0.7546771E-02  0.1239863E+00
         21   -1    0    0  504  502  0.00000000000E+00  0.00000000000E+00  0.22078768438E+04  0.22078768438E+04  0.00000000000E+00 0.  1.
         -3   -1    0    0    0  501 -0.00000000000E+00 -0.00000000000E+00 -0.12471880273E+03  0.12471880273E+03  0.00000000000E+00 0.  1.
         21    1    1    2  503  502  0.26857733626E+02 -0.26352413783E+02  0.64079500479E+03  0.64189876596E+03  0.00000000000E+00 0.  1.
         21    1    1    2  504  501  0.37403292756E+02  0.38688828379E+01  0.66871349562E-01  0.37602912589E+02  0.00000000000E+00 0. -1.
         21    1    1    2  505  503 -0.13403399456E+02 -0.83234533991E+02  0.15135099388E+04  0.15158561850E+04  0.00000000000E+00 0.  1.
         -3    1    1    2    0  505 -0.50857626926E+02  0.10571806494E+03 -0.71213773921E+02  0.13723778294E+03  0.00000000000E+00 0.  1.
<scales pt_clust_3="34.62558" pt_clust_4="37.60285" pt_clust_5="34.62558" pt_clust_6="110.42316"></scales>
<clustering>
<clus scale="   34.626">  3  5 -1 -1</clus>
<clus scale="   37.603">  2  4  1 -1</clus>
<clus scale="  110.423">  2  6  1 -1</clus>
<clus scale="  121.982">  1  3  2 -1</clus>
</clustering>
</event>
<event>
 6    0  0.1631680E+002  0.1702456E+03  0.7546771E-02  0.1177592E+00
         -3   -1    0    0    0  501 -0.00000000000E+00  0.00000000000E+00  0.25682364938E+03  0.25682364938E+03  0.00000000000E+00 0.  1.
         21   -1    0    0  504  502  0.00000000000E+00 -0.00000000000E+00 -0.10699025829E+04  0.10699025829E+04  0.00000000000E+00 0.  1.
         21    1    1    2  503  502  0.28615708514E+03 -0.53565668013E+02 -0.77598273237E+03  0.82879693477E+03  0.00000000000E+00 0.  1.
         21    1    1    2  504  505 -0.13435122478E+03  0.26018568974E+02 -0.18048336300E+03  0.22649826015E+03  0.00000000000E+00 0.  1.
         21    1    1    2  505  501  0.36237500972E+02 -0.10188528834E+02  0.33491945441E+02  0.50385245915E+02  0.00000000000E+00 0.  1.
         -3    1    1    2    0  503 -0.18804336133E+03  0.37735627874E+02  0.10989521636E+03  0.22104579148E+03  0.00000000000E+00 0.  1.
<scales pt_clust_3="14000.00000" pt_clust_4="132.83131" pt_clust_5="37.64256" pt_clust_6="170.24562"></scales>
<clustering>
<clus scale="   37.643">  1  5  2 -1</clus>
<clus scale="  132.831">  2  4  1 -1</clus>
<clus scale="  170.246">  1  6  2 -1</clus>
<clus scale="  132.831">  2  3  1 -1</clus>
</clustering>
</event>
<event>
 6    0  0.1631680E+002  0.2096674E+03  0.7546771E-02  0.1141830E+00
         21   -1    0    0  505  502  0.00000000000E+00  0.00000000000E+00  0.18603837271E+03  0.18603837271E+03  0.00000000000E+00 0. -1.
          2   -1    0    0  503    0 -0.00000000000E+00 -0.00000000000E+00 -0.26317483418E+04  0.26317483418E+04  0.00000000000E+00 0.  1.
         21    1    1    2  503  504  0.13628262365E+03 -0.79499904009E+02 -0.55360884871E+02  0.16720650651E+03  0.00000000000E+00 0.  1.
         21    1    1    2  504  502  0.76050172292E+01 -0.50904951471E+02  0.12036187961E+03  0.13090505122E+03  0.00000000000E+00 0. -1.
         21    1    1    2  505  501 -0.70778682350E+02  0.93773841257E+02 -0.10241468789E+04  0.10308637081E+04  0.00000000000E+00 0.  1.
          2    1    1    2  501    0 -0.73108958530E+02  0.36631014223E+02 -0.14865640849E+04  0.14888114486E+04  0.00000000000E+00 0.  1.
<scales pt_clust_3="191.24891" pt_clust_4="51.46990" pt_clust_5="72.22490" pt_clust_6="72.22490"></scales>
<clustering>
<clus scale="   51.470">  1  4  2 -1</clus>
<clus scale="   72.225">  5  6 -1 -1</clus>
<clus scale="  191.249">  1  3  2 -1</clus>
<clus scale="   51.470">  1  3  2 -1</clus>
</clustering>
</event>
<event>
 6    0  0.1631680E+002  0.8517258E+02  0.7546771E-02  0.1314982E+00
         21   -1    0    0  504  502  0.00000000000E+00  0.00000000000E+00  0.62516610314E+03  0.62516610314E+03  0.00000000000E+00 0.  1.
         -1   -1    0    0    0  501 -0.00000000000E+00 -0.00000000000E+00 -0.20186631636E+03  0.20186631636E+03  0.00000000000E+00 0. -1.
         21    1    1    2  503  502  0.71444547212E+02  0.40270182766E+02  0.42045130020E+03  0.42837519394E+03  0.00000000000E+00 0.  1.
         21    1    1    2  504  501 -0.13682828048E+03  0.34678328120E+02  0.13875090738E+03  0.19793023791E+03  0.00000000000E+00 0.  1.
         21    1    1    2  505  503  0.27422241543E+02 -0.54091574988E+02 -0.27511378503E+01  0.60707879023E+02  0.00000000000E+00 0.  1.
         -1    1    1    2    0  505  0.37961491723E+02 -0.20856935897E+02 -0.13315128295E+03  0.14001910862E+03  0.00000000000E+00 0. -1.
<scales pt_clust_3="14000.00000" pt_clust_4="85.17258" pt_clust_5="78.92852" pt_clust_6="43.31382"></scales>
<clustering>
<clus scale="   43.314">  2  6  1 -1</clus>
<clus scale="   78.929">  2  5  1 -1</clus>
<clus scale="   85.173">  2  4  1 -1</clus>
<clus scale="   85.173">  1  3  2 -1</clus>
</clustering>
</event>
<event>
 6    0  0.1631680E+002  0.8026793E+02  0.7546771E-02  0.1328293E+00
         21   -1    0    0  504  502  0.00000000000E+00  0.00000000000E+00  0.99148921201E+02  0.99148921201E+02  0.00000000000E+00 0. -1.
         -1   -1    0    0    0  501 -0.00000000000E+00 -0.00000000000E+00 -0.26456147491E+03  0.26456147491E+03  0.00000000000E+00 0. -1.
         21    1    1    2  503  501 -0.33755645956E+02  0.20179804312E+02 -0.27708962513E+02  0.48108780275E+02  0.00000000000E+00 0. -1.
         21    1    1    2  504  503  0.99795599493E+02 -0.82946719468E+01 -0.21713582773E+02  0.10246678944E+03  0.00000000000E+00 0. -1.
         21    1    1    2  505  502 -0.21553565878E+02  0.47344243559E+02  0.22030681256E+02  0.56492340338E+02  0.00000000000E+00 0. -1.
         -1    1    1    2    0  505 -0.44486387659E+02 -0.59229375925E+02 -0.13802068968E+03  0.15664248606E+03  0.00000000000E+00 0. -1.
<scales pt_clust_3="39.32770" pt_clust_4="80.26793" pt_clust_5="54.50559" pt_clust_6="14000.00000"></scales>
<clustering>
<clus scale="   39.328">  2  3  1 -1</clus>
<clus scale="   54.506">  1  5  2 -1</clus>
<clus scale="   80.268">  1  4  2 -1</clus>
<clus scale="   54.506">  1  3  2 -1</clus>
</clustering>
</event>
<event>
 6    0  0.1631680E+002  0.9197835E+02  0.7546771E-02  0.1298130E+00
         21   -1    0    0  505  502  0.00000000000E+00  0.00000000000E+00  0.71661593753E+02  0.71661593753E+02  0.00000000000E+00 0.  1.
          1   -1    0    0  503    0 -0.00000000000E+00 -0.00000000000E+00 -0.87170840821E+03  0.87170840821E+03  0.00000000000E+00 0. -1.
         21    1    1    2  503  502  0.15952293625E+02 -0.25524405311E+02  0.16582607035E+02  0.34365008285E+02  0.00000000000E+00 0.  1.
         21    1    1    2  504  501 -0.73379667536E+02  0.19774777381E+02 -0.24585174400E+03  0.25732993890E+03  0.00000000000E+00 0.  1.
         21    1    1    2  505  504 -0.37943936633E+02  0.52521772007E+02  0.61172799082E+01  0.65082255458E+02  0.00000000000E+00 0.  1.
          1    1    1    2  501    0  0.95371310544E+02 -0.46772144077E+02 -0.57689495740E+03  0.58659279931E+03  0.00000000000E+00 0. -1.
<scales pt_clust_3="30.09935" pt_clust_4="14000.00000" pt_clust_5="41.67581" pt_clust_6="91.97835"></scales>
<clustering>
<clus scale="   30.099">  1  3  2 -1</clus>
<clus scale="   41.676">  1  5  2 -1</clus>
<clus scale="   91.978">  2  6  1 -1</clus>
<clus scale="   30.099">  1  3  2 -1</clus>
</clustering>
</event>
<event>
 6    0  0.1631680E+002  0.1591448E+03  0.7546771E-02  0.1189666E+00
          1   -1    0    0  505    0 -0.00000000000E+00  0.00000000000E+00  0.28943485241E+03  0.28943485241E+03  0.00000000000E+00 0. -1.
         21   -1    0    0  504  502  0.00000000000E+00 -0.00000000000E+00 -0.11754167532E+04  0.11754167532E+04  0.00000000000E+00 0.  1.
         21    1    1    2  503  502 -0.27812218221E+02  0.11708626914E+02 -0.36373039119E+03  0.36498001165E+03  0.00000000000E+00 0.  1.
         21    1    1    2  504  501  0.20283334166E+02 -0.21547206457E+03 -0.64604403284E+03  0.68133142936E+03  0.00000000000E+00 0.  1.
         21    1    1    2  505  503 -0.10407477336E+03  0.89398817461E+02 -0.80579778517E+02  0.15911256304E+03  0.00000000000E+00 0.  1.
          1    1    1    2  501    0  0.11160365741E+03  0.11436462020E+03  0.20437230179E+03  0.25942760154E+03  0.00000000000E+00 0. -1.
<scales pt_clust_3="30.17634" pt_clust_4="159.14481" pt_clust_5="141.45089" pt_clust_6="14000.00000"></scales>
<clustering>
<clus scale="   30.176">  2  3  1 -1</clus>
<clus scale="  141.451">  2  5  1 -1</clus>
<clus scale="  159.145">  2  4  1 -1</clus>
<clus scale="   30.176">  2  3  1 -1</clus>
</clustering>
</event>
<event>
 6    0  0.1631680E+002  0.6323605E+02  0.7546771E-02  0.1384732E+00
          2   -1    0    0  503    0 -0.00000000000E+00  0.00000000000E+00  0.26578062126E+03  0.26578062126E+03  0.00000000000E+00 0. -1.
         21   -1    0    0  505  502  0.00000000000E+00 -0.00000000000E+00 -0.19790445792E+03  0.19790445792E+03  0.00000000000E+00 0. -1.
         21    1    1    2  503  504  0.58300345482E+02  0.87040208354E+01  0.21895128252E+02  0.62881530700E+02  0.00000000000E+00 0. -1.
         21    1    1    2  504  502  0.48071122114E+02  0.53889135912E+02  0.11911846282E+03  0.13929852811E+03  0.00000000000E+00 0. -1.
         21    1    1    2  505  501 -0.63849694372E+02 -0.20285559871E+01 -0.14494061195E+03  0.15839406398E+03  0.00000000000E+00 0. -1.
          2    1    1    2  501    0 -0.42521773223E+02 -0.60564600760E+02  0.71803184217E+02  0.10311095639E+03  0.00000000000E+00 0. -1.
<scales pt_clust_3="58.94650" pt_clust_4="14000.00000" pt_clust_5="63.23605" pt_clust_6="60.45589"></scales>
<clustering>
<clus scale="   58.947">  1  3  2 -1</clus>
<clus scale="   60.456">  1  6  2 -1</clus>
<clus scale="   63.236">  2  5  1 -1</clus>
<clus scale="   63.236">  2  3  1 -1</clus>
</clustering>
</event>
<event>
 6    0  0.1631680E+002  0.1067515E+03  0.7546771E-02  0.1266707E+00
         21   -1    0    0  505  502  0.00000000000E+00  0.00000000000E+00  0.70846958717E+03  0.70846958717E+03  0.00000000000E+00 0. -1.
          1   -1    0    0  504    0 -0.00000000000E+00 -0.00000000000E+00 -0.15849617523E+04  0.15849617523E+04  0.00000000000E+00 0. -1.
         21    1    1    2  503  501  0.10222583865E+03 -0.50105220753E+02  0.28082476794E+02  0.11725732701E+03  0.00000000000E+00 0. -1.
         21    1    1    2  504  502 -0.39302982000E+02  0.13599959567E+02 -0.13712104383E+03  0.14328944118E+03  0.00000000000E+00 0. -1.
         21    1    1    2  505  503  0.61779667212E+01  0.51334623951E+02  0.63076516900E+03  0.63288080182E+03  0.00000000000E+00 0. -1.
          1    1    1    2  501    0 -0.69100823371E+02 -0.14829362766E+02 -0.13982187671E+04  0.14000037694E+04  0.00000000000E+00 0. -1.
<scales pt_clust_3="14000.00000" pt_clust_4="41.58946" pt_clust_5="51.71149" pt_clust_6="106.75146"></scales>
<clustering>
<clus scale="   41.589">  2  4  1 -1</clus>
<clus scale="   51.711">  1  5  2 -1</clus>
<clus scale="  106.751">  2  6  1 -1</clus>
<clus scale="   51.711">  1  3  2 -1</clus>
</clustering>
</event>
<event>
 6    0  0.1631680E+002  0.7289551E+02  0.7546771E-02  0.1350515E+00
          2   -1    0    0  503    0 -0.00000000000E+00  0.00000000000E+00  0.17753034654E+04  0.17753034654E+04  0.00000000000E+00 0.  1.
         21   -1    0    0  505  502  0.00000000000E+00 -0.00000000000E+00 -0.54522576533E+03  0.54522576533E+03  0.00000000000E+00 0. -1.
         21    1    1    2  503  504 -0.35648627173E+02 -0.15454760426E+01  0.11072722766E+03  0.11633456950E+03  0.00000000000E+00 0.  1.
         21    1    1    2  504  502  0.66647659250E+02 -0.57507821349E+02 -0.51517882226E+02  0.10199584398E+03  0.00000000000E+00 0. -1.
         21    1    1    2  505  501 -0.56796576227E+02 -0.15087478025E+02 -0.46286496745E+03  0.46658060521E+03  0.00000000000E+00 0. -1.
          2    1    1    2  501    0  0.25797544150E+02  0.74140775417E+02  0.16337333221E+04  0.16356182121E+04  0.00000000000E+00 0.  1.
<scales pt_clust_3="35.68211" pt_clust_4="14000.00000" pt_clust_5="58.80531" pt_clust_6="72.89551"></scales>
<clustering>
<clus scale="   35.682">  1  3  2 -1</clus>
<clus scale="   58.805">  2  5  1 -1</clus>
<clus scale="   72.896">  1  6  2 -1</clus>
<clus scale="   58.805">  2  3  1 -1</clus>
</clustering>
</event>
<event>
 6    0  0.1631680E+002  0.9149138E+02  0.7546771E-02  0.1299280E+00
         -1   -1    0    0    0  501 -0.00000000000E+00  0.00000000000E+00  0.46169406604E+03  0.46169406604E+03  0.00000000000E+00 0. -1.
         21   -1    0    0  505  502  0.00000000000E+00 -0.00000000000E+00 -0.10139099525E+03  0.10139099525E+03  0.00000000000E+00 0. -1.
         21    1    1    2  503  501  0.41031214989E+02  0.93539261442E+01  0.25366877488E+03  0.25713596382E+03  0.00000000000E+00 0. -1.
         21    1    1    2  504  503 -0.22060122908E+02  0.63851694186E+02 -0.24278489643E+02  0.71785325328E+02  0.00000000000E+00 0. -1.
         21    1    1    2  505  504  0.41022900630E+02  0.34412609994E+02 -0.11389884005E+01  0.53557477510E+02  0.00000000000E+00 0. -1.
         -1    1    1    2    0  502 -0.59993992711E+02 -0.10761823033E+03  0.13205177395E+03  0.18060629464E+03  0.00000000000E+00 0. -1.
<scales pt_clust_3="42.08392" pt_clust_4="91.49138" pt_clust_5="58.35401" pt_clust_6="14000.00000"></scales>
<clustering>
<clus scale="   42.084">  1  3  2 -1</clus>
<clus scale="   58.354">  2  5  1 -1</clus>
<clus scale="   91.491">  2  4  1 -1</clus>
<clus scale="   58.354">  2  3  1 -1</clus>
</clustering>
</event>
<event>
 6    0  0.1631680E+002  0.1330820E+03  0.7546771E-02  0.1222953E+00
          2   -1    0    0  505    0 -0.00000000000E+00  0.00000000000E+00  0.30087335476E+04  0.30087335476E+04  0.00000000000E+00 0.  1.
         21   -1    0    0  503  502  0.00000000000E+00 -0.00000000000E+00 -0.36429786480E+02  0.36429786480E+02  0.00000000000E+00 0. -1.
         21    1    1    2  503  501 -0.30577475172E+02 -0.13511535998E+02  0.85112496549E+02  0.91442225813E+02  0.00000000000E+00 0. -1.
         21    1    1    2  504  502  0.49588193873E+02  0.31817614161E+02  0.21373460976E+02  0.62675149594E+02  0.00000000000E+00 0.  1.
         21    1    1    2  505  504  0.54472078932E+02  0.97019650858E+02  0.27548373527E+03  0.29710487784E+03  0.00000000000E+00 0. -1.
          2    1    1    2  501    0 -0.73482797633E+02 -0.11532572902E+03  0.25903340683E+04  0.25939410808E+04  0.00000000000E+00 0.  1.
<scales pt_clust_3="33.42968" pt_clust_4="38.54424" pt_clust_5="14000.00000" pt_clust_6="133.08205"></scales>
<clustering>
<clus scale="   33.430">  2  3  1 -1</clus>
<clus scale="   38.544">  2  4  1 -1</clus>
<clus scale="  133.082">  1  6  2 -1</clus>
<clus scale="   33.430">  2  3  1 -1</clus>
</clustering>
</event>
<event>
 6    0  0.1631680E+002  0.1101607E+03  0.7546771E-02  0.1260273E+00
         21   -1    0    0  505  502  0.00000000000E+00  0.00000000000E+00  0.28674545999E+02  0.28674545999E+02  0.00000000000E+00 0. -1.
          1   -1    0    0  504    0 -0.00000000000E+00 -0.00000000000E+00 -0.16090383187E+04  0.16090383187E+04  0.00000000000E+00 0. -1.
         21    1    1    2  503  502  0.40935601603E+02 -0.35515790321E+02 -0.14402376433E+03  0.15388287602E+03  0.00000000000E+00 0. -1.
         21    1    1    2  504  503  0.65438709252E+01 -0.38889979407E+02 -0.18869990683E+03  0.19277683362E+03  0.00000000000E+00 0. -1.
         21    1    1    2  505  501 -0.64992321011E+02 -0.38850013241E+02 -0.56657589529E+02  0.94569592209E+02  0.00000000000E+00 0. -1.
          1    1    1    2  501    0  0.17512848483E+02  0.11325578297E+03 -0.11909825120E+04  0.11964835628E+04  0.00000000000E+00 0. -1.
<scales pt_clust_3="34.93722" pt_clust_4="34.93722" pt_clust_5="75.71873" pt_clust_6="102.26432"></scales>
<clustering>
<clus scale="   34.937">  3  4 -1 -1</clus>
<clus scale="   75.719">  1  5  2 -1</clus>
<clus scale="  102.264">  2  6  1 -1</clus>
<clus scale="   75.719">  1  3  2 -1</clus>
</clustering>
</event>
<event>
 6    0  0.1631680E+002  0.9192170E+02  0.7546771E-02  0.1298264E+00
          2   -1    0    0  505    0 -0.00000000000E+00  0.00000000000E+00  0.18759742422E+03  0.18759742422E+03  0.00000000000E+00 0. -1.
         21   -1    0    0  503  502  0.00000000000E+00 -0.00000000000E+00 -0.42171038838E+03  0.42171038838E+03  0.00000000000E+00 0.  1.
         21    1    1    2  503  501  0.29064002782E+02 -0.78841480420E+02 -0.55235726977E+02  0.10055685371E+03  0.00000000000E+00 0.  1.
         21    1    1    2  504  502 -0.92770446661E+02  0.42029285493E+02 -0.31179182864E+03  0.32800451372E+03  0.00000000000E+00 0.  1.
         21    1    1    2  505  504  0.23783066536E+02 -0.27178064725E+02  0.82408797368E+02  0.89974948400E+02  0.00000000000E+00 0. -1.
          2    1    1    2  501    0  0.39923377343E+02  0.63990259652E+02  0.50505794097E+02  0.90771496772E+02  0.00000000000E+00 0. -1.
<scales pt_clust_3="91.92170" pt_clust_4="14000.00000" pt_clust_5="36.11484" pt_clust_6="72.25939"></scales>
<clustering>
<clus scale="   36.115">  1  5  2 -1</clus>
<clus scale="   72.259">  1  6  2 -1</clus>
<clus scale="   91.922">  1  3  2 -1</clus>
<clus scale="   91.922">  2  3  1 -1</clus>
</clustering>
</event>
<event>
 6    0  0.1631680E+002  0.1352204E+03  0.7546771E-02  0.1219909E+00
          4   -1    0    0  505    0 -0.00000000000E+00  0.00000000000E+00  0.37543165764E+03  0.37543165764E+03  0.00000000000E+00 0. -1.
         21   -1    0    0  501  502  0.00000000000E+00 -0.00000000000E+00 -0.11776345383E+03  0.11776345383E+03  0.00000000000E+00 0. -1.
         21    1    1    2  503  502  0.27655087888E+02 -0.82663654703E+02  0.39359167468E+02  0.95641140513E+02  0.00000000000E+00 0. -1.
         21    1    1    2  504  503  0.78878280585E+02  0.58919413515E+02 -0.98882033389E+01  0.98949770097E+02  0.00000000000E+00 0. -1.
         21    1    1    2  505  504  0.76925645414E+01  0.54563760246E+02  0.19032708792E+02  0.58297714238E+02  0.00000000000E+00 0.  1.
          4    1    1    2  501    0 -0.11422593301E+03 -0.30819519058E+02  0.20916453089E+03  0.24030648662E+03  0.00000000000E+00 0. -1.
<scales pt_clust_3="87.16699" pt_clust_4="48.88727" pt_clust_5="48.88727" pt_clust_6="118.38223"></scales>
<clustering>
<clus scale="   48.887">  4  5 -1 -1</clus>
<clus scale="   87.167">  2  3  1 -1</clus>
<clus scale="  118.382">  1  6  2 -1</clus>
<clus scale="   87.167">  2  3  1 -1</clus>
</clustering>
</event>
<event>
 6    0  0.1631680E+002  0.1086796E+03  0.7546771E-02  0.1263035E+00
          1   -1    0    0  505    0 -0.00000000000E+00  0.00000000000E+00  0.18649407151E+03  0.18649407151E+03  0.00000000000E+00 0.  1.
         21   -1    0    0  504  502  0.00000000000E+00 -0.00000000000E+00 -0.20712348328E+03  0.20712348328E+03  0.00000000000E+00 0.  1.
         21    1    1    2  503  501 -0.23476985812E+02 -0.29707925970E+02 -0.25928073993E+02  0.45891118414E+02  0.00000000000E+00 0.  1.
         21    1    1    2  504  503 -0.48440091882E+02 -0.33136557811E+02 -0.12573233430E+03  0.13875551829E+03  0.00000000000E+00 0.  1.
         21    1    1    2  505  502 -0.25382136108E+02 -0.22067583197E+02  0.28164943430E+02  0.43869067689E+02  0.00000000000E+00 0.  1.
          1    1    1    2  501    0  0.97299213802E+02  0.84912066978E+02  0.10286605310E+03  0.16510185040E+03  0.00000000000E+00 0.  1.
<scales pt_clust_3="36.24425" pt_clust_4="36.24425" pt_clust_5="33.63378" pt_clust_6="99.19296"></scales>
<clustering>
<clus scale="   33.634">  1  5  2 -1</clus>
<clus scale="   36.244">  3  4 -1 -1</clus>
<clus scale="   99.193">  1  6  2 -1</clus>
<clus scale="  108.680">  2  3  1 -1</clus>
</clustering>
</event>
<event>
 6    0  0.1631680E+002  0.1655364E+03  0.7546771E-02  0.1182584E+00
         21   -1    0    0  504  502  0.00000000000E+00  0.00000000000E+00  0.19541793027E+03  0.19541793027E+03  0.00000000000E+00 0.  1.
          1   -1    0    0  505    0 -0.00000000000E+00 -0.00000000000E+00 -0.13163342925E+04  0.13163342925E+04  0.00000000000E+00 0.  1.
         21    1    1    2  503  502 -0.87863589215E+02 -0.10276155403E+02 -0.70222018207E+02  0.11294574592E+03  0.00000000000E+00 0.  1.
         21    1    1    2  504  501  0.90866178101E+02  0.63399985757E+02  0.89917670009E+02  0.14269340523E+03  0.00000000000E+00 0.  1.
         21    1    1    2  505  503  0.24417545581E+02  0.15768689371E+03 -0.97136123759E+03  0.98438002158E+03  0.00000000000E+00 0.  1.
          1    1    1    2  501    0 -0.27420134467E+02 -0.21081072407E+03 -0.16925077644E+03  0.27173305003E+03  0.00000000000E+00 0.  1.
<scales pt_clust_3="88.46248" pt_clust_4="65.03824" pt_clust_5="165.53638" pt_clust_6="14000.00000"></scales>
<clustering>
<clus scale="   88.462">  1  3  2 -1</clus>
<clus scale="   65.038">  1  4  2 -1</clus>
<clus scale="  165.536">  2  5  1 -1</clus>
<clus scale="   88.462">  1  3  2 -1</clus>
</clustering>
</event>
<event>
 6    0  0.1631680E+002  0.8217942E+02  0.7546771E-02  0.1322978E+00
          2   -1    0    0  503    0 -0.00000000000E+00  0.00000000000E+00  0.26256045589E+04  0.26256045589E+04  0.00000000000E+00 0.  1.
         21   -1    0    0  504  502  0.00000000000E+00 -0.00000000000E+00 -0.33887701499E+02  0.33887701499E+02  0.00000000000E+00 0. -1.
         21    1    1    2  503  502 -0.79838795012E+02 -0.16711954994E+00  0.15983833809E+03  0.17866884296E+03  0.00000000000E+00 0. -1.
         21    1    1    2  504  505  0.51408545454E+02  0.11986684432E+02  0.22258246558E+03  0.22875636195E+03  0.00000000000E+00 0. -1.
         21    1    1    2  505  501  0.13033755667E+02  0.69534431966E+02  0.40156378799E+02  0.81347715235E+02  0.00000000000E+00 0. -1.
          2    1    1    2  501    0  0.15396493891E+02 -0.81353996848E+02  0.21691396749E+04  0.21707193403E+04  0.00000000000E+00 0.  1.
<scales pt_clust_3="64.21938" pt_clust_4="52.78749" pt_clust_5="14000.00000" pt_clust_6="82.17942"></scales>
<clustering>
<clus scale="   52.787">  2  4  1 -1</clus>
<clus scale="   64.219">  2  3  1 -1</clus>
<clus scale="   82.179">  1  6  2 -1</clus>
<clus scale="   52.787">  2  3  1 -1</clus>
</clustering>
</event>
<event>
 6    0  0.1631680E+002  0.9524555E+02  0.7546771E-02  0.1290624E+00
         21   -1    0    0  505  502  0.00000000000E+00  0.00000000000E+00  0.13666804044E+04  0.13666804044E+04  0.00000000000E+00 0.  1.
          3   -1    0    0  503    0 -0.00000000000E+00 -0.00000000000E+00 -0.28309675400E+02  0.28309675400E+02  0.00000000000E+00 0.  1.
         21    1    1    2  503  504 -0.25987982277E+02  0.17470050724E+02  0.29370061555E+02  0.42932253737E+02  0.00000000000E+00 0.  1.
         21    1    1    2  504  502  0.48402136133E+02  0.72554915182E+01  0.15216910438E+03  0.15984631765E+03  0.00000000000E+00 0.  1.
         21    1    1    2  505  501 -0.96358063632E+02 -0.21188060915E+02  0.10835974628E+04  0.10880796256E+04  0.00000000000E+00 0.  1.
          3    1    1    2  501    0  0.73943909776E+02 -0.35374813278E+01  0.73234100263E+02  0.10413188277E+03  0.00000000000E+00 0.  1.
<scales pt_clust_3="31.31418" pt_clust_4="44.98021" pt_clust_5="14000.00000" pt_clust_6="95.24555"></scales>
<clustering>
<clus scale="   31.314">  2  3  1 -1</clus>
<clus scale="   44.980">  2  4  1 -1</clus>
<clus scale="   95.246">  2  6  1 -1</clus>
<clus scale="   95.246">  1  3  2 -1</clus>
</clustering>
</event>
<event>
 6    0  0.1631680E+002  0.7350225E+02  0.7546771E-02  0.1348573E+00
          2   -1    0    0  505    0 -0.00000000000E+00  0.00000000000E+00  0.13808869249E+04  0.13808869249E+04  0.00000000000E+00 0.  1.
         21   -1    0    0  503  502  0.00000000000E+00 -0.00000000000E+00 -0.37363170171E+02  0.37363170171E+02  0.00000000000E+00 0.  1.
         21    1    1    2  503  501  0.44354184602E+01 -0.64426977421E+02  0.49391893093E+02  0.81302321369E+02  0.00000000000E+00 0.  1.
         21    1    1    2  504  502  0.20580674341E+02  0.95850806212E+02  0.14739871504E+03  0.17702350805E+03  0.00000000000E+00 0.  1.
         21    1    1    2  505  504  0.47941601384E+02  0.96789164596E+01  0.85534808527E+03  0.85674525125E+03  0.00000000000E+00 0.  1.
          2    1    1    2  501    0 -0.72957694186E+02 -0.41102745250E+02  0.29138506133E+03  0.30317901440E+03  0.00000000000E+00 0.  1.
<scales pt_clust_3="14000.00000" pt_clust_4="73.50225" pt_clust_5="48.90888" pt_clust_6="58.02304"></scales>
<clustering>
<clus scale="   48.909">  1  5  2 -1</clus>
<clus scale="   58.023">  1  6  2 -1</clus>
<clus scale="   73.502">  1  4  2 -1</clus>
<clus scale="   73.502">  2  3  1 -1</clus>
</clustering>
</event>
<event>
 6    0  0.1631680E+002  0.6124275E+02  0.7546771E-02  0.1392689E+00
          2   -1    0    0  503    0 -0.00000000000E+00  0.00000000000E+00  0.34858405755E+04  0.34858405755E+04  0.00000000000E+00 0.  1.
         21   -1    0    0  504  502  0.00000000000E+00 -0.00000000000E+00 -0.76190237534E+02  0.76190237534E+02  0.00000000000E+00 0.  1.
         21    1    1    2  503  505  0.27345834962E+02 -0.52189505951E+02  0.67303749085E+03  0.67561157725E+03  0.00000000000E+00 0.  1.
         21    1    1    2  504  501  0.53159837292E+02 -0.20218987984E+02  0.19621360452E+01  0.56908925081E+02  0.00000000000E+00 0.  1.
         21    1    1    2  505  502 -0.11274916481E+03  0.13251986839E+02  0.21524601293E+02  0.11554781599E+03  0.00000000000E+00 0.  1.
          2    1    1    2  501    0  0.32243492556E+02  0.59156507095E+02  0.27131261098E+04  0.27139624947E+04  0.00000000000E+00 0.  1.
<scales pt_clust_3="60.05300" pt_clust_4="56.87509" pt_clust_5="61.24275" pt_clust_6="14000.00000"></scales>
<clustering>
<clus scale="   56.875">  2  4  1 -1</clus>
<clus scale="   60.053">  1  3  2 -1</clus>
<clus scale="   61.243">  2  5  1 -1</clus>
<clus scale="   56.875">  2  3  1 -1</clus>
</clustering>
</event>
<event>
 6    0  0.1631680E+002  0.1089278E+03  0.7546771E-02  0.1262568E+00
         21   -1    0    0  504  502  0.00000000000E+00  0.00000000000E+00  0.11454349132E+04  0.11454349132E+04  0.00000000000E+00 0. -1.
         -2   -1    0    0    0  501 -0.00000000000E+00 -0.00000000000E+00 -0.67067957529E+02  0.67067957529E+02  0.00000000000E+00 0.  1.
         21    1    1    2  503  505 -0.18140159424E+02  0.28858945041E+02  0.67601228534E+03  0.67687112069E+03  0.00000000000E+00 0. -1.
         21    1    1    2  504  501  0.51800102217E+02  0.70864699690E+02  0.79526534842E+02  0.11844630005E+03  0.00000000000E+00 0.  1.
         21    1    1    2  505  502  0.29543742080E+02  0.11854251939E+02  0.28027059521E+03  0.28207261923E+03  0.00000000000E+00 0. -1.
         -2    1    1    2    0  503 -0.63203684873E+02 -0.11157789667E+03  0.42557540325E+02  0.13511283080E+03  0.00000000000E+00 0.  1.
<scales pt_clust_3="38.46121" pt_clust_4="14000.00000" pt_clust_5="31.83325" pt_clust_6="108.92780"></scales>
<clustering>
<clus scale="   31.833">  1  5  2 -1</clus>
<clus scale="   38.461">  1  3  2 -1</clus>
<clus scale="  108.928">  2  6  1 -1</clus>
<clus scale="   31.833">  1  3  2 -1</clus>
</clustering>
</event>
<event>
 6    0  0.1631680E+002  0.1693308E+03  0.7546771E-02  0.1178547E+00
          2   -1    0    0  504    0 -0.00000000000E+00  0.00000000000E+00  0.32457841436E+04  0.32457841436E+04  0.00000000000E+00 0. -1.
         21   -1    0    0  501  502  0.00000000000E+00 -0.00000000000E+00 -0.62365700146E+03  0.62365700146E+03  0.00000000000E+00 0.  1.
         21    1    1    2  503  505  0.25623192038E+01 -0.77372770365E+02  0.88722930997E+02  0.11774918071E+03  0.00000000000E+00 0. -1.
         21    1    1    2  504  503 -0.11572435783E+01  0.54819605201E+02  0.27216590372E+04  0.27222113149E+04  0.00000000000E+00 0. -1.
         21    1    1    2  505  502  0.15778706868E+03  0.61996741744E+02 -0.58027703630E+03  0.60453436121E+03  0.00000000000E+00 0.  1.
          2    1    1    2  501    0 -0.15919214431E+03 -0.39443576581E+02  0.39202221026E+03  0.42494628823E+03  0.00000000000E+00 0. -1.
<scales pt_clust_3="66.61026" pt_clust_4="54.83182" pt_clust_5="169.33082" pt_clust_6="14000.00000"></scales>
<clustering>
<clus scale="   54.832">  1  4  2 -1</clus>
<clus scale="   66.610">  1  3  2 -1</clus>
<clus scale="  169.331">  2  5  1 -1</clus>
<clus scale="  169.331">  2  3  1 -1</clus>
</clustering>
</event>
<event>
 6    0  0.1631680E+002  0.2081183E+03  0.7546771E-02  0.1143065E+00
         21   -1    0    0  503  502  0.00000000000E+00  0.00000000000E+00  0.40459665943E+03  0.40459665943E+03  0.00000000000E+00 0.  1.
          3   -1    0    0  504    0 -0.00000000000E+00 -0.00000000000E+00 -0.17108414849E+04  0.17108414849E+04  0.00000000000E+00 0.  1.
         21    1    1    2  503  501 -0.10548824450E+03  0.20697668672E+03 -0.82868895570E+02  0.24664624957E+03  0.00000000000E+00 0.  1.
         21    1    1    2  504  505  0.48620248561E+02 -0.67014804734E+01 -0.23337805199E+03  0.23848302573E+03  0.00000000000E+00 0. -1.
         21    1    1    2  505  502 -0.10883380652E+02 -0.33254314020E+02  0.31297703516E+03  0.31492685168E+03  0.00000000000E+00 0.  1.
          3    1    1    2  501    0  0.67751376589E+02 -0.16702089223E+03 -0.13029749130E+04  0.13153820173E+04  0.00000000000E+00 0.  1.
<scales pt_clust_3="208.11830" pt_clust_4="48.91379" pt_clust_5="34.98996" pt_clust_6="14000.00000"></scales>
<clustering>
<clus scale="   34.990">  1  5  2 -1</clus>
<clus scale="   48.914">  2  4  1 -1</clus>
<clus scale="  208.118">  1  3  2 -1</clus>
<clus scale="   34.990">  1  3  2 -1</clus>
</clustering>
</event>
<event>
 6    0  0.1631680E+002  0.6107052E+02  0.7546771E-02  0.1393393E+00
         21   -1    0    0  504  502  0.00000000000E+00  0.00000000000E+00  0.21168852435E+04  0.21168852435E+04  0.00000000000E+00 0. -1.
         -1   -1    0    0    0  501 -0.00000000000E+00 -0.00000000000E+00 -0.35699646741E+02  0.35699646741E+02  0.00000000000E+00 0.  1.
         21    1    1    2  503  501  0.46919494676E+02  0.21865997827E+02  0.56866164002E+02  0.76898123839E+02  0.00000000000E+00 0.  1.
         21    1    1    2  504  503 -0.55056709733E+02  0.21896942313E+02  0.16887763623E+04  0.16898154690E+04  0.00000000000E+00 0. -1.
         21    1    1    2  505  502  0.64125498395E+02 -0.60236936893E+02  0.30986018511E+03  0.32210852585E+03  0.00000000000E+00 0.  1.
         -1    1    1    2    0  505 -0.55988283338E+02  0.16473996754E+02  0.25682885384E+02  0.63762771598E+02  0.00000000000E+00 0.  1.
<scales pt_clust_3="51.76447" pt_clust_4="61.07052" pt_clust_5="14000.00000" pt_clust_6="38.96040"></scales>
<clustering>
<clus scale="   51.764">  2  3  1 -1</clus>
<clus scale="   38.960">  2  6  1 -1</clus>
<clus scale="   61.071">  1  4  2 -1</clus>
<clus scale="   61.071">  1  3  2 -1</clus>
</clustering>
</event>
<event>
 6    0  0.1631680E+002  0.8633326E+02  0.7546771E-02  0.1311982E+00
         21   -1    0    0  504  502  0.00000000000E+00  0.00000000000E+00  0.10908814412E+04  0.10908814412E+04  0.00000000000E+00 0.  1.
          2   -1    0    0  503    0 -0.00000000000E+00 -0.00000000000E+00 -0.53486780120E+03  0.53486780120E+03  0.00000000000E+00 0.  1.
         21    1    1    2  503  505  0.64021566416E+02 -0.11171605957E+02 -0.34034917804E+02  0.73361716010E+02  0.00000000000E+00 0.  1.
         21    1    1    2  504  501  0.65609911748E+02 -0.29570434860E+02  0.88220149783E+03  0.88513194153E+03  0.00000000000E+00 0.  1.
         21    1    1    2  505  502 -0.23991652265E+02  0.10486879691E+03  0.16318013640E+03  0.19545030279E+03  0.00000000000E+00 0.  1.
          2    1    1    2  501    0 -0.10563982590E+03 -0.64126756096E+02 -0.45533307645E+03  0.47180528205E+03  0.00000000000E+00 0.  1.
<scales pt_clust_3="64.98897" pt_clust_4="72.15749" pt_clust_5="14000.00000" pt_clust_6="86.33326"></scales>
<clustering>
<clus scale="   64.989">  2  3  1 -1</clus>
<clus scale="   72.157">  1  4  2 -1</clus>
<clus scale="   86.333">  2  6  1 -1</clus>
<clus scale="   72.157">  1  3  2 -1</clus>
</clustering>
</event>
<event>
 6    0  0.1631680E+002  0.1084022E+03  0.7546771E-02  0.1263558E+00
         21   -1    0    0  501  502  0.00000000000E+00  0.00000000000E+00  0.38934055964E+02  0.38934055964E+02  0.00000000000E+00 0. -1.
         -2   -1    0    0    0  501 -0.00000000000E+00 -0.00000000000E+00 -0.10580323064E+04  0.10580323064E+04  0.00000000000E+00 0. -1.
         21    1    1    2  503  502 -0.15610267902E+02 -0.35431358397E+02 -0.45486920844E+02  0.59733755865E+02  0.00000000000E+00 0. -1.
         21    1    1    2  504  505  0.96402331109E+02  0.39607790172E+02 -0.21302440201E+03  0.23715307786E+03  0.00000000000E+00 0. -1.
         21    1    1    2  505  503  0.31821980885E+02 -0.23424829843E+02 -0.98821207888E+01  0.40731037697E+02  0.00000000000E+00 0. -1.
         -2    1    1    2    0  504 -0.11261404409E+03  0.19248398068E+02 -0.75070480676E+03  0.75934849091E+03  0.00000000000E+00 0. -1.
<scales pt_clust_3="38.71772" pt_clust_4="14000.00000" pt_clust_5="47.29649" pt_clust_6="108.40224"></scales>
<clustering>
<clus scale="   38.718">  1  3  2 -1</clus>
<clus scale="   47.296">  1  5  2 -1</clus>
<clus scale="  108.402">  2  6  1 -1</clus>
<clus scale="   38.718">  1  3  2 -1</clus>
</clustering>
</event>
<event>
 6    0  0.1631680E+002  0.1133895E+03  0.7546771E-02  0.1254419E+00
         21   -1    0    0  501  502  0.00000000000E+00  0.00000000000E+00  0.75957287081E+03  0.75957287081E+03  0.00000000000E+00 0.  1.
          1   -1    0    0  505    0 -0.00000000000E+00 -0.00000000000E+00 -0.48032055447E+03  0.48032055447E+03  0.00000000000E+00 0. -1.
         21    1    1    2  503  504  0.18123040046E+03 -0.23679211579E+02 -0.10956712035E+02  0.18309891494E+03  0.00000000000E+00 0.  1.
         21    1    1    2  504  502 -0.75368284949E+02 -0.13435072999E+02  0.65951504018E+03  0.66394349743E+03  0.00000000000E+00 0.  1.
         21    1    1    2  505  503 -0.45391865351E+02 -0.35704114168E-01 -0.58499337785E+02  0.74044548997E+02  0.00000000000E+00 0.  1.
          1    1    1    2  501    0 -0.60470250161E+02  0.37149988693E+02 -0.31080667402E+03  0.31880646391E+03  0.00000000000E+00 0. -1.
<scales pt_clust_3="14000.00000" pt_clust_4="76.79540" pt_clust_5="45.39188" pt_clust_6="113.38950"></scales>
<clustering>
<clus scale="   45.392">  2  5  1 -1</clus>
<clus scale="   76.795">  1  4  2 -1</clus>
<clus scale="  113.390">  2  6  1 -1</clus>
<clus scale="   76.795">  1  3  2 -1</clus>
</clustering>
</event>
<event>
 6    0  0.1631680E+002  0.9047777E+02  0.7546771E-02  0.1301699E+00
         -4   -1    0    0    0  501 -0.00000000000E+00  0.00000000000E+00  0.21646399297E+03  0.21646399297E+03  0.00000000000E+00 0. -1.
         21   -1    0    0  505  502  0.00000000000E+00 -0.00000000000E+00 -0.20257956764E+04  0.20257956764E+04  0.00000000000E+00 0.  1.
         21    1    1    2  503  501 -0.45895836910E+02 -0.42246948254E+01 -0.10022578019E+01  0.46100763689E+02  0.00000000000E+00 0. -1.
         21    1    1    2  504  503  0.41666024776E+02  0.49822760874E+02 -0.13935530584E+03  0.15374741099E+03  0.00000000000E+00 0. -1.
         21    1    1    2  505  504 -0.67741327213E+00 -0.97406097295E+02 -0.18507609793E+04  0.18533225863E+04  0.00000000000E+00 0.  1.
         -4    1    1    2    0  502  0.49072254061E+01  0.51808031247E+02  0.18178685950E+03  0.18908890832E+03  0.00000000000E+00 0. -1.
<scales pt_clust_3="46.08987" pt_clust_4="14000.00000" pt_clust_5="90.47777" pt_clust_6="61.65552"></scales>
<clustering>
<clus scale="   46.090">  1  3  2 -1</clus>
<clus scale="   61.656">  1  6  2 -1</clus>
<clus scale="   90.478">  2  5  1 -1</clus>
<clus scale="   90.478">  2  3  1 -1</clus>
</clustering>
</event>
<event>
 6    0  0.1631680E+002  0.1336133E+03  0.7546771E-02  0.1222191E+00
         21   -1    0    0  503  502  0.00000000000E+00  0.00000000000E+00  0.30312662523E+03  0.30312662523E+03  0.00000000000E+00 0. -1.
          1   -1    0    0  504    0 -0.00000000000E+00 -0.00000000000E+00 -0.95072898228E+03  0.95072898228E+03  0.00000000000E+00 0. -1.
         21    1    1    2  503  501 -0.14536388556E+03 -0.38390688064E+02  0.26293734128E+03  0.30288702448E+03  0.00000000000E+00 0. -1.
         21    1    1    2  504  505  0.29273996642E+02  0.24940300883E+02 -0.39160873949E+03  0.39349255436E+03  0.00000000000E+00 0.  1.
         21    1    1    2  505  502  0.99664525587E+01  0.33670656988E+02 -0.90312612116E+01  0.36257509535E+02  0.00000000000E+00 0.  1.
          1    1    1    2  501    0  0.10612343636E+03 -0.20220269808E+02 -0.50989969763E+03  0.52121851914E+03  0.00000000000E+00 0. -1.
<scales pt_clust_3="133.61333" pt_clust_4="38.55335" pt_clust_5="35.11472" pt_clust_6="14000.00000"></scales>
<clustering>
<clus scale="   35.115">  1  5  2 -1</clus>
<clus scale="   38.553">  2  4  1 -1</clus>
<clus scale="  133.613">  1  3  2 -1</clus>
<clus scale="   35.115">  1  3  2 -1</clus>
</clustering>
</event>
<event>
 6    0  0.1631680E+002  0.1059361E+03  0.7546771E-02  0.1268286E+00
         21   -1    0    0  501  502  0.00000000000E+00  0.00000000000E+00  0.81520263787E+02  0.81520263787E+02  0.00000000000E+00 0. -1.
          2   -1    0    0  503    0 -0.00000000000E+00 -0.00000000000E+00 -0.15094636399E+04  0.15094636399E+04  0.00000000000E+00 0. -1.
         21    1    1    2  503  505 -0.18806302249E+02  0.26618100712E+02 -0.72896545895E+03  0.72969366218E+03  0.00000000000E+00 0. -1.
         21    1    1    2  504  502 -0.23477778524E+02  0.21343056927E+02  0.61274085242E+02  0.69001780308E+02  0.00000000000E+00 0. -1.
         21    1    1    2  505  504  0.12749935525E+03 -0.46307507313E+02 -0.51856777141E+03  0.53601586205E+03  0.00000000000E+00 0. -1.
          2    1    1    2  501    0 -0.85215274474E+02 -0.16536503267E+01 -0.24168423101E+03  0.25627259916E+03  0.00000000000E+00 0. -1.
<scales pt_clust_3="33.28027" pt_clust_4="31.72904" pt_clust_5="14000.00000" pt_clust_6="105.93605"></scales>
<clustering>
<clus scale="   31.729">  1  4  2 -1</clus>
<clus scale="   33.280">  2  3  1 -1</clus>
<clus scale="  105.936">  1  6  2 -1</clus>
<clus scale="   31.729">  1  3  2 -1</clus>
</clustering>
</event>
<event>
 6    0  0.1631680E+002  0.8420951E+02  0.7546771E-02  0.1317513E+00
         21   -1    0    0  503  502  0.00000000000E+00  0.00000000000E+00  0.11252643496E+02  0.11252643496E+02  0.00000000000E+00 0.  1.
          2   -1    0    0  505    0 -0.00000000000E+00 -0.00000000000E+00 -0.34531927147E+04  0.34531927147E+04  0.00000000000E+00 0. -1.
         21    1    1    2  503  501  0.28149425458E+02 -0.25731570777E+02 -0.99416277553E+02  0.10648051526E+03  0.00000000000E+00 0.  1.
         21    1    1    2  504  502  0.56929419121E+02  0.35765373005E+02 -0.21583757382E+03  0.22606631536E+03  0.00000000000E+00 0.  1.
         21    1    1    2  505  504  0.42406185737E+02  0.58946244771E+01 -0.42291916283E+03  0.42508075641E+03  0.00000000000E+00 0. -1.
          2    1    1    2  501    0 -0.12748503032E+03 -0.15928426706E+02 -0.27037670570E+04  0.27068177712E+04  0.00000000000E+00 0. -1.
<scales pt_clust_3="38.13796" pt_clust_4="84.20951" pt_clust_5="46.40349" pt_clust_6="14000.00000"></scales>
<clustering>
<clus scale="   38.138">  1  3  2 -1</clus>
<clus scale="   46.403">  2  5  1 -1</clus>
<clus scale="   84.210">  1  4  2 -1</clus>
<clus scale="   38.138">  1  3  2 -1</clus>
</clustering>
</event>
<event>
 6    0  0.1631680E+002  0.1375480E+03  0.7546771E-02  0.1216667E+00
         21   -1    0    0  503  502  0.00000000000E+00  0.00000000000E+00  0.84999305484E+02  0.84999305484E+02  0.00000000000E+00 0.  1.
          1   -1    0    0  505    0 -0.00000000000E+00 -0.00000000000E+00 -0.12245278219E+04  0.12245278219E+04  0.00000000000E+00 0.  1.
         21    1    1    2  503  504  0.82220818430E+01 -0.46731607264E+02  0.39380769770E+02  0.61662717869E+02  0.00000000000E+00 0.  1.
         21    1    1    2  504  501  0.12894928560E+03  0.11543928421E+02 -0.13967005409E+03  0.19044396696E+03  0.00000000000E+00 0.  1.
         21    1    1    2  505  502 -0.59516456317E+01 -0.38684051558E+02 -0.12891250027E+03  0.13472308881E+03  0.00000000000E+00 0. -1.
          1    1    1    2  501    0 -0.13121972182E+03  0.73871730401E+02 -0.91032673178E+03  0.92269735370E+03  0.00000000000E+00 0.  1.
<scales pt_clust_3="47.82750" pt_clust_4="137.54797" pt_clust_5="39.13921" pt_clust_6="14000.00000"></scales>
<clustering>
<clus scale="   39.139">  2  5  1 -1</clus>
<clus scale="   47.828">  1  3  2 -1</clus>
<clus scale="  137.548">  1  4  2 -1</clus>
<clus scale="   47.828">  1  3  2 -1</clus>
</clustering>
</event>
<event>
 6    0  0.1631680E+002  0.7559480E+02  0.7546771E-02  0.1342039E+00
         21   -1    0    0  501  502  0.00000000000E+00  0.00000000000E+00  0.21661483968E+02  0.21661483968E+02  0.00000000000E+00 0. -1.
          2   -1    0    0  504    0 -0.00000000000E+00 -0.00000000000E+00 -0.10425492649E+04  0.10425492649E+04  0.00000000000E+00 0. -1.
         21    1    1    2  503  502 -0.40031429811E+02 -0.53438347854E+02 -0.17229769117E+03  0.18478275563E+03  0.00000000000E+00 0. -1.
         21    1    1    2  504  505  0.86671843131E+01 -0.31489825960E+02 -0.40825065439E+03  0.40955503419E+03  0.00000000000E+00 0.  1.
         21    1    1    2  505  503 -0.22559852152E+02  0.10220644723E+03 -0.32397243761E+03  0.34046034294E+03  0.00000000000E+00 0. -1.
          2    1    1    2  501    0  0.53924097650E+02 -0.17278273415E+02 -0.11636699774E+03  0.12941261609E+03  0.00000000000E+00 0. -1.
<scales pt_clust_3="14000.00000" pt_clust_4="32.66082" pt_clust_5="75.59480" pt_clust_6="60.32244"></scales>
<clustering>
<clus scale="   32.661">  2  4  1 -1</clus>
<clus scale="   60.322">  1  6  2 -1</clus>
<clus scale="   75.595">  2  5  1 -1</clus>
<clus scale="   60.322">  1  3  2 -1</clus>
</clustering>
</event>
<event>
 6    0  0.1631680E+002  0.1954810E+03  0.7546771E-02  0.1153609E+00
         21   -1    0    0  503  502  0.00000000000E+00  0.00000000000E+00  0.12898158964E+03  0.12898158964E+03  0.00000000000E+00 0.  1.
          1   -1    0    0  505    0 -0.00000000000E+00 -0.00000000000E+00 -0.33049384521E+04  0.33049384521E+04  0.00000000000E+00 0.  1.
         21    1    1    2  503  501 -0.17896364176E+03  0.38550135880E+02 -0.41612007252E+01  0.18311584760E+03  0.00000000000E+00 0.  1.
         21    1    1    2  504  502  0.24012306651E+03 -0.96696839261E+02 -0.41939624773E+03  0.49285147702E+03  0.00000000000E+00 0.  1.
         21    1    1    2  505  504  0.35600813844E+02  0.29947838112E+01 -0.20287016615E+03  0.20599196826E+03  0.00000000000E+00 0.  1.
          1    1    1    2  501    0 -0.96760238590E+02  0.55151919570E+02 -0.25495292479E+04  0.25519607489E+04  0.00000000000E+00 0.  1.
<scales pt_clust_3="195.48100" pt_clust_4="14000.00000" pt_clust_5="35.72655" pt_clust_6="88.72446"></scales>
<clustering>
<clus scale="   35.727">  2  5  1 -1</clus>
<clus scale="   88.724">  2  6  1 -1</clus>
<clus scale="  195.481">  1  3  2 -1</clus>
<clus scale="  195.481">  1  3  2 -1</clus>
</clustering>
</event>
<event>
 6    0  0.1631680E+002  0.1353557E+03  0.7546771E-02  0.1219718E+00
         21   -1    0    0  503  502  0.00000000000E+00  0.00000000000E+00  0.40867956292E+03  0.40867956292E+03  0.00000000000E+00 0.  1.
          1   -1    0    0  505    0 -0.00000000000E+00 -0.00000000000E+00 -0.10188362522E+04  0.10188362522E+04  0.00000000000E+00 0.  1.
         21    1    1    2  503  501 -0.20855309551E+01 -0.97555704608E+02  0.60767900114E+02  0.11495304531E+03  0.00000000000E+00 0.  1.
         21    1    1    2  504  502 -0.75495097585E+01  0.34626890086E+02  0.29501207362E+03  0.29713320279E+03  0.00000000000E+00 0.  1.
         21    1    1    2  505  504  0.10022259484E+03 -0.51973576674E+02 -0.15706161689E+03  0.19342743521E+03  0.00000000000E+00 0.  1.
          1    1    1    2  501    0 -0.90587554131E+02  0.11490239120E+03 -0.80887504613E+03  0.82200213182E+03  0.00000000000E+00 0.  1.
<scales pt_clust_3="70.98791" pt_clust_4="35.44032" pt_clust_5="14000.00000" pt_clust_6="135.35570"></scales>
<clustering>
<clus scale="   35.440">  1  4  2 -1</clus>
<clus scale="   70.988">  1  3  2 -1</clus>
<clus scale="  135.356">  2  6  1 -1</clus>
<clus scale="   35.440">  1  3  2 -1</clus>
</clustering>
</event>
<event>
 6    0  0.1631680E+002  0.9597710E+02  0.7546771E-02  0.1288990E+00
         21   -1    0    0  503  502  0.00000000000E+00  0.00000000000E+00  0.85536743177E+03  0.85536743177E+03  0.00000000000E+00 0.  1.
         -1   -1    0    0    0  501 -0.00000000000E+00 -0.00000000000E+00 -0.39184475060E+03  0.39184475060E+03  0.00000000000E+00 0.  1.
         21    1    1    2  503  505  0.26497020684E+02  0.40162681695E+02  0.22511798314E+03  0.23020260519E+03  0.00000000000E+00 0. -1.
         21    1    1    2  504  501  0.39328440058E+02 -0.61036306511E+02 -0.77244828438E+02  0.10601377472E+03  0.00000000000E+00 0.  1.
         21    1    1    2  505  504  0.68041238624E+02 -0.18287575676E+02  0.59479023989E+03  0.59894864141E+03  0.00000000000E+00 0.  1.
         -1    1    1    2    0  502 -0.13386669937E+03  0.39161200493E+02 -0.27914071343E+03  0.31204716104E+03  0.00000000000E+00 0.  1.
<scales pt_clust_3="48.11583" pt_clust_4="72.17189" pt_clust_5="95.97710" pt_clust_6="14000.00000"></scales>
<clustering>
<clus scale="   48.116">  1  3  2 -1</clus>
<clus scale="   72.172">  2  4  1 -1</clus>
<clus scale="   95.977">  1  5  2 -1</clus>
<clus scale="   48.116">  1  3  2 -1</clus>
</clustering>
</event>
<event>
 6    0  0.1631680E+002  0.1361290E+03  0.7546771E-02  0.1218635E+00
         21   -1    0    0  504  502  0.00000000000E+00  0.00000000000E+00  0.64930297808E+03  0.64930297808E+03  0.00000000000E+00 0. -1.
         -4   -1    0    0    0  501 -0.00000000000E+00 -0.00000000000E+00 -0.84807815691E+02  0.84807815691E+02  0.00000000000E+00 0.  1.
         21    1    1    2  503  501 -0.43076624629E+01  0.31788279125E+02  0.41576087361E+01  0.32347122840E+02  0.00000000000E+00 0.  1.
         21    1    1    2  504  503  0.95196504470E+01  0.41876277455E+02  0.72169618651E+02  0.83980356122E+02  0.00000000000E+00 0. -1.
         21    1    1    2  505  502 -0.54862314112E+02  0.88413442941E+02  0.42392124234E+03  0.43650433000E+03  0.00000000000E+00 0. -1.
         -4    1    1    2    0  505  0.49650326128E+02 -0.16207799952E+03  0.64246692653E+02  0.18127898480E+03  0.00000000000E+00 0.  1.
<scales pt_clust_3="32.07882" pt_clust_4="45.46330" pt_clust_5="14000.00000" pt_clust_6="136.12904"></scales>
<clustering>
<clus scale="   32.079">  2  3  1 -1</clus>
<clus scale="   45.463">  1  4  2 -1</clus>
<clus scale="  136.129">  2  6  1 -1</clus>
<clus scale="   45.463">  1  3  2 -1</clus>
</clustering>
</event>
<event>
 6    0  0.1631680E+002  0.1236879E+03  0.7546771E-02  0.1237134E+00
          2   -1    0    0  503    0 -0.00000000000E+00  0.00000000000E+00  0.86586350600E+03  0.86586350600E+03  0.00000000000E+00 0.  1.
         21   -1    0    0  505  502  0.00000000000E+00 -0.00000000000E+00 -0.83846541862E+02  0.83846541862E+02  0.00000000000E+00 0.  1.
         21    1    1    2  503  504  0.25381578545E+02 -0.18342289121E+02  0.92236051280E+02  0.97407151972E+02  0.00000000000E+00 0.  1.
         21    1    1    2  504  502 -0.13273242741E+03  0.35964520386E+02  0.17410758842E+02  0.13861629968E+03  0.00000000000E+00 0.  1.
         21    1    1    2  505  501  0.69825201373E+01 -0.32309010174E+02 -0.65375085638E+00  0.33061384061E+02  0.00000000000E+00 0.  1.
          2    1    1    2  501    0  0.10036832873E+03  0.14686778909E+02  0.67302390487E+03  0.68062521215E+03  0.00000000000E+00 0.  1.
<scales pt_clust_3="31.31556" pt_clust_4="123.68795" pt_clust_5="33.54725" pt_clust_6="14000.00000"></scales>
<clustering>
<clus scale="   31.316">  1  3  2 -1</clus>
<clus scale="   33.547">  2  5  1 -1</clus>
<clus scale="  123.688">  2  4  1 -1</clus>
<clus scale="   33.547">  2  3  1 -1</clus>
</clustering>
</event>
<event>
 6    0  0.1631680E+002  0.2884788E+03  0.7546771E-02  0.1091146E+00
         21   -1    0    0  501  502  0.00000000000E+00  0.00000000000E+00  0.74611537709E+02  0.74611537709E+02  0.00000000000E+00 0.  1.
          2   -1    0    0  504    0 -0.00000000000E+00 -0.00000000000E+00 -0.48084741193E+04  0.48084741193E+04  0.00000000000E+00 0. -1.
         21    1    1    2  503  502  0.22164545048E+03 -0.20441598075E+03 -0.31810787924E+03  0.43829809689E+03  0.00000000000E+00 0.  1.
         21    1    1    2  504  505  0.39494398018E+01 -0.54003032853E+02 -0.17135474587E+04  0.17144027587E+04  0.00000000000E+00 0.  1.
         21    1    1    2  505  503 -0.12408785072E+03  0.54577473595E+02 -0.56294080767E+03  0.57903268324E+03  0.00000000000E+00 0.  1.
          2    1    1    2  501    0 -0.10150703956E+03  0.20384154001E+03 -0.21392664360E+04  0.21513521182E+04  0.00000000000E+00 0. -1.
<scales pt_clust_3="14000.00000" pt_clust_4="54.14726" pt_clust_5="131.17847" pt_clust_6="288.47876"></scales>
<clustering>
<clus scale="   54.147">  2  4  1 -1</clus>
<clus scale="  131.178">  2  5  1 -1</clus>
<clus scale="  288.479">  2  6  1 -1</clus>
<clus scale="  288.479">  1  3  2 -1</clus>
</clustering>
</event>
<event>
 6    0  0.1631680E+002  0.1289942E+03  0.7546771E-02  0.1228956E+00
         21   -1    0    0  503  502  0.00000000000E+00  0.00000000000E+00  0.22092534118E+03  0.22092534118E+03  0.00000000000E+00 0. -1.
         -1   -1    0    0    0  501 -0.00000000000E+00 -0.00000000000E+00 -0.35415012063E+03  0.35415012063E+03  0.00000000000E+00 0. -1.
         21    1    1    2  503  501 -0.28454088904E+02 -0.15910634207E+02  0.11289882211E+03  0.11751139302E+03  0.00000000000E+00 0. -1.
         21    1    1    2  504  502 -0.86607896501E+02 -0.19072702424E+02  0.71145771782E+02  0.11369439985E+03  0.00000000000E+00 0. -1.
         21    1    1    2  505  504  0.28431322071E+02  0.33616681669E+02 -0.80623097730E+02  0.91861337073E+02  0.00000000000E+00 0. -1.
         -1    1    1    2    0  505  0.86630663333E+02  0.13666549616E+01 -0.23664627561E+03  0.25200833187E+03  0.00000000000E+00 0. -1.
<scales pt_clust_3="32.60036" pt_clust_4="116.25876" pt_clust_5="39.57800" pt_clust_6="39.57800"></scales>
<clustering>
<clus scale="   32.600">  1  3  2 -1</clus>
<clus scale="   39.578">  5  6 -1 -1</clus>
<clus scale="  116.259">  1  4  2 -1</clus>
<clus scale="   32.600">  1  3  2 -1</clus>
</clustering>
</event>
<event>
 6    0  0.1631680E+002  0.1119404E+03  0.7546771E-02  0.1257018E+00
          2   -1    0    0  504    0 -0.00000000000E+00  0.00000000000E+00  0.31158660690E+04  0.31158660690E+04  0.00000000000E+00 0.  1.
         21   -1    0    0  505  502  0.00000000000E+00 -0.00000000000E+00 -0.34846250563E+03  0.34846250563E+03  0.00000000000E+00 0. -1.
         21    1    1    2  503  502 -0.99131869397E+01  0.29065689336E+02 -0.29044736661E+02  0.42269164879E+02  0.00000000000E+00 0. -1.
         21    1    1    2  504  503  0.11539051457E+03 -0.11824557761E+03  0.85096210805E+03  0.86685263847E+03  0.00000000000E+00 0. -1.
         21    1    1    2  505  501 -0.93966149417E+02  0.12007594776E+02 -0.29680634043E+03  0.31155709475E+03  0.00000000000E+00 0. -1.
          2    1    1    2  501    0 -0.11511178213E+02  0.77172293496E+02  0.22422925324E+04  0.22436496765E+04  0.00000000000E+00 0.  1.
<scales pt_clust_3="30.70970" pt_clust_4="111.94038" pt_clust_5="14000.00000" pt_clust_6="78.09162"></scales>
<clustering>
<clus scale="   30.710">  2  3  1 -1</clus>
<clus scale="   78.092">  1  6  2 -1</clus>
<clus scale="  111.940">  1  4  2 -1</clus>
<clus scale="   30.710">  2  3  1 -1</clus>
</clustering>
</event>
<event>
 6    0  0.1631680E+002  0.1109599E+03  0.7546771E-02  0.1258803E+00
          2   -1    0    0  504    0 -0.00000000000E+00  0.00000000000E+00  0.34643632123E+04  0.34643632123E+04  0.00000000000E+00 0.  1.
         21   -1    0    0  501  502  0.00000000000E+00 -0.00000000000E+00 -0.19430300388E+02  0.19430300388E+02  0.00000000000E+00 0. -1.
         21    1    1    2  503  502 -0.33969689235E+02  0.66069435873E+02  0.21250016322E+03  0.22511203769E+03  0.00000000000E+00 0. -1.
         21    1    1    2  504  505  0.35902376064E+02 -0.18965065264E+02  0.44150681117E+03  0.44336995682E+03  0.00000000000E+00 0.  1.
         21    1    1    2  505  503 -0.80519711132E+02 -0.17220037091E+02  0.13551213692E+03  0.15856699786E+03  0.00000000000E+00 0. -1.
          2    1    1    2  501    0  0.78587024303E+02 -0.29884333517E+02  0.26554138006E+04  0.26567445203E+04  0.00000000000E+00 0.  1.
<scales pt_clust_3="71.90055" pt_clust_4="40.60362" pt_clust_5="14000.00000" pt_clust_6="110.95987"></scales>
<clustering>
<clus scale="   40.604">  1  4  2 -1</clus>
<clus scale="   71.901">  2  3  1 -1</clus>
<clus scale="  110.960">  1  6  2 -1</clus>
<clus scale="   71.901">  2  3  1 -1</clus>
</clustering>
</event>
<event>
 6    0  0.1631680E+002  0.1054526E+03  0.7546771E-02  0.1269231E+00
         21   -1    0    0  503  502  0.00000000000E+00  0.00000000000E+00  0.13740123028E+03  0.13740123028E+03  0.00000000000E+00 0. -1.
          2   -1    0    0  505    0 -0.00000000000E+00 -0.00000000000E+00 -0.31612566682E+04  0.31612566682E+04  0.00000000000E+00 0. -1.
         21    1    1    2  503  501  0.76269790799E+02 -0.13387148858E+03 -0.14821738764E+03  0.21379207292E+03  0.00000000000E+00 0. -1.
         21    1    1    2  504  502 -0.29730348669E+01  0.10077101044E+03  0.76790548120E+02  0.12672972722E+03  0.00000000000E+00 0. -1.
         21    1    1    2  505  504  0.22257681974E+02 -0.22437731527E+02 -0.13942674243E+03  0.14296388602E+03  0.00000000000E+00 0.  1.
          2    1    1    2  501    0 -0.95554437906E+02  0.55538209668E+02 -0.28130018560E+04  0.28151722123E+04  0.00000000000E+00 0. -1.
<scales pt_clust_3="14000.00000" pt_clust_4="105.45257" pt_clust_5="31.60469" pt_clust_6="82.44114"></scales>
<clustering>
<clus scale="   31.605">  2  5  1 -1</clus>
<clus scale="   82.441">  2  6  1 -1</clus>
<clus scale="  105.453">  1  4  2 -1</clus>
<clus scale="  105.453">  1  3  2 -1</clus>
</clustering>
</event>
<event>
 6    0  0.1631680E+002  0.8069314E+02  0.7546771E-02  0.1327096E+00
          1   -1    0    0  504    0 -0.00000000000E+00  0.00000000000E+00  0.52672789664E+03  0.52672789664E+03  0.00000000000E+00 0. -1.
         21   -1    0    0  505  502  0.00000000000E+00 -0.00000000000E+00 -0.10437296598E+03  0.10437296598E+03  0.00000000000E+00 0.  1.
         21    1    1    2  503  501 -0.14093663893E+02 -0.53314592999E+02  0.55573291466E+02  0.78290918458E+02  0.00000000000E+00 0. -1.
         21    1    1    2  504  502 -0.37303847014E+02  0.23661209817E+02  0.95098313607E+01  0.45187019647E+02  0.00000000000E+00 0.  1.
         21    1    1    2  505  503  0.35388239975E+02 -0.61270807008E+02 -0.52164635470E+02  0.87906703462E+02  0.00000000000E+00 0.  1.
          1    1    1    2  501    0  0.16009270932E+02  0.90924190189E+02  0.40943644330E+03  0.41971622106E+03  0.00000000000E+00 0. -1.
<scales pt_clust_3="14000.00000" pt_clust_4="44.17499" pt_clust_5="42.44023" pt_clust_6="80.69314"></scales>
<clustering>
<clus scale="   44.175">  2  4  1 -1</clus>
<clus scale="   42.440">  2  5  1 -1</clus>
<clus scale="   80.693">  1  6  2 -1</clus>
<clus scale="   44.175">  2  3  1 -1</clus>
</clustering>
</event>
<event>
 6    0  0.1631680E+002  0.8502319E+02  0.7546771E-02  0.1315372E+00
         21   -1    0    0  504  502  0.00000000000E+00  0.00000000000E+00  0.14515166102E+04  0.14515166102E+04  0.00000000000E+00 0.  1.
          2   -1    0    0  505    0 -0.00000000000E+00 -0.00000000000E+00 -0.12056039971E+03  0.12056039971E+03  0.00000000000E+00 0.  1.
         21    1    1    2  503  502 -0.29043181246E+02 -0.19259748591E+02  0.14396342503E+03  0.14812127476E+03  0.00000000000E+00 0.  1.
         21    1    1    2  504  501  0.55984420681E+02  0.98680614215E+02  0.12540174650E+04  0.12591393574E+04  0.00000000000E+00 0.  1.
         21    1    1    2  505  503 -0.32106291544E+02  0.15374315717E+02  0.15689728163E+02  0.38901813715E+02  0.00000000000E+00 0.  1.
          2    1    1    2  501    0  0.51650521090E+01 -0.94795181341E+02 -0.82714407726E+02  0.12591456395E+03  0.00000000000E+00 0.  1.
<scales pt_clust_3="34.84888" pt_clust_4="14000.00000" pt_clust_5="35.97674" pt_clust_6="85.02319"></scales>
<clustering>
<clus scale="   34.849">  1  3  2 -1</clus>
<clus scale="   35.977">  2  5  1 -1</clus>
<clus scale="   85.023">  2  6  1 -1</clus>
<clus scale="   34.849">  1  3  2 -1</clus>
</clustering>
</event>
<event>
 6    0  0.1631680E+002  0.2726297E+03  0.7546771E-02  0.1099784E+00
          2   -1    0    0  505    0 -0.00000000000E+00  0.00000000000E+00  0.87695367168E+02  0.87695367168E+02  0.00000000000E+00 0. -1.
         21   -1    0    0  501  502  0.00000000000E+00 -0.00000000000E+00 -0.45672908930E+04  0.45672908930E+04  0.00000000000E+00 0.  1.
         21    1    1    2  503  502  0.14465268099E+03 -0.80166261631E+02 -0.20660143264E+04  0.20726230300E+04  0.00000000000E+00 0. -1.
         21    1    1    2  504  503  0.35330172542E+02 -0.88181302262E+02 -0.15016870139E+04  0.15046886890E+04  0.00000000000E+00 0.  1.
         21    1    1    2  505  504  0.82585291154E+02 -0.20299926474E+02  0.23294117427E+02  0.88176148910E+02  0.00000000000E+00 0. -1.
          2    1    1    2  501    0 -0.26256814468E+03  0.18864749037E+03 -0.93518830289E+03  0.98949839216E+03  0.00000000000E+00 0. -1.
<scales pt_clust_3="67.49746" pt_clust_4="67.49746" pt_clust_5="85.04362" pt_clust_6="257.67303"></scales>
<clustering>
<clus scale="   67.497">  3  4 -1 -1</clus>
<clus scale="   85.044">  1  5  2 -1</clus>
<clus scale="  257.673">  1  6  2 -1</clus>
<clus scale="  272.630">  2  3  1 -1</clus>
</clustering>
</event>
<event>
 6    0  0.1631680E+002  0.8403558E+02  0.7546771E-02  0.1317974E+00
          3   -1    0    0  505    0 -0.00000000000E+00  0.00000000000E+00  0.46430059510E+03  0.46430059510E+03  0.00000000000E+00 0.  1.
         21   -1    0    0  504  502  0.00000000000E+00 -0.00000000000E+00 -0.68881538050E+02  0.68881538050E+02  0.00000000000E+00 0. -1.
         21    1    1    2  503  501  0.39951581086E+02  0.58130716480E+02  0.95622236747E+02  0.11882306674E+03  0.00000000000E+00 0. -1.
         21    1    1    2  504  503 -0.91475167637E+02 -0.26150347565E+02 -0.37460593239E+01  0.95213339047E+02  0.00000000000E+00 0. -1.
         21    1    1    2  505  502  0.36981717866E+02  0.18132620052E+02  0.18656573962E+03  0.19105814446E+03  0.00000000000E+00 0.  1.
          3    1    1    2  501    0  0.14541868685E+02 -0.50112988966E+02  0.11697714001E+03  0.12808758290E+03  0.00000000000E+00 0.  1.
<scales pt_clust_3="14000.00000" pt_clust_4="84.03558" pt_clust_5="41.18785" pt_clust_6="52.23456"></scales>
<clustering>
<clus scale="   41.188">  1  5  2 -1</clus>
<clus scale="   52.235">  1  6  2 -1</clus>
<clus scale="   84.036">  2  4  1 -1</clus>
<clus scale="   84.036">  2  3  1 -1</clus>
</clustering>
</event>
<event>
 6    0  0.1631680E+002  0.1212447E+03  0.7546771E-02  0.1241058E+00
         21   -1    0    0  504  502  0.00000000000E+00  0.00000000000E+00  0.58115277581E+03  0.58115277581E+03  0.00000000000E+00 0.  1.
          1   -1    0    0  505    0 -0.00000000000E+00 -0.00000000000E+00 -0.49754687677E+03  0.49754687677E+03  0.00000000000E+00 0.  1.
         21    1    1    2  503  502 -0.84455994671E+02  0.14253946793E+03  0.34247770246E+03  0.38044880291E+03  0.00000000000E+00 0.  1.
         21    1    1    2  504  501  0.18939086858E+02 -0.95997478554E+02  0.20247514424E+03  0.22487860933E+03  0.00000000000E+00 0.  1.
         21    1    1    2  505  503  0.24654341115E+02 -0.32514972331E+02 -0.82191155054E+02  0.91762987803E+02  0.00000000000E+00 0.  1.
          1    1    1    2  501    0  0.40862566697E+02 -0.14027017043E+02 -0.37915579259E+03  0.38160925254E+03  0.00000000000E+00 0.  1.
<scales pt_clust_3="14000.00000" pt_clust_4="121.24468" pt_clust_5="40.80515" pt_clust_6="77.50847"></scales>
<clustering>
<clus scale="   40.805">  2  5  1 -1</clus>
<clus scale="   77.508">  2  6  1 -1</clus>
<clus scale="  121.245">  1  4  2 -1</clus>
<clus scale="  121.245">  1  3  2 -1</clus>
</clustering>
</event>
<event>
 6    0  0.1631680E+002  0.1067894E+03  0.7546771E-02  0.1266634E+00
         21   -1    0    0  505  502  0.00000000000E+00  0.00000000000E+00  0.61351291046E+03  0.61351291046E+03  0.00000000000E+00 0.  1.
          2   -1    0    0  503    0 -0.00000000000E+00 -0.00000000000E+00 -0.33228349036E+03  0.33228349036E+03  0.00000000000E+00 0.  1.
         21    1    1    2  503  502  0.85164235314E+02  0.47728614782E+02 -0.35489544115E+02  0.10387721303E+03  0.00000000000E+00 0.  1.
         21    1    1    2  504  501  0.32957042810E+01 -0.50307721852E+02 -0.10396707258E+03  0.11554601129E+03  0.00000000000E+00 0. -1.
         21    1    1    2  505  504 -0.10413963286E+03 -0.27345832410E+02  0.56652831772E+03  0.57666904934E+03  0.00000000000E+00 0.  1.
          2    1    1    2  501    0  0.15679693269E+02  0.29924939480E+02 -0.14584228093E+03  0.14970412716E+03  0.00000000000E+00 0.  1.
<scales pt_clust_3="14000.00000" pt_clust_4="34.87156" pt_clust_5="106.78938" pt_clust_6="33.78394"></scales>
<clustering>
<clus scale="   33.784">  2  6  1 -1</clus>
<clus scale="   34.872">  2  4  1 -1</clus>
<clus scale="  106.789">  1  5  2 -1</clus>
<clus scale="  106.789">  1  3  2 -1</clus>
</clustering>
</event>
<event>
 6    0  0.1631680E+002  0.9063483E+02  0.7546771E-02  0.1301322E+00
         21   -1    0    0  505  502  0.00000000000E+00  0.00000000000E+00  0.44108607976E+03  0.44108607976E+03  0.00000000000E+00 0.  1.
          2   -1    0    0  504    0 -0.00000000000E+00 -0.00000000000E+00 -0.20081840564E+04  0.20081840564E+04  0.00000000000E+00 0. -1.
         21    1    1    2  503  502 -0.91309893473E+01 -0.53538084605E+02  0.17900717950E+03  0.18706488655E+03  0.00000000000E+00 0.  1.
         21    1    1    2  504  503 -0.26641292170E+02  0.22535524841E+02 -0.24250103155E+03  0.24499869108E+03  0.00000000000E+00 0.  1.
         21    1    1    2  505  501 -0.80328047093E+02  0.38843387018E+02  0.24706039865E+03  0.26267897602E+03  0.00000000000E+00 0.  1.
          2    1    1    2  501    0  0.11610032861E+03 -0.78408272540E+01 -0.17506645232E+04  0.17545275825E+04  0.00000000000E+00 0. -1.
<scales pt_clust_3="54.27070" pt_clust_4="34.89424" pt_clust_5="90.63483" pt_clust_6="14000.00000"></scales>
<clustering>
<clus scale="   34.894">  2  4  1 -1</clus>
<clus scale="   54.271">  1  3  2 -1</clus>
<clus scale="   90.635">  1  5  2 -1</clus>
<clus scale="   54.271">  1  3  2 -1</clus>
</clustering>
</event>
<event>
 6    0  0.1631680E+002  0.7895681E+02  0.7546771E-02  0.1332038E+00
         21   -1    0    0  504  502  0.00000000000E+00  0.00000000000E+00  0.11977404214E+03  0.11977404214E+03  0.00000000000E+00 0. -1.
          2   -1    0    0  505    0 -0.00000000000E+00 -0.00000000000E+00 -0.15897805878E+04  0.15897805878E+04  0.00000000000E+00 0.  1.
         21    1    1    2  503  502  0.48890235592E+02 -0.35645054021E+02 -0.19862393452E+03  0.20763499796E+03  0.00000000000E+00 0. -1.
         21    1    1    2  504  501  0.41322996324E+02 -0.67030174280E+02  0.95542198253E+02  0.12381012049E+03  0.00000000000E+00 0. -1.
         21    1    1    2  505  503 -0.18929774609E+02  0.31284012195E+02 -0.89139238737E+02  0.96347442459E+02  0.00000000000E+00 0.  1.
          2    1    1    2  501    0 -0.71283457307E+02  0.71391216105E+02 -0.12777855706E+04  0.12817620690E+04  0.00000000000E+00 0.  1.
<scales pt_clust_3="55.96135" pt_clust_4="14000.00000" pt_clust_5="36.56536" pt_clust_6="78.95681"></scales>
<clustering>
<clus scale="   36.565">  2  5  1 -1</clus>
<clus scale="   55.961">  2  3  1 -1</clus>
<clus scale="   78.957">  2  6  1 -1</clus>
<clus scale="   78.957">  1  3  2 -1</clus>
</clustering>
</event>
<event>
 6    0  0.1631680E+002  0.1909495E+03  0.7546771E-02  0.1157608E+00
         21   -1    0    0  505  502  0.00000000000E+00  0.00000000000E+00  0.34088838335E+03  0.34088838335E+03  0.00000000000E+00 0. -1.
          2   -1    0    0  503    0 -0.00000000000E+00 -0.00000000000E+00 -0.14111105632E+04  0.14111105632E+04  0.00000000000E+00 0.  1.
         21    1    1    2  503  502 -0.41996144824E+02  0.30182200854E+02 -0.17267319479E+03  0.18025169521E+03  0.00000000000E+00 0.  1.
         21    1    1    2  504  501  0.19166011260E+03 -0.44446279062E+02 -0.23975294710E+03  0.31014600776E+03  0.00000000000E+00 0.  1.
         21    1    1    2  505  504 -0.17358487856E+03  0.78950393203E+02  0.27038198033E+03  0.33086445857E+03  0.00000000000E+00 0. -1.
          2    1    1    2  501    0  0.23920910784E+02 -0.64686314995E+02 -0.92817801828E+03  0.93073678499E+03  0.00000000000E+00 0.  1.
<scales pt_clust_3="51.71694" pt_clust_4="14000.00000" pt_clust_5="190.94951" pt_clust_6="42.66435"></scales>
<clustering>
<clus scale="   51.717">  2  3  1 -1</clus>
<clus scale="   42.664">  2  6  1 -1</clus>
<clus scale="  190.950">  1  5  2 -1</clus>
<clus scale="  190.950">  1  3  2 -1</clus>
</clustering>
</event>
<event>
 6    0  0.1631680E+002  0.8504444E+02  0.7546771E-02  0.1315316E+00
          2   -1    0    0  503    0 -0.00000000000E+00  0.00000000000E+00  0.18117994871E+04  0.18117994871E+04  0.00000000000E+00 0. -1.
         21   -1    0    0  505  502  0.00000000000E+00 -0.00000000000E+00 -0.64821992613E+03  0.64821992613E+03  0.00000000000E+00 0.  1.
         21    1    1    2  503  504 -0.32949685970E+02 -0.12053193980E+02  0.31364530721E+02  0.47060546937E+02  0.00000000000E+00 0. -1.
         21    1    1    2  504  502 -0.13929612688E+02 -0.56411427738E+02 -0.89339709193E+02  0.10657329369E+03  0.00000000000E+00 0.  1.
         21    1    1    2  505  501 -0.16625433238E+02  0.10073455873E+03 -0.53688353999E+03  0.54650507030E+03  0.00000000000E+00 0.  1.
          2    1    1    2  501    0  0.63504731896E+02 -0.32269937014E+02  0.17584382794E+04  0.17598805023E+04  0.00000000000E+00 0. -1.
<scales pt_clust_3="35.08506" pt_clust_4="85.04444" pt_clust_5="14000.00000" pt_clust_6="53.90158"></scales>
<clustering>
<clus scale="   35.085">  1  3  2 -1</clus>
<clus scale="   53.902">  1  6  2 -1</clus>
<clus scale="   85.044">  1  4  2 -1</clus>
<clus scale="   85.044">  2  3  1 -1</clus>
</clustering>
</event>
<event>
 6    0  0.1631680E+002  0.1244163E+03  0.7546771E-02  0.1235984E+00
          1   -1    0    0  503    0 -0.00000000000E+00  0.00000000000E+00  0.38414356188E+03  0.38414356188E+03  0.00000000000E+00 0. -1.
         21   -1    0    0  504  502  0.00000000000E+00 -0.00000000000E+00 -0.52156913353E+03  0.52156913353E+03  0.00000000000E+00 0. -1.
         21    1    1    2  503  505 -0.91610034975E+02 -0.64914529094E+02 -0.95664672809E+02  0.14750601418E+03  0.00000000000E+00 0. -1.
         21    1    1    2  504  501  0.48078910956E+02 -0.12591516408E+02  0.14739069406E+03  0.15554467095E+03  0.00000000000E+00 0.  1.
         21    1    1    2  505  502 -0.19789174407E+02  0.36820216451E+02 -0.38789684297E+03  0.39014266692E+03  0.00000000000E+00 0. -1.
          1    1    1    2  501    0  0.63320298425E+02  0.40685829051E+02  0.19874525007E+03  0.21251934336E+03  0.00000000000E+00 0. -1.
<scales pt_clust_3="114.09410" pt_clust_4="40.32029" pt_clust_5="41.80119" pt_clust_6="40.32029"></scales>
<clustering>
<clus scale="   40.320">  4  6 -1 -1</clus>
<clus scale="   41.801">  2  5  1 -1</clus>
<clus scale="  114.094">  2  3  1 -1</clus>
<clus scale="   41.801">  2  3  1 -1</clus>
</clustering>
</event>
<event>
 6    0  0.1631680E+002  0.6875145E+02  0.7546771E-02  0.1364391E+00
          2   -1    0    0  505    0 -0.00000000000E+00  0.00000000000E+00  0.19487122029E+03  0.19487122029E+03  0.00000000000E+00 0. -1.
         21   -1    0    0  504  502  0.00000000000E+00 -0.00000000000E+00 -0.83307238734E+03  0.83307238734E+03  0.00000000000E+00 0.  1.
         21    1    1    2  503  501  0.74084111462E+02 -0.21992728990E+02 -0.14325065865E+03  0.16276635680E+03  0.00000000000E+00 0.  1.
         21    1    1    2  504  503 -0.33726346567E+02 -0.36089635189E+02 -0.64029688062E+03  0.64219936434E+03  0.00000000000E+00 0.  1.
         21    1    1    2  505  502  0.27321835719E+02  0.48317316211E+02 -0.70406124282E+01  0.55951907709E+02  0.00000000000E+00 0.  1.
          2    1    1    2  501    0 -0.67679600615E+02  0.97650479670E+01  0.15238698465E+03  0.16702597879E+03  0.00000000000E+00 0. -1.
<scales pt_clust_3="14000.00000" pt_clust_4="49.39563" pt_clust_5="47.66133" pt_clust_6="68.75145"></scales>
<clustering>
<clus scale="   49.396">  2  4  1 -1</clus>
<clus scale="   47.661">  2  5  1 -1</clus>
<clus scale="   68.751">  1  6  2 -1</clus>
<clus scale="   49.396">  2  3  1 -1</clus>
</clustering>
</event>
<event>
 6    0  0.1631680E+002  0.6594914E+02  0.7546771E-02  0.1374436E+00
          2   -1    0    0  503    0 -0.00000000000E+00  0.00000000000E+00  0.22670233939E+04  0.22670233939E+04  0.00000000000E+00 0. -1.
         21   -1    0    0  504  502  0.00000000000E+00 -0.00000000000E+00 -0.25801796936E+02  0.25801796936E+02  0.00000000000E+00 0. -1.
         21    1    1    2  503  505 -0.36989491694E+02 -0.53587781192E+02  0.18566075743E+04  0.18577490568E+04  0.00000000000E+00 0. -1.
         21    1    1    2  504  501 -0.33567355441E+01 -0.34387585770E+02  0.53290404939E+02  0.63510951710E+02  0.00000000000E+00 0. -1.
         21    1    1    2  505  502 -0.38230603090E+02  0.76027407892E+02  0.13284417405E+03  0.15776349496E+03  0.00000000000E+00 0. -1.
          2    1    1    2  501    0  0.78576830328E+02  0.11947959071E+02  0.19847944359E+03  0.21380168736E+03  0.00000000000E+00 0. -1.
<scales pt_clust_3="65.94914" pt_clust_4="34.55103" pt_clust_5="64.43182" pt_clust_6="14000.00000"></scales>
<clustering>
<clus scale="   34.551">  2  4  1 -1</clus>
<clus scale="   65.949">  1  3  2 -1</clus>
<clus scale="   64.432">  2  5  1 -1</clus>
<clus scale="   34.551">  2  3  1 -1</clus>
</clustering>
</event>
<event>
 6    0  0.1631680E+002  0.1923321E+03  0.7546771E-02  0.1156375E+00
         21   -1    0    0  504  502  0.00000000000E+00  0.00000000000E+00  0.13243815780E+03  0.13243815780E+03  0.00000000000E+00 0. -1.
          2   -1    0    0  505    0 -0.00000000000E+00 -0.00000000000E+00 -0.76288199668E+03  0.76288199668E+03  0.00000000000E+00 0. -1.
         21    1    1    2  503  501  0.52865313997E+02 -0.24622010179E+02 -0.96224082832E+02  0.11251692729E+03  0.00000000000E+00 0.  1.
         21    1    1    2  504  503  0.57999001681E+02 -0.72027496552E+02 -0.11724167180E+02  0.93216417822E+02  0.00000000000E+00 0. -1.
         21    1    1    2  505  502 -0.21908171609E+03  0.12511220110E+03 -0.13475399569E+03  0.28602185326E+03  0.00000000000E+00 0. -1.
          2    1    1    2  501    0  0.10821740041E+03 -0.28462694365E+02 -0.38774159318E+03  0.40356495611E+03  0.00000000000E+00 0. -1.
<scales pt_clust_3="41.79740" pt_clust_4="92.47618" pt_clust_5="183.41083" pt_clust_6="41.79740"></scales>
<clustering>
<clus scale="   41.797">  3  6 -1 -1</clus>
<clus scale="   92.476">  1  4  2 -1</clus>
<clus scale="  183.411">  1  5  2 -1</clus>
<clus scale="   92.476">  1  3  2 -1</clus>
</clustering>
</event>
<event>
 6    0  0.1631680E+002  0.7489860E+02  0.7546771E-02  0.1344185E+00
         21   -1    0    0  503  502  0.00000000000E+00  0.00000000000E+00  0.20038452859E+03  0.20038452859E+03  0.00000000000E+00 0.  1.
         -2   -1    0    0    0  501 -0.00000000000E+00 -0.00000000000E+00 -0.10962472452E+04  0.10962472452E+04  0.00000000000E+00 0. -1.
         21    1    1    2  503  504 -0.53418735486E+02 -0.51827038642E+02  0.14856921551E+03  0.16616983792E+03  0.00000000000E+00 0.  1.
         21    1    1    2  504  501  0.36256530876E+02  0.13653971514E+02 -0.24557698725E+03  0.24861420643E+03  0.00000000000E+00 0.  1.
         21    1    1    2  505  502  0.85457344020E+02  0.20181167244E+02 -0.83610156820E+01  0.88205123103E+02  0.00000000000E+00 0.  1.
         -2    1    1    2    0  505 -0.68295139410E+02  0.17991899885E+02 -0.79049392917E+03  0.79364260633E+03  0.00000000000E+00 0. -1.
<scales pt_clust_3="14000.00000" pt_clust_4="38.74231" pt_clust_5="74.89860" pt_clust_6="46.18223"></scales>
<clustering>
<clus scale="   38.742">  2  4  1 -1</clus>
<clus scale="   46.182">  2  6  1 -1</clus>
<clus scale="   74.899">  2  5  1 -1</clus>
<clus scale="   74.899">  1  3  2 -1</clus>
</clustering>
</event>
<event>
 6    0  0.1631680E+002  0.9685229E+02  0.7546771E-02  0.1287058E+00
         21   -1    0    0  504  502  0.00000000000E+00  0.00000000000E+00  0.18793941525E+03  0.18793941525E+03  0.00000000000E+00 0.  1.
         -2   -1    0    0    0  501 -0.00000000000E+00 -0.00000000000E+00 -0.14422124749E+03  0.14422124749E+03  0.00000000000E+00 0.  1.
         21    1    1    2  503  502 -0.17788755869E+02  0.27314469578E+02  0.55556011482E+02  0.64412657883E+02  0.00000000000E+00 0.  1.
         21    1    1    2  504  505  0.61086708348E+02 -0.52216572953E+01 -0.19199954358E+01  0.61339530681E+02  0.00000000000E+00 0.  1.
         21    1    1    2  505  501 -0.66210449470E+02  0.74770938209E+02  0.21245735278E+02  0.10210728714E+03  0.00000000000E+00 0.  1.
         -2    1    1    2    0  503  0.22912496991E+02 -0.96863750492E+02 -0.31163583559E+02  0.10430118704E+03  0.00000000000E+00 0.  1.
<scales pt_clust_3="32.59632" pt_clust_4="56.96737" pt_clust_5="96.85229" pt_clust_6="14000.00000"></scales>
<clustering>
<clus scale="   32.596">  1  3  2 -1</clus>
<clus scale="   56.967">  1  4  2 -1</clus>
<clus scale="   96.852">  1  5  2 -1</clus>
<clus scale="   32.596">  1  3  2 -1</clus>
</clustering>
</event>
<event>
 6    0  0.1631680E+002  0.7575119E+02  0.7546771E-02  0.1341561E+00
          1   -1    0    0  504    0 -0.00000000000E+00  0.00000000000E+00  0.26635177779E+04  0.26635177779E+04  0.00000000000E+00 0.  1.
         21   -1    0    0  505  502  0.00000000000E+00 -0.00000000000E+00 -0.13846264079E+02  0.13846264079E+02  0.00000000000E+00 0.  1.
         21    1    1    2  503  502  0.50368513812E+02  0.28028852499E+02  0.90230708990E+02  0.10707093257E+03  0.00000000000E+00 0.  1.
         21    1    1    2  504  503  0.67300752730E+02 -0.48010301626E+02  0.12146847607E+04  0.12174947426E+04  0.00000000000E+00 0.  1.
         21    1    1    2  505  501 -0.74565265225E+02  0.40898871810E+02  0.54373546202E+03  0.55034620844E+03  0.00000000000E+00 0.  1.
          1    1    1    2  501    0 -0.43104001317E+02 -0.20917422683E+02  0.80102058213E+03  0.80245215838E+03  0.00000000000E+00 0.  1.
<scales pt_clust_3="55.10750" pt_clust_4="75.75119" pt_clust_5="14000.00000" pt_clust_6="47.91131"></scales>
<clustering>
<clus scale="   47.911">  1  6  2 -1</clus>
<clus scale="   55.108">  2  3  1 -1</clus>
<clus scale="   75.751">  1  4  2 -1</clus>
<clus scale="   55.108">  2  3  1 -1</clus>
</clustering>
</event>
<event>
 6    0  0.1631680E+002  0.1507203E+03  0.7546771E-02  0.1199591E+00
          2   -1    0    0  504    0 -0.00000000000E+00  0.00000000000E+00  0.10396062932E+04  0.10396062932E+04  0.00000000000E+00 0. -1.
         21   -1    0    0  503  502  0.00000000000E+00 -0.00000000000E+00 -0.59913518655E+02  0.59913518655E+02  0.00000000000E+00 0. -1.
         21    1    1    2  503  501 -0.42488427924E+02 -0.18685420053E+02 -0.19386861044E+02  0.50301707835E+02  0.00000000000E+00 0. -1.
         21    1    1    2  504  505  0.38278882266E+02 -0.95936768292E+02  0.18602395004E+03  0.21277698730E+03  0.00000000000E+00 0. -1.
         21    1    1    2  505  502  0.48381057674E+02 -0.14064259781E+02  0.11985317266E+03  0.13001274223E+03  0.00000000000E+00 0. -1.
          2    1    1    2  501    0 -0.44171512015E+02  0.12868644813E+03  0.69320251285E+03  0.70642837445E+03  0.00000000000E+00 0. -1.
<scales pt_clust_3="46.41564" pt_clust_4="45.97782" pt_clust_5="45.97782" pt_clust_6="135.58315"></scales>
<clustering>
<clus scale="   45.978">  4  5 -1 -1</clus>
<clus scale="   46.416">  2  3  1 -1</clus>
<clus scale="  135.583">  1  6  2 -1</clus>
<clus scale="   46.416">  2  3  1 -1</clus>
</clustering>
</event>
<event>
 6    0  0.1631680E+002  0.1399191E+03  0.7546771E-02  0.1213438E+00
          4   -1    0    0  503    0 -0.00000000000E+00  0.00000000000E+00  0.23704774240E+04  0.23704774240E+04  0.00000000000E+00 0. -1.
         21   -1    0    0  505  502  0.00000000000E+00 -0.00000000000E+00 -0.12751693706E+03  0.12751693706E+03  0.00000000000E+00 0.  1.
         21    1    1    2  503  504 -0.82446639170E+02  0.78995205265E+02  0.65555378946E+03  0.66542352051E+03  0.00000000000E+00 0.  1.
         21    1    1    2  504  502 -0.69063988401E+02 -0.40616968282E+02 -0.10521067032E+03  0.13224544512E+03  0.00000000000E+00 0.  1.
         21    1    1    2  505  501  0.61651961483E+02 -0.21113037834E+01  0.50315681829E+03  0.50692426037E+03  0.00000000000E+00 0. -1.
          4    1    1    2  501    0  0.89858666088E+02 -0.36266933199E+02  0.11894605496E+04  0.11934011351E+04  0.00000000000E+00 0. -1.
<scales pt_clust_3="133.61442" pt_clust_4="80.12224" pt_clust_5="33.13386" pt_clust_6="33.13386"></scales>
<clustering>
<clus scale="   33.134">  5  6 -1 -1</clus>
<clus scale="   80.122">  2  4  1 -1</clus>
<clus scale="  133.614">  2  3  1 -1</clus>
<clus scale="   80.122">  2  3  1 -1</clus>
</clustering>
</event>
<event>
 6    0  0.1631680E+002  0.1248123E+03  0.7546771E-02  0.1235363E+00
          1   -1    0    0  504    0 -0.00000000000E+00  0.00000000000E+00  0.12033966044E+04  0.12033966044E+04  0.00000000000E+00 0. -1.
         21   -1    0    0  503  502  0.00000000000E+00 -0.00000000000E+00 -0.13701558231E+03  0.13701558231E+03  0.00000000000E+00 0. -1.
         21    1    1    2  503  501 -0.55866856671E+02  0.87364314173E+02 -0.43017367579E+02  0.11226808531E+03  0.00000000000E+00 0. -1.
         21    1    1    2  504  505 -0.49070815842E+02 -0.14826311084E+02  0.69659693059E+03  0.69848052813E+03  0.00000000000E+00 0. -1.
         21    1    1    2  505  502  0.17713942544E+03 -0.17689328557E+02  0.10042345875E+03  0.20439217073E+03  0.00000000000E+00 0. -1.
          1    1    1    2  501    0 -0.72201752924E+02 -0.54848674532E+02  0.31237800036E+03  0.32527140257E+03  0.00000000000E+00 0. -1.
<scales pt_clust_3="104.70871" pt_clust_4="51.26173" pt_clust_5="14000.00000" pt_clust_6="124.81230"></scales>
<clustering>
<clus scale="   51.262">  1  4  2 -1</clus>
<clus scale="  104.709">  2  3  1 -1</clus>
<clus scale="  124.812">  1  6  2 -1</clus>
<clus scale="  104.709">  2  3  1 -1</clus>
</clustering>
</event>
<event>
 6    0  0.1631680E+002  0.1716062E+03  0.7546771E-02  0.1176183E+00
          2   -1    0    0  504    0 -0.00000000000E+00  0.00000000000E+00  0.56531333066E+03  0.56531333066E+03  0.00000000000E+00 0.  1.
         21   -1    0    0  503  502  0.00000000000E+00 -0.00000000000E+00 -0.10159869921E+03  0.10159869921E+03  0.00000000000E+00 0. -1.
         21    1    1    2  503  501  0.97955517318E+01  0.30334691987E+02 -0.30709962642E+02  0.44263395455E+02  0.00000000000E+00 0. -1.
         21    1    1    2  504  505  0.58121353336E+02  0.12991347823E+02  0.68054835343E+02  0.90434105544E+02  0.00000000000E+00 0. -1.
         21    1    1    2  505  502  0.86498404523E+02  0.17759178254E+02  0.16295781348E+02  0.89793735233E+02  0.00000000000E+00 0. -1.
          2    1    1    2  501    0 -0.15441530959E+03 -0.61085218063E+02  0.41007397740E+03  0.44242079364E+03  0.00000000000E+00 0.  1.
<scales pt_clust_3="31.87705" pt_clust_4="47.17174" pt_clust_5="47.17174" pt_clust_6="161.06552"></scales>
<clustering>
<clus scale="   31.877">  2  3  1 -1</clus>
<clus scale="   47.172">  4  5 -1 -1</clus>
<clus scale="  161.066">  1  6  2 -1</clus>
<clus scale="   31.877">  2  3  1 -1</clus>
</clustering>
</event>
<event>
 6    0  0.1631680E+002  0.1081999E+03  0.7546771E-02  0.1263940E+00
         -2   -1    0    0    0  501 -0.00000000000E+00  0.00000000000E+00  0.33719778732E+04  0.33719778732E+04  0.00000000000E+00 0.  1.
         21   -1    0    0  503  502  0.00000000000E+00 -0.00000000000E+00 -0.19812613621E+03  0.19812613621E+03  0.00000000000E+00 0. -1.
         21    1    1    2  503  505  0.25818692684E+02 -0.35255617159E+02 -0.82990161841E+02  0.93791952723E+02  0.00000000000E+00 0. -1.
         21    1    1    2  504  501 -0.35637135882E+02  0.10034027443E+02  0.10184828285E+04  0.10191555127E+04  0.00000000000E+00 0.  1.
         21    1    1    2  505  504 -0.88903378531E+02 -0.52709887579E+02 -0.82899316316E+02  0.13249316816E+03  0.00000000000E+00 0. -1.
         -2    1    1    2    0  502  0.98721821729E+02  0.77931477295E+02  0.23212583867E+04  0.23246633758E+04  0.00000000000E+00 0.  1.
<scales pt_clust_3="43.63168" pt_clust_4="37.02279" pt_clust_5="108.19985" pt_clust_6="14000.00000"></scales>
<clustering>
<clus scale="   37.023">  1  4  2 -1</clus>
<clus scale="   43.632">  2  3  1 -1</clus>
<clus scale="  108.200">  2  5  1 -1</clus>
<clus scale="   43.632">  2  3  1 -1</clus>
</clustering>
</event>
<event>
 6    0  0.1631680E+002  0.1389907E+03  0.7546771E-02  0.1214693E+00
         -1   -1    0    0    0  501 -0.00000000000E+00  0.00000000000E+00  0.95249120507E+02  0.95249120507E+02  0.00000000000E+00 0. -1.
         21   -1    0    0  504  502  0.00000000000E+00 -0.00000000000E+00 -0.34225732651E+03  0.34225732651E+03  0.00000000000E+00 0. -1.
         21    1    1    2  503  502 -0.21153459618E+02  0.62427576845E+02 -0.61723964493E+02  0.90302375369E+02  0.00000000000E+00 0.  1.
         21    1    1    2  504  501 -0.10138244487E+03  0.26260306429E+02 -0.15594335921E+03  0.18784657331E+03  0.00000000000E+00 0. -1.
         21    1    1    2  505  503  0.57165891550E+02 -0.33977291251E+02 -0.32578433139E+02  0.74052344887E+02  0.00000000000E+00 0. -1.
         -1    1    1    2    0  505  0.65370012940E+02 -0.54710592023E+02  0.32375508312E+01  0.85305153459E+02  0.00000000000E+00 0. -1.
<scales pt_clust_3="65.91412" pt_clust_4="132.91007" pt_clust_5="35.91401" pt_clust_6="35.91401"></scales>
<clustering>
<clus scale="   35.914">  5  6 -1 -1</clus>
<clus scale="   65.914">  2  3  1 -1</clus>
<clus scale="  132.910">  2  4  1 -1</clus>
<clus scale="   65.914">  2  3  1 -1</clus>
</clustering>
</event>
<event>
 6    0  0.1631680E+002  0.1217726E+03  0.7546771E-02  0.1240201E+00
          2   -1    0    0  503    0 -0.00000000000E+00  0.00000000000E+00  0.93918632022E+03  0.93918632022E+03  0.00000000000E+00 0.  1.
         21   -1    0    0  505  502  0.00000000000E+00 -0.00000000000E+00 -0.14434195758E+04  0.14434195758E+04  0.00000000000E+00 0.  1.
         21    1    1    2  503  504  0.65944123391E+02 -0.95514380422E+01  0.16041251932E+03  0.17370098944E+03  0.00000000000E+00 0.  1.
         21    1    1    2  504  502  0.63293074270E+02  0.20252674640E+02  0.75848068638E+03  0.76138632487E+03  0.00000000000E+00 0.  1.
         21    1    1    2  505  501 -0.60163584902E+02 -0.62390950154E+01 -0.13305631361E+04  0.13319372517E+04  0.00000000000E+00 0.  1.
          2    1    1    2  501    0 -0.69073612760E+02 -0.44621415825E+01 -0.92563325223E+02  0.11558133008E+03  0.00000000000E+00 0.  1.
<scales pt_clust_3="63.16439" pt_clust_4="14000.00000" pt_clust_5="60.48622" pt_clust_6="121.77260"></scales>
<clustering>
<clus scale="   60.486">  2  5  1 -1</clus>
<clus scale="   63.164">  1  3  2 -1</clus>
<clus scale="  121.773">  2  6  1 -1</clus>
<clus scale="   60.486">  2  3  1 -1</clus>
</clustering>
</event>
<event>
 6    0  0.1631680E+002  0.7913465E+02  0.7546771E-02  0.1331525E+00
         21   -1    0    0  503  502  0.00000000000E+00  0.00000000000E+00  0.33539760051E+02  0.33539760051E+02  0.00000000000E+00 0.  1.
          2   -1    0    0  504    0 -0.00000000000E+00 -0.00000000000E+00 -0.66120664474E+03  0.66120664474E+03  0.00000000000E+00 0.  1.
         21    1    1    2  503  501  0.64670727543E+01  0.41562724885E+02 -0.24753588635E+02  0.48805975865E+02  0.00000000000E+00 0.  1.
         21    1    1    2  504  505 -0.27804526447E+02 -0.62080210991E+02 -0.21602466459E+03  0.22648112504E+03  0.00000000000E+00 0.  1.
         21    1    1    2  505  502  0.87781432118E+02  0.71465022578E+01 -0.15968531588E+03  0.18236242054E+03  0.00000000000E+00 0.  1.
          2    1    1    2  501    0 -0.66443978425E+02  0.13370983848E+02 -0.22720331558E+03  0.23709688334E+03  0.00000000000E+00 0.  1.
<scales pt_clust_3="42.06285" pt_clust_4="58.22411" pt_clust_5="79.13465" pt_clust_6="14000.00000"></scales>
<clustering>
<clus scale="   42.063">  1  3  2 -1</clus>
<clus scale="   58.224">  2  4  1 -1</clus>
<clus scale="   79.135">  1  5  2 -1</clus>
<clus scale="   42.063">  1  3  2 -1</clus>
</clustering>
</event>
<event>
 6    0  0.1631680E+002  0.1047566E+03  0.7546771E-02  0.1270600E+00
         21   -1    0    0  503  502  0.00000000000E+00  0.00000000000E+00  0.91340173825E+02  0.91340173825E+02  0.00000000000E+00 0.  1.
          2   -1    0    0  504    0 -0.00000000000E+00 -0.00000000000E+00 -0.20664237796E+04  0.20664237796E+04  0.00000000000E+00 0.  1.
         21    1    1    2  503  501  0.17794812124E+03  0.83543261623E+02 -0.19730482095E+03  0.27852145840E+03  0.00000000000E+00 0.  1.
         21    1    1    2  504  505 -0.64731472499E+02 -0.54969756004E+01 -0.13775519975E+03  0.15230520454E+03  0.00000000000E+00 0.  1.
         21    1    1    2  505  502 -0.40966639800E+02 -0.65190499700E+01  0.31648464281E+02  0.52176516560E+02  0.00000000000E+00 0.  1.
          2    1    1    2  501    0 -0.72250008944E+02 -0.71527236052E+02 -0.16716720493E+04  0.16747607739E+04  0.00000000000E+00 0.  1.
<scales pt_clust_3="104.75664" pt_clust_4="71.05508" pt_clust_5="41.48209" pt_clust_6="14000.00000"></scales>
<clustering>
<clus scale="   41.482">  1  5  2 -1</clus>
<clus scale="   71.055">  1  4  2 -1</clus>
<clus scale="  104.757">  1  3  2 -1</clus>
<clus scale="   41.482">  1  3  2 -1</clus>
</clustering>
</event>
<event>
 6    0  0.1631680E+002  0.9856264E+02  0.7546771E-02  0.1283348E+00
          1   -1    0    0  503    0 -0.00000000000E+00  0.00000000000E+00  0.30392286339E+03  0.30392286339E+03  0.00000000000E+00 0.  1.
         21   -1    0    0  501  502  0.00000000000E+00 -0.00000000000E+00 -0.20285143842E+03  0.20285143842E+03  0.00000000000E+00 0.  1.
         21    1    1    2  503  505 -0.40956512973E+02  0.10334048025E+02  0.81580529716E+02  0.91867357273E+02  0.00000000000E+00 0. -1.
         21    1    1    2  504  502  0.23974954776E+00  0.70208755179E+02 -0.12459770123E+03  0.14301718056E+03  0.00000000000E+00 0.  1.
         21    1    1    2  505  504  0.12316750749E+03 -0.63460432846E+02  0.12255322174E+03  0.18497771108E+03  0.00000000000E+00 0.  1.
          1    1    1    2  501    0 -0.82450744063E+02 -0.17082370359E+02  0.21535374743E+02  0.86912052898E+02  0.00000000000E+00 0.  1.
<scales pt_clust_3="42.24013" pt_clust_4="70.66280" pt_clust_5="98.56264" pt_clust_6="14000.00000"></scales>
<clustering>
<clus scale="   42.240">  1  3  2 -1</clus>
<clus scale="   70.663">  2  4  1 -1</clus>
<clus scale="   98.563">  1  5  2 -1</clus>
<clus scale="   70.663">  2  3  1 -1</clus>
</clustering>
</event>
<event>
 6    0  0.1631680E+002  0.9292441E+02  0.7546771E-02  0.1295920E+00
          4   -1    0    0  504    0 -0.00000000000E+00  0.00000000000E+00  0.37833750836E+03  0.37833750836E+03  0.00000000000E+00 0. -1.
         21   -1    0    0  505  502  0.00000000000E+00 -0.00000000000E+00 -0.86182328256E+02  0.86182328256E+02  0.00000000000E+00 0. -1.
         21    1    1    2  503  502 -0.87612808910E+02  0.34622001808E+02  0.72634344049E+01  0.94485156367E+02  0.00000000000E+00 0. -1.
         21    1    1    2  504  503 -0.33420498213E+02  0.63408406593E+01  0.51656613802E+02  0.61850963700E+02  0.00000000000E+00 0. -1.
         21    1    1    2  505  501  0.52422987774E+02  0.47962056326E+02  0.32434913279E+02  0.78106031096E+02  0.00000000000E+00 0. -1.
          4    1    1    2  501    0  0.68610319349E+02 -0.88924898794E+02  0.20080021861E+03  0.23007768545E+03  0.00000000000E+00 0. -1.
<scales pt_clust_3="92.92441" pt_clust_4="34.01670" pt_clust_5="67.71274" pt_clust_6="14000.00000"></scales>
<clustering>
<clus scale="   34.017">  1  4  2 -1</clus>
<clus scale="   67.713">  2  5  1 -1</clus>
<clus scale="   92.924">  2  3  1 -1</clus>
<clus scale="   67.713">  2  3  1 -1</clus>
</clustering>
</event>
<event>
 6    0  0.1787735E+002  0.1096607E+03  0.7546771E-02  0.1261199E+00
          2   -1    0    0  505    0 -0.00000000000E+00  0.00000000000E+00  0.55152400750E+03  0.55152400750E+03  0.00000000000E+00 0.  1.
         21   -1    0    0  504  502  0.00000000000E+00 -0.00000000000E+00 -0.73500145027E+03  0.73500145027E+03  0.00000000000E+00 0.  1.
         21    1    1    2  503  502  0.75684356802E+02  0.24192407331E+02 -0.50754542089E+01  0.79618808535E+02  0.00000000000E+00 0. -1.
         21    1    1    2  504  501 -0.10290732776E+03  0.55182776078E+02 -0.67201739278E+03  0.68208682224E+03  0.00000000000E+00 0.  1.
         21    1    1    2  505  503  0.68285279224E+01 -0.42449058162E+02  0.16829170312E+02  0.46171119824E+02  0.00000000000E+00 0. -1.
          2    1    1    2  501    0  0.20394443034E+02 -0.36926125247E+02  0.47678623390E+03  0.47864870716E+03  0.00000000000E+00 0.  1.
<scales pt_clust_3="109.66074" pt_clust_4="14000.00000" pt_clust_5="60.24567" pt_clust_6="42.18379"></scales>
<clustering>
<clus scale="   42.184">  1  6  2 -1</clus>
<clus scale="   60.246">  1  5  2 -1</clus>
<clus scale="  109.661">  1  3  2 -1</clus>
<clus scale="  109.661">  2  3  1 -1</clus>
</clustering>
</event>
<event>
 6    0  0.1631680E+002  0.7363998E+02  0.7546771E-02  0.1348135E+00
          2   -1    0    0  505    0 -0.00000000000E+00  0.00000000000E+00  0.40267459413E+04  0.40267459413E+04  0.00000000000E+00 0.  1.
         21   -1    0    0  504  502  0.00000000000E+00 -0.00000000000E+00 -0.71101351729E+01  0.71101351729E+01  0.00000000000E+00 0. -1.
         21    1    1    2  503  502 -0.47688544485E+02  0.22887132791E+02  0.29026878368E+03  0.29504912286E+03  0.00000000000E+00 0. -1.
         21    1    1    2  504  501  0.11068037431E+02  0.38852513266E+02  0.18996001434E+03  0.19420820345E+03  0.00000000000E+00 0. -1.
         21    1    1    2  505  503 -0.36598458772E+02  0.31956993823E+02  0.20058730019E+04  0.20064613618E+04  0.00000000000E+00 0.  1.
          2    1    1    2  501    0  0.73218965826E+02 -0.93696639880E+02  0.15335340062E+04  0.15381373884E+04  0.00000000000E+00 0.  1.
<scales pt_clust_3="14000.00000" pt_clust_4="40.39826" pt_clust_5="49.64968" pt_clust_6="73.63998"></scales>
<clustering>
<clus scale="   40.398">  2  4  1 -1</clus>
<clus scale="   49.650">  1  5  2 -1</clus>
<clus scale="   73.640">  1  6  2 -1</clus>
<clus scale="   40.398">  2  3  1 -1</clus>
</clustering>
</event>
<event>
 6    0  0.1631680E+002  0.1038073E+03  0.7546771E-02  0.1272488E+00
          2   -1    0    0  503    0 -0.00000000000E+00  0.00000000000E+00  0.14342249099E+04  0.14342249099E+04  0.00000000000E+00 0.  1.
         21   -1    0    0  501  502  0.00000000000E+00 -0.00000000000E+00 -0.30809385263E+03  0.30809385263E+03  0.00000000000E+00 0. -1.
         21    1    1    2  503  504  0.10006086657E+03 -0.49453002184E+02  0.34403723062E+03  0.36168963560E+03  0.00000000000E+00 0.  1.
         21    1    1    2  504  505 -0.54448707973E+02 -0.27938485775E+02 -0.54012163628E+02  0.81624350577E+02  0.00000000000E+00 0. -1.
         21    1    1    2  505  502 -0.58342569927E+02  0.14496707522E+02 -0.22656146450E+03  0.23440159383E+03  0.00000000000E+00 0. -1.
          2    1    1    2  501    0  0.12730411329E+02  0.62894780437E+02  0.10626674548E+04  0.10646031825E+04  0.00000000000E+00 0.  1.
<scales pt_clust_3="14000.00000" pt_clust_4="103.80727" pt_clust_5="60.11664" pt_clust_6="64.20744"></scales>
<clustering>
<clus scale="   60.117">  2  5  1 -1</clus>
<clus scale="   64.207">  1  6  2 -1</clus>
<clus scale="  103.807">  2  4  1 -1</clus>
<clus scale="   60.117">  2  3  1 -1</clus>
</clustering>
</event>
<event>
 6    0  0.1631680E+002  0.1567752E+03  0.7546771E-02  0.1192386E+00
         21   -1    0    0  501  502  0.00000000000E+00  0.00000000000E+00  0.19784939398E+03  0.19784939398E+03  0.00000000000E+00 0. -1.
          2   -1    0    0  505    0 -0.00000000000E+00 -0.00000000000E+00 -0.52840221089E+03  0.52840221089E+03  0.00000000000E+00 0.  1.
         21    1    1    2  503  504 -0.38125666819E+02  0.36166140717E+02 -0.58168099841E+01  0.52871461897E+02  0.00000000000E+00 0. -1.
         21    1    1    2  504  502 -0.64239783406E+02  0.65598784990E+02  0.12954624542E+03  0.15878343763E+03  0.00000000000E+00 0. -1.
         21    1    1    2  505  503 -0.18578215496E+02  0.39946022269E+02 -0.36697611490E+02  0.57337156149E+02  0.00000000000E+00 0.  1.
          2    1    1    2  501    0  0.12094366572E+03 -0.14171094798E+03 -0.41758464086E+03  0.45725954920E+03  0.00000000000E+00 0.  1.
<scales pt_clust_3="33.39229" pt_clust_4="91.81476" pt_clust_5="33.39229" pt_clust_6="152.47428"></scales>
<clustering>
<clus scale="   33.392">  3  5 -1 -1</clus>
<clus scale="   91.815">  1  4  2 -1</clus>
<clus scale="  152.474">  2  6  1 -1</clus>
<clus scale="   91.815">  1  3  2 -1</clus>
</clustering>
</event>
<event>
 6    0  0.1631680E+002  0.1061768E+03  0.7546771E-02  0.1267818E+00
          2   -1    0    0  504    0 -0.00000000000E+00  0.00000000000E+00  0.64974715833E+03  0.64974715833E+03  0.00000000000E+00 0.  1.
         21   -1    0    0  505  502  0.00000000000E+00 -0.00000000000E+00 -0.11355748377E+03  0.11355748377E+03  0.00000000000E+00 0. -1.
         21    1    1    2  503  502  0.29671726321E+02  0.77177776040E+02  0.11012224069E+02  0.83415163707E+02  0.00000000000E+00 0. -1.
         21    1    1    2  504  503 -0.18450753631E+02  0.41210964893E+02  0.39466738524E+03  0.39724188967E+03  0.00000000000E+00 0.  1.
         21    1    1    2  505  501  0.17660916355E+02 -0.16028188384E+03  0.21930654896E+02  0.16273642456E+03  0.00000000000E+00 0. -1.
          2    1    1    2  501    0 -0.28881889045E+02  0.41893142906E+02  0.10857941036E+03  0.11991116416E+03  0.00000000000E+00 0.  1.
<scales pt_clust_3="106.17683" pt_clust_4="45.15278" pt_clust_5="14000.00000" pt_clust_6="70.96783"></scales>
<clustering>
<clus scale="   45.153">  1  4  2 -1</clus>
<clus scale="   70.968">  1  6  2 -1</clus>
<clus scale="  106.177">  2  3  1 -1</clus>
<clus scale="  106.177">  2  3  1 -1</clus>
</clustering>
</event>
<event>
 6    0  0.1631680E+002  0.7928031E+02  0.7546771E-02  0.1331106E+00
          2   -1    0    0  504    0 -0.00000000000E+00  0.00000000000E+00  0.15697378484E+04  0.15697378484E+04  0.00000000000E+00 0.  1.
         21   -1    0    0  505  502  0.00000000000E+00 -0.00000000000E+00 -0.74318671021E+02  0.74318671021E+02  0.00000000000E+00 0. -1.
         21    1    1    2  503  502  0.72478712007E+02 -0.88822370113E+01 -0.18707489774E+02  0.75379227922E+02  0.00000000000E+00 0. -1.
         21    1    1    2  504  503 -0.10112814253E+03  0.18060556519E+02  0.19036903851E+03  0.21631795056E+03  0.00000000000E+00 0. -1.
         21    1    1    2  505  501 -0.20281984501E+02 -0.50860699615E+02  0.42044841895E+02  0.69035776165E+02  0.00000000000E+00 0. -1.
          2    1    1    2  501    0  0.48931415020E+02  0.41682380108E+02  0.12817127868E+04  0.12833235648E+04  0.00000000000E+00 0.  1.
<scales pt_clust_3="79.28031" pt_clust_4="14000.00000" pt_clust_5="54.75554" pt_clust_6="63.63807"></scales>
<clustering>
<clus scale="   54.756">  2  5  1 -1</clus>
<clus scale="   63.638">  1  6  2 -1</clus>
<clus scale="   79.280">  2  3  1 -1</clus>
<clus scale="   54.756">  2  3  1 -1</clus>
</clustering>
</event>
<event>
 6    0  0.1631680E+002  0.9552848E+02  0.7546771E-02  0.1289990E+00
          1   -1    0    0  505    0 -0.00000000000E+00  0.00000000000E+00  0.74931821674E+03  0.74931821674E+03  0.00000000000E+00 0. -1.
         21   -1    0    0  503  502  0.00000000000E+00 -0.00000000000E+00 -0.32904829282E+03  0.32904829282E+03  0.00000000000E+00 0. -1.
         21    1    1    2  503  504  0.30725478362E+02 -0.10037624511E+02 -0.57507359485E+02  0.65968972414E+02  0.00000000000E+00 0. -1.
         21    1    1    2  504  501 -0.11770041364E+03 -0.39100383742E+02 -0.22660062352E+03  0.25832164052E+03  0.00000000000E+00 0. -1.
         21    1    1    2  505  502  0.25839232049E+02 -0.24091338303E+02 -0.72654867601E+01  0.36067239872E+02  0.00000000000E+00 0. -1.
          1    1    1    2  501    0  0.61135703227E+02  0.73229346555E+02  0.71164339368E+03  0.71800865676E+03  0.00000000000E+00 0. -1.
<scales pt_clust_3="32.32350" pt_clust_4="14000.00000" pt_clust_5="37.72033" pt_clust_6="95.52848"></scales>
<clustering>
<clus scale="   32.324">  2  3  1 -1</clus>
<clus scale="   37.720">  2  5  1 -1</clus>
<clus scale="   95.528">  1  6  2 -1</clus>
<clus scale="   32.324">  2  3  1 -1</clus>
</clustering>
</event>
<event>
 6    0  0.1631680E+002  0.9535227E+02  0.7546771E-02  0.1290385E+00
          1   -1    0    0  504    0 -0.00000000000E+00  0.00000000000E+00  0.13399845887E+04  0.13399845887E+04  0.00000000000E+00 0. -1.
         21   -1    0    0  503  502  0.00000000000E+00 -0.00000000000E+00 -0.19109501491E+03  0.19109501491E+03  0.00000000000E+00 0. -1.
         21    1    1    2  503  501  0.59271561371E+02 -0.87352868816E+01 -0.15319830099E+03  0.16449663416E+03  0.00000000000E+00 0. -1.
         21    1    1    2  504  505 -0.31062843610E+02  0.73217266597E+02  0.14696567084E+03  0.16710648337E+03  0.00000000000E+00 0.  1.
         21    1    1    2  505  502 -0.25566995939E+02  0.35572367640E+02  0.39759660034E+01  0.43987190482E+02  0.00000000000E+00 0. -1.
          1    1    1    2  501    0 -0.26417218229E+01 -0.10005434736E+03  0.11511462379E+04  0.11554892956E+04  0.00000000000E+00 0. -1.
<scales pt_clust_3="43.04361" pt_clust_4="95.35227" pt_clust_5="43.80713" pt_clust_6="14000.00000"></scales>
<clustering>
<clus scale="   43.807">  2  5  1 -1</clus>
<clus scale="   43.044">  2  3  1 -1</clus>
<clus scale="   95.352">  2  4  1 -1</clus>
<clus scale="   43.807">  2  3  1 -1</clus>
</clustering>
</event>
<event>
 6    0  0.1631680E+002  0.1711086E+03  0.7546771E-02  0.1176697E+00
         -2   -1    0    0    0  501 -0.00000000000E+00  0.00000000000E+00  0.42329745222E+03  0.42329745222E+03  0.00000000000E+00 0. -1.
         21   -1    0    0  504  502  0.00000000000E+00 -0.00000000000E+00 -0.79191766430E+03  0.79191766430E+03  0.00000000000E+00 0. -1.
         21    1    1    2  503  502 -0.33122453102E+02 -0.32756254160E+02 -0.36295082805E+03  0.36592809768E+03  0.00000000000E+00 0. -1.
         21    1    1    2  504  501 -0.41133640458E+02 -0.65919312220E+02  0.25099415323E+03  0.26274587923E+03  0.00000000000E+00 0.  1.
         21    1    1    2  505  503 -0.77400882448E+02 -0.73509624083E+02 -0.32905948864E+03  0.34594032505E+03  0.00000000000E+00 0. -1.
         -2    1    1    2    0  505  0.15165697601E+03  0.17218519046E+03  0.72395951383E+02  0.24060081455E+03  0.00000000000E+00 0. -1.
<scales pt_clust_3="43.67279" pt_clust_4="77.70027" pt_clust_5="43.67279" pt_clust_6="157.82149"></scales>
<clustering>
<clus scale="   43.673">  3  5 -1 -1</clus>
<clus scale="   77.700">  1  4  2 -1</clus>
<clus scale="  157.821">  1  6  2 -1</clus>
<clus scale="  171.109">  2  3  1 -1</clus>
</clustering>
</event>
<event>
 6    0  0.1631680E+002  0.8107408E+02  0.7546771E-02  0.1326031E+00
         21   -1    0    0  505  502  0.00000000000E+00  0.00000000000E+00  0.44015221047E+02  0.44015221047E+02  0.00000000000E+00 0. -1.
          2   -1    0    0  502    0 -0.00000000000E+00 -0.00000000000E+00 -0.37724936043E+04  0.37724936043E+04  0.00000000000E+00 0. -1.
         21    1    1    2  503  504  0.37379531561E+02 -0.38426633349E+01 -0.13977067215E+02  0.40091817733E+02  0.00000000000E+00 0. -1.
         21    1    1    2  504  501 -0.98799047483E+02  0.40672310019E+02 -0.17415836285E+03  0.20431990587E+03  0.00000000000E+00 0. -1.
         21    1    1    2  505  503  0.29482428455E+02  0.27141035115E+02 -0.10360611392E+02  0.41390719288E+02  0.00000000000E+00 0.  1.
          2    1    1    2  501    0  0.31937087467E+02 -0.63970681799E+02 -0.35299823418E+04  0.35307063824E+04  0.00000000000E+00 0. -1.
<scales pt_clust_3="31.13429" pt_clust_4="74.42621" pt_clust_5="31.13429" pt_clust_6="71.49983"></scales>
<clustering>
<clus scale="   31.134">  3  5 -1 -1</clus>
<clus scale="   71.500">  2  6  1 -1</clus>
<clus scale="   74.426">  2  4  1 -1</clus>
<clus scale="   81.074">  1  3  2 -1</clus>
</clustering>
</event>
<event>
 6    0  0.1631680E+002  0.7712506E+02  0.7546771E-02  0.1337414E+00
         21   -1    0    0  504  502  0.00000000000E+00  0.00000000000E+00  0.54616755568E+02  0.54616755568E+02  0.00000000000E+00 0. -1.
          1   -1    0    0  505    0 -0.00000000000E+00 -0.00000000000E+00 -0.87898826753E+03  0.87898826753E+03  0.00000000000E+00 0.  1.
         21    1    1    2  503  501 -0.61544568243E+02  0.40484373347E+02 -0.35676258577E+02  0.81850557674E+02  0.00000000000E+00 0. -1.
         21    1    1    2  504  503  0.34452261984E+02  0.33117660922E+02  0.20944394924E+01  0.47834344331E+02  0.00000000000E+00 0. -1.
         21    1    1    2  505  502 -0.42482481494E+02 -0.10706857974E+02 -0.38227452804E+03  0.38477683510E+03  0.00000000000E+00 0.  1.
          1    1    1    2  501    0  0.69574787753E+02 -0.62895176295E+02 -0.40851516484E+03  0.41914328599E+03  0.00000000000E+00 0.  1.
<scales pt_clust_3="77.12506" pt_clust_4="46.04319" pt_clust_5="43.81094" pt_clust_6="14000.00000"></scales>
<clustering>
<clus scale="   43.811">  2  5  1 -1</clus>
<clus scale="   46.043">  1  4  2 -1</clus>
<clus scale="   77.125">  1  3  2 -1</clus>
<clus scale="   46.043">  1  3  2 -1</clus>
</clustering>
</event>
<event>
 6    0  0.1631680E+002  0.1488252E+03  0.7546771E-02  0.1201924E+00
          1   -1    0    0  505    0 -0.00000000000E+00  0.00000000000E+00  0.43484387210E+03  0.43484387210E+03  0.00000000000E+00 0.  1.
         21   -1    0    0  503  502  0.00000000000E+00 -0.00000000000E+00 -0.37993892889E+03  0.37993892889E+03  0.00000000000E+00 0.  1.
         21    1    1    2  503  501 -0.85504652715E+02 -0.96013121685E+02 -0.16615119560E+03  0.21008518503E+03  0.00000000000E+00 0.  1.
         21    1    1    2  504  502  0.16527035630E+03  0.13873658275E+03 -0.92981578403E+02  0.23496319709E+03  0.00000000000E+00 0.  1.
         21    1    1    2  505  504 -0.27687175679E+02 -0.15716646434E+02  0.30923932947E+03  0.31087385796E+03  0.00000000000E+00 0.  1.
          1    1    1    2  501    0 -0.52078527904E+02 -0.27006814631E+02  0.47983877456E+01  0.58860560905E+02  0.00000000000E+00 0.  1.
<scales pt_clust_3="148.82525" pt_clust_4="14000.00000" pt_clust_5="31.83697" pt_clust_6="66.78018"></scales>
<clustering>
<clus scale="   31.837">  1  5  2 -1</clus>
<clus scale="   66.780">  1  6  2 -1</clus>
<clus scale="  148.825">  2  3  1 -1</clus>
<clus scale="  148.825">  2  3  1 -1</clus>
</clustering>
</event>
<event>
 6    0  0.1631680E+002  0.1224444E+03  0.7546771E-02  0.1239118E+00
          2   -1    0    0  503    0 -0.00000000000E+00  0.00000000000E+00  0.29536461374E+04  0.29536461374E+04  0.00000000000E+00 0. -1.
         21   -1    0    0  504  502  0.00000000000E+00 -0.00000000000E+00 -0.52795853036E+02  0.52795853036E+02  0.00000000000E+00 0.  1.
         21    1    1    2  503  505 -0.64887923630E+02  0.69118196976E+02  0.54989432421E+03  0.55800675227E+03  0.00000000000E+00 0. -1.
         21    1    1    2  504  501  0.14122335093E+02  0.34955676111E+02 -0.26143358862E+02  0.45878261229E+02  0.00000000000E+00 0.  1.
         21    1    1    2  505  502 -0.32565656546E+02  0.32766524973E+01  0.14075008817E+02  0.35628139315E+02  0.00000000000E+00 0.  1.
          2    1    1    2  501    0  0.83331245082E+02 -0.10735052558E+03  0.23630243102E+04  0.23669288376E+04  0.00000000000E+00 0. -1.
<scales pt_clust_3="14000.00000" pt_clust_4="40.20169" pt_clust_5="32.73008" pt_clust_6="122.44437"></scales>
<clustering>
<clus scale="   32.730">  2  5  1 -1</clus>
<clus scale="   40.202">  2  4  1 -1</clus>
<clus scale="  122.444">  1  6  2 -1</clus>
<clus scale="   32.730">  2  3  1 -1</clus>
</clustering>
</event>
<event>
 6    0  0.1631680E+002  0.9912798E+02  0.7546771E-02  0.1282140E+00
          2   -1    0    0  503    0 -0.00000000000E+00  0.00000000000E+00  0.18390741109E+03  0.18390741109E+03  0.00000000000E+00 0. -1.
         21   -1    0    0  501  502  0.00000000000E+00 -0.00000000000E+00 -0.47011302026E+03  0.47011302026E+03  0.00000000000E+00 0. -1.
         21    1    1    2  503  505  0.97805291067E+02  0.34261921589E+02  0.29722609969E+02  0.10781088894E+03  0.00000000000E+00 0. -1.
         21    1    1    2  504  502  0.52344753002E+02  0.60398649857E+02 -0.28631552906E+03  0.29726175713E+03  0.00000000000E+00 0. -1.
         21    1    1    2  505  504 -0.68399747015E+02 -0.41760318455E+02 -0.10047369638E+03  0.12852008891E+03  0.00000000000E+00 0. -1.
          2    1    1    2  501    0 -0.81750297054E+02 -0.52900252991E+02  0.70861006312E+02  0.12042769636E+03  0.00000000000E+00 0. -1.
<scales pt_clust_3="14000.00000" pt_clust_4="79.92478" pt_clust_5="34.91811" pt_clust_6="99.12798"></scales>
<clustering>
<clus scale="   79.925">  2  4  1 -1</clus>
<clus scale="   34.918">  2  5  1 -1</clus>
<clus scale="   99.128">  1  6  2 -1</clus>
<clus scale="   79.925">  2  3  1 -1</clus>
</clustering>
</event>
<event>
 6    0  0.1631680E+002  0.1756440E+03  0.7546771E-02  0.1172087E+00
         21   -1    0    0  505  502  0.00000000000E+00  0.00000000000E+00  0.17074498982E+04  0.17074498982E+04  0.00000000000E+00 0. -1.
          2   -1    0    0  504    0 -0.00000000000E+00 -0.00000000000E+00 -0.83165215191E+02  0.83165215191E+02  0.00000000000E+00 0. -1.
         21    1    1    2  503  501 -0.23625515757E+02  0.33565132176E+02  0.21297571177E+03  0.21689499049E+03  0.00000000000E+00 0.  1.
         21    1    1    2  504  502  0.30686962970E+02 -0.17768304835E+01  0.46123288872E+02  0.55427471521E+02  0.00000000000E+00 0.  1.
         21    1    1    2  505  503 -0.91172165943E+02  0.89625019054E+02  0.13646140017E+04  0.13705897933E+04  0.00000000000E+00 0. -1.
          2    1    1    2  501    0  0.84110718729E+02 -0.12141332075E+03  0.57168064636E+00  0.14770285806E+03  0.00000000000E+00 0. -1.
<scales pt_clust_3="30.77747" pt_clust_4="30.73836" pt_clust_5="30.77747" pt_clust_6="166.99253"></scales>
<clustering>
<clus scale="   30.738">  2  4  1 -1</clus>
<clus scale="   30.777">  3  5 -1 -1</clus>
<clus scale="  166.993">  2  6  1 -1</clus>
<clus scale="  175.644">  1  3  2 -1</clus>
</clustering>
</event>
<event>
 6    0  0.1631680E+002  0.9748339E+02  0.7546771E-02  0.1285679E+00
         -2   -1    0    0    0  501 -0.00000000000E+00  0.00000000000E+00  0.12653937434E+04  0.12653937434E+04  0.00000000000E+00 0. -1.
         21   -1    0    0  504  502  0.00000000000E+00 -0.00000000000E+00 -0.31495023203E+03  0.31495023203E+03  0.00000000000E+00 0.  1.
         21    1    1    2  503  502  0.48159227400E+02  0.28123251753E+02 -0.26272364752E+03  0.26857763019E+03  0.00000000000E+00 0.  1.
         21    1    1    2  504  505  0.33831167871E+01  0.32223500513E+02 -0.31635401208E+02  0.45283529833E+02  0.00000000000E+00 0.  1.
         21    1    1    2  505  501  0.57988965726E+02 -0.63166591666E+02  0.22457461392E+03  0.24038821865E+03  0.00000000000E+00 0.  1.
         -2    1    1    2    0  503 -0.10953130991E+03  0.28198393998E+01  0.10202279461E+04  0.10260945967E+04  0.00000000000E+00 0. -1.
<scales pt_clust_3="78.31861" pt_clust_4="32.40061" pt_clust_5="14000.00000" pt_clust_6="97.48339"></scales>
<clustering>
<clus scale="   32.401">  2  4  1 -1</clus>
<clus scale="   78.319">  2  3  1 -1</clus>
<clus scale="   97.483">  1  6  2 -1</clus>
<clus scale="   32.401">  2  3  1 -1</clus>
</clustering>
</event>
<event>
 6    0  0.1631680E+002  0.9261599E+02  0.7546771E-02  0.1296638E+00
         21   -1    0    0  505  502  0.00000000000E+00  0.00000000000E+00  0.87927226065E+02  0.87927226065E+02  0.00000000000E+00 0.  1.
          2   -1    0    0  503    0 -0.00000000000E+00 -0.00000000000E+00 -0.66369368539E+03  0.66369368539E+03  0.00000000000E+00 0. -1.
         21    1    1    2  503  504 -0.50893577732E+02  0.49409757451E+02 -0.39341794017E+02  0.81112620116E+02  0.00000000000E+00 0.  1.
         21    1    1    2  504  502  0.10391831977E+02  0.62146617697E+02 -0.10113817427E+03  0.11916007116E+03  0.00000000000E+00 0. -1.
         21    1    1    2  505  501 -0.17436415493E+02 -0.32607581797E+02  0.46670315784E+02  0.59543272931E+02  0.00000000000E+00 0.  1.
          2    1    1    2  501    0  0.57938161248E+02 -0.78948793350E+02 -0.48195680682E+03  0.49180494725E+03  0.00000000000E+00 0. -1.
<scales pt_clust_3="14000.00000" pt_clust_4="54.02919" pt_clust_5="36.97679" pt_clust_6="92.61599"></scales>
<clustering>
<clus scale="   36.977">  1  5  2 -1</clus>
<clus scale="   54.029">  1  4  2 -1</clus>
<clus scale="   92.616">  2  6  1 -1</clus>
<clus scale="   36.977">  1  3  2 -1</clus>
</clustering>
</event>
<event>
 6    0  0.1631680E+002  0.1626522E+03  0.7546771E-02  0.1185735E+00
          1   -1    0    0  505    0 -0.00000000000E+00  0.00000000000E+00  0.77440871718E+03  0.77440871718E+03  0.00000000000E+00 0. -1.
         21   -1    0    0  504  502  0.00000000000E+00 -0.00000000000E+00 -0.48996773387E+03  0.48996773387E+03  0.00000000000E+00 0. -1.
         21    1    1    2  503  502  0.92752739236E+01 -0.63520268790E+02 -0.36276685917E+03  0.36840283572E+03  0.00000000000E+00 0. -1.
         21    1    1    2  504  501  0.14364721229E+02  0.27670680530E+02 -0.57110694805E+02  0.65066452479E+02  0.00000000000E+00 0. -1.
         21    1    1    2  505  503  0.62368336092E+02 -0.11044711039E+03  0.23173558264E+02  0.12893947163E+03  0.00000000000E+00 0. -1.
          1    1    1    2  501    0 -0.86008331245E+02  0.14629669865E+03  0.68114497902E+03  0.70196769122E+03  0.00000000000E+00 0. -1.
<scales pt_clust_3="45.36272" pt_clust_4="31.17710" pt_clust_5="14000.00000" pt_clust_6="162.65223"></scales>
<clustering>
<clus scale="   31.177">  2  4  1 -1</clus>
<clus scale="   45.363">  2  3  1 -1</clus>
<clus scale="  162.652">  1  6  2 -1</clus>
<clus scale="   31.177">  2  3  1 -1</clus>
</clustering>
</event>
<event>
 6    0  0.1631680E+002  0.1126616E+03  0.7546771E-02  0.1255719E+00
          2   -1    0    0  504    0 -0.00000000000E+00  0.00000000000E+00  0.36336417867E+04  0.36336417867E+04  0.00000000000E+00 0. -1.
         21   -1    0    0  503  502  0.00000000000E+00 -0.00000000000E+00 -0.34264202167E+03  0.34264202167E+03  0.00000000000E+00 0.  1.
         21    1    1    2  503  501  0.66269867937E+02  0.38470541201E+02 -0.12897004196E+03  0.15001649796E+03  0.00000000000E+00 0.  1.
         21    1    1    2  504  505 -0.14165329408E+03 -0.19119965296E+02  0.63960474001E+03  0.65538191327E+03  0.00000000000E+00 0.  1.
         21    1    1    2  505  502  0.26319285497E+02 -0.10589734789E+03 -0.17911377972E+03  0.20973483060E+03  0.00000000000E+00 0.  1.
          2    1    1    2  501    0  0.49064140649E+02  0.86546771985E+02  0.29594788467E+04  0.29611505665E+04  0.00000000000E+00 0. -1.
<scales pt_clust_3="76.62687" pt_clust_4="14000.00000" pt_clust_5="112.66156" pt_clust_6="99.75915"></scales>
<clustering>
<clus scale="   76.627">  2  3  1 -1</clus>
<clus scale="   99.759">  1  6  2 -1</clus>
<clus scale="  112.662">  2  5  1 -1</clus>
<clus scale="   76.627">  2  3  1 -1</clus>
</clustering>
</event>
<event>
 6    0  0.1631680E+002  0.1104007E+03  0.7546771E-02  0.1259830E+00
         21   -1    0    0  505  502  0.00000000000E+00  0.00000000000E+00  0.47232522830E+03  0.47232522830E+03  0.00000000000E+00 0.  1.
          1   -1    0    0  504    0 -0.00000000000E+00 -0.00000000000E+00 -0.14860680663E+04  0.14860680663E+04  0.00000000000E+00 0.  1.
         21    1    1    2  503  502  0.68445067392E+02 -0.31230389413E+01  0.28722803525E+02  0.74293203356E+02  0.00000000000E+00 0.  1.
         21    1    1    2  504  503 -0.12280877823E+03 -0.10388116667E+03 -0.27946509178E+02  0.16326144730E+03  0.00000000000E+00 0.  1.
         21    1    1    2  505  501 -0.53768383703E+02  0.89854540528E+02  0.34314539342E+03  0.35876683035E+03  0.00000000000E+00 0.  1.
          1    1    1    2  501    0  0.10813209454E+03  0.17149665086E+02 -0.13576645258E+04  0.13620718136E+04  0.00000000000E+00 0.  1.
<scales pt_clust_3="68.51628" pt_clust_4="14000.00000" pt_clust_5="87.31288" pt_clust_6="110.40070"></scales>
<clustering>
<clus scale="   68.516">  1  3  2 -1</clus>
<clus scale="   87.313">  1  5  2 -1</clus>
<clus scale="  110.401">  2  6  1 -1</clus>
<clus scale="   68.516">  1  3  2 -1</clus>
</clustering>
</event>
<event>
 6    0  0.1631680E+002  0.8409866E+02  0.7546771E-02  0.1317807E+00
         21   -1    0    0  503  502  0.00000000000E+00  0.00000000000E+00  0.10159168971E+02  0.10159168971E+02  0.00000000000E+00 0.  1.
          1   -1    0    0  505    0 -0.00000000000E+00 -0.00000000000E+00 -0.33949641352E+04  0.33949641352E+04  0.00000000000E+00 0.  1.
         21    1    1    2  503  501  0.61754516865E+02 -0.52956901126E+02 -0.59685654785E+03  0.60237512601E+03  0.00000000000E+00 0.  1.
         21    1    1    2  504  502 -0.46264326492E+02 -0.39203379832E+02 -0.18074109942E+03  0.19064269699E+03  0.00000000000E+00 0.  1.
         21    1    1    2  505  504 -0.43566447121E+02 -0.17261491296E+02 -0.79821181554E+03  0.79958620352E+03  0.00000000000E+00 0.  1.
          1    1    1    2  501    0  0.28076256748E+02  0.10942177225E+03 -0.18089955034E+04  0.18125192776E+04  0.00000000000E+00 0.  1.
<scales pt_clust_3="84.09866" pt_clust_4="63.82536" pt_clust_5="46.86144" pt_clust_6="14000.00000"></scales>
<clustering>
<clus scale="   46.861">  2  5  1 -1</clus>
<clus scale="   63.825">  1  4  2 -1</clus>
<clus scale="   84.099">  1  3  2 -1</clus>
<clus scale="   63.825">  1  3  2 -1</clus>
</clustering>
</event>
<event>
 6    0  0.1631680E+002  0.1096303E+03  0.7546771E-02  0.1261256E+00
         21   -1    0    0  505  502  0.00000000000E+00  0.00000000000E+00  0.31941160969E+03  0.31941160969E+03  0.00000000000E+00 0. -1.
          1   -1    0    0  503    0 -0.00000000000E+00 -0.00000000000E+00 -0.26250278816E+04  0.26250278816E+04  0.00000000000E+00 0. -1.
         21    1    1    2  503  504 -0.53674410562E+02  0.19383079070E+02 -0.17872607437E+03  0.18761571300E+03  0.00000000000E+00 0.  1.
         21    1    1    2  504  502  0.45536259644E+02  0.50614027630E+02  0.26527244218E+03  0.27387004093E+03  0.00000000000E+00 0. -1.
         21    1    1    2  505  501 -0.13466845327E+03 -0.95417382819E+02 -0.11496084196E+03  0.20113692956E+03  0.00000000000E+00 0. -1.
          1    1    1    2  501    0  0.14280660419E+03  0.25420276119E+02 -0.22772017978E+04  0.22818168078E+04  0.00000000000E+00 0. -1.
<scales pt_clust_3="57.06703" pt_clust_4="68.04550" pt_clust_5="14000.00000" pt_clust_6="109.63026"></scales>
<clustering>
<clus scale="   57.067">  2  3  1 -1</clus>
<clus scale="   68.045">  1  4  2 -1</clus>
<clus scale="  109.630">  2  6  1 -1</clus>
<clus scale="   68.045">  1  3  2 -1</clus>
</clustering>
</event>
<event>
 6    0  0.1631680E+002  0.2253539E+03  0.7546771E-02  0.1129953E+00
         21   -1    0    0  504  502  0.00000000000E+00  0.00000000000E+00  0.40340998867E+03  0.40340998867E+03  0.00000000000E+00 0.  1.
          2   -1    0    0  503    0 -0.00000000000E+00 -0.00000000000E+00 -0.19646721024E+04  0.19646721024E+04  0.00000000000E+00 0.  1.
         21    1    1    2  503  502  0.42871724915E+01  0.67553960521E+02 -0.23342165210E+03  0.24303823793E+03  0.00000000000E+00 0. -1.
         21    1    1    2  504  505 -0.71926943281E+02  0.58169200111E+02  0.34273421502E+03  0.35499842698E+03  0.00000000000E+00 0.  1.
         21    1    1    2  505  501 -0.61577330549E+02  0.14487571290E+03 -0.14093449194E+03  0.21128954268E+03  0.00000000000E+00 0.  1.
          2    1    1    2  501    0  0.12921710134E+03 -0.27059887353E+03 -0.15296401847E+04  0.15587558835E+04  0.00000000000E+00 0.  1.
<scales pt_clust_3="67.68986" pt_clust_4="92.64407" pt_clust_5="225.35387" pt_clust_6="14000.00000"></scales>
<clustering>
<clus scale="   67.690">  2  3  1 -1</clus>
<clus scale="   92.644">  1  4  2 -1</clus>
<clus scale="  225.354">  1  5  2 -1</clus>
<clus scale="   92.644">  1  3  2 -1</clus>
</clustering>
</event>
<event>
 6    0  0.1631680E+002  0.1302608E+03  0.7546771E-02  0.1227069E+00
          2   -1    0    0  504    0 -0.00000000000E+00  0.00000000000E+00  0.29496565243E+04  0.29496565243E+04  0.00000000000E+00 0.  1.
         21   -1    0    0  505  502  0.00000000000E+00 -0.00000000000E+00 -0.38042507759E+02  0.38042507759E+02  0.00000000000E+00 0.  1.
         21    1    1    2  503  501  0.40824841345E+02  0.19163988070E+02  0.55717495934E+03  0.55899719269E+03  0.00000000000E+00 0. -1.
         21    1    1    2  504  502 -0.16003623096E+03 -0.61753678579E+02  0.20584805375E+03  0.26795248324E+03  0.00000000000E+00 0.  1.
         21    1    1    2  505  503  0.58565452854E+02 -0.40487594595E+00  0.15380202226E+03  0.16457563077E+03  0.00000000000E+00 0. -1.
          2    1    1    2  501    0  0.60645936763E+02  0.42994566455E+02  0.19947889812E+04  0.19961737254E+04  0.00000000000E+00 0.  1.
<scales pt_clust_3="36.68580" pt_clust_4="121.44714" pt_clust_5="58.56685" pt_clust_6="36.68580"></scales>
<clustering>
<clus scale="   36.686">  3  6 -1 -1</clus>
<clus scale="   58.567">  2  5  1 -1</clus>
<clus scale="  121.447">  2  4  1 -1</clus>
<clus scale="   58.567">  2  3  1 -1</clus>
</clustering>
</event>
<event>
 6    0  0.1631680E+002  0.7831781E+02  0.7546771E-02  0.1333894E+00
          1   -1    0    0  504    0 -0.00000000000E+00  0.00000000000E+00  0.15359160033E+04  0.15359160033E+04  0.00000000000E+00 0. -1.
         21   -1    0    0  503  502  0.00000000000E+00 -0.00000000000E+00 -0.47429051555E+03  0.47429051555E+03  0.00000000000E+00 0. -1.
         21    1    1    2  503  501  0.41361866936E+02  0.68594453446E+01 -0.31211683095E+03  0.31492026322E+03  0.00000000000E+00 0. -1.
         21    1    1    2  504  505  0.91564004329E-01  0.36331724459E+02  0.23582014275E+02  0.43314131451E+02  0.00000000000E+00 0.  1.
         21    1    1    2  505  502 -0.85984766108E+02  0.55459687162E+02 -0.13135792047E+03  0.16650543587E+03  0.00000000000E+00 0. -1.
          1    1    1    2  501    0  0.44531335168E+02 -0.98650856966E+02  0.14815182249E+04  0.14854666883E+04  0.00000000000E+00 0. -1.
<scales pt_clust_3="41.93244" pt_clust_4="36.33184" pt_clust_5="78.31781" pt_clust_6="14000.00000"></scales>
<clustering>
<clus scale="   36.332">  1  4  2 -1</clus>
<clus scale="   41.932">  2  3  1 -1</clus>
<clus scale="   78.318">  2  5  1 -1</clus>
<clus scale="   41.932">  2  3  1 -1</clus>
</clustering>
</event>
<event>
 6    0  0.1631680E+002  0.4492446E+03  0.7546771E-02  0.1027948E+00
         21   -1    0    0  504  502  0.00000000000E+00  0.00000000000E+00  0.73651070786E+03  0.73651070786E+03  0.00000000000E+00 0.  1.
          1   -1    0    0  505    0 -0.00000000000E+00 -0.00000000000E+00 -0.49659433619E+03  0.49659433619E+03  0.00000000000E+00 0.  1.
         21    1    1    2  503  502  0.52123476060E+03  0.71566744411E+02  0.25316316615E+03  0.58386562089E+03  0.00000000000E+00 0.  1.
         21    1    1    2  504  501 -0.10198565906E+03 -0.11826061440E+03  0.85224160377E+02  0.17790392094E+03  0.00000000000E+00 0. -1.
         21    1    1    2  505  503 -0.41957868533E+01 -0.34746884543E+02 -0.22476164808E+02  0.41594814548E+02  0.00000000000E+00 0.  1.
          1    1    1    2  501    0 -0.41505331468E+03  0.81440754536E+02 -0.75994790061E+02  0.42974068768E+03  0.00000000000E+00 0.  1.
<scales pt_clust_3="14000.00000" pt_clust_4="159.07228" pt_clust_5="34.99929" pt_clust_6="449.24460"></scales>
<clustering>
<clus scale="   34.999">  2  5  1 -1</clus>
<clus scale="  159.072">  1  4  2 -1</clus>
<clus scale="  449.245">  2  6  1 -1</clus>
<clus scale="  159.072">  1  3  2 -1</clus>
</clustering>
</event>
<event>
 6    0  0.1631680E+002  0.2522711E+03  0.7546771E-02  0.1111878E+00
          2   -1    0    0  503    0 -0.00000000000E+00  0.00000000000E+00  0.12247363291E+04  0.12247363291E+04  0.00000000000E+00 0.  1.
         21   -1    0    0  504  502  0.00000000000E+00 -0.00000000000E+00 -0.17071412995E+03  0.17071412995E+03  0.00000000000E+00 0.  1.
         21    1    1    2  503  502  0.55660561680E+02 -0.69471634893E+01  0.26129889285E+02  0.61879983203E+02  0.00000000000E+00 0.  1.
         21    1    1    2  504  505 -0.45659581446E+02  0.33298075289E+02 -0.79257734060E+02  0.97341397175E+02  0.00000000000E+00 0.  1.
         21    1    1    2  505  501 -0.86187169716E+02 -0.25789555484E+03  0.36553039155E+03  0.45557744959E+03  0.00000000000E+00 0.  1.
          2    1    1    2  501    0  0.76186189482E+02  0.23154464304E+03  0.74161965242E+03  0.78065162912E+03  0.00000000000E+00 0.  1.
<scales pt_clust_3="56.09243" pt_clust_4="32.24762" pt_clust_5="252.27106" pt_clust_6="14000.00000"></scales>
<clustering>
<clus scale="   56.092">  2  3  1 -1</clus>
<clus scale="   32.248">  2  4  1 -1</clus>
<clus scale="  252.271">  2  5  1 -1</clus>
<clus scale="   56.092">  2  3  1 -1</clus>
</clustering>
</event>
<event>
 6    0  0.1631680E+002  0.1696075E+03  0.7546771E-02  0.1178258E+00
          2   -1    0    0  503    0 -0.00000000000E+00  0.00000000000E+00  0.10067038995E+04  0.10067038995E+04  0.00000000000E+00 0. -1.
         21   -1    0    0  504  502  0.00000000000E+00 -0.00000000000E+00 -0.37076254390E+03  0.37076254390E+03  0.00000000000E+00 0.  1.
         21    1    1    2  503  505 -0.50464434510E+02  0.39243440444E+02  0.98592991282E+02  0.11750440289E+03  0.00000000000E+00 0. -1.
         21    1    1    2  504  501  0.56601905503E+02  0.89177803621E+01 -0.14892982233E+03  0.15957253677E+03  0.00000000000E+00 0.  1.
         21    1    1    2  505  502 -0.10486469882E+03  0.14990474352E+03 -0.14921757124E+03  0.23608032691E+03  0.00000000000E+00 0.  1.
          2    1    1    2  501    0  0.98727227823E+02 -0.19806596432E+03  0.83549575786E+03  0.86430917682E+03  0.00000000000E+00 0. -1.
<scales pt_clust_3="62.24181" pt_clust_4="57.30011" pt_clust_5="14000.00000" pt_clust_6="169.60749"></scales>
<clustering>
<clus scale="   57.300">  2  4  1 -1</clus>
<clus scale="   62.242">  1  3  2 -1</clus>
<clus scale="  169.607">  1  6  2 -1</clus>
<clus scale="   57.300">  2  3  1 -1</clus>
</clustering>
</event>
<event>
 6    0  0.1631680E+002  0.9438790E+02  0.7546771E-02  0.1292561E+00
         21   -1    0    0  501  502  0.00000000000E+00  0.00000000000E+00  0.50513145580E+02  0.50513145580E+02  0.00000000000E+00 0.  1.
          2   -1    0    0  503    0 -0.00000000000E+00 -0.00000000000E+00 -0.10399734998E+04  0.10399734998E+04  0.00000000000E+00 0. -1.
         21    1    1    2  503  504  0.21408327761E+02  0.33821606327E+02 -0.16644514823E+03  0.17119055149E+03  0.00000000000E+00 0. -1.
         21    1    1    2  504  505 -0.10495892772E+03  0.44707675512E+02 -0.15946454161E+03  0.19607165218E+03  0.00000000000E+00 0.  1.
         21    1    1    2  505  502  0.84799331793E+02 -0.20941826821E+02 -0.38382141689E+02  0.95407942980E+02  0.00000000000E+00 0.  1.
          2    1    1    2  501    0 -0.12487318321E+01 -0.57587455018E+02 -0.62516852269E+03  0.62781649873E+03  0.00000000000E+00 0. -1.
<scales pt_clust_3="40.02771" pt_clust_4="94.38790" pt_clust_5="14000.00000" pt_clust_6="36.14795"></scales>
<clustering>
<clus scale="   40.028">  2  3  1 -1</clus>
<clus scale="   36.148">  2  6  1 -1</clus>
<clus scale="   94.388">  2  4  1 -1</clus>
<clus scale="   94.388">  1  3  2 -1</clus>
</clustering>
</event>
<event>
 6    0  0.1631680E+002  0.2514314E+03  0.7546771E-02  0.1112404E+00
         21   -1    0    0  505  502  0.00000000000E+00  0.00000000000E+00  0.41822125296E+03  0.41822125296E+03  0.00000000000E+00 0. -1.
         -1   -1    0    0    0  501 -0.00000000000E+00 -0.00000000000E+00 -0.38626084602E+04  0.38626084602E+04  0.00000000000E+00 0. -1.
         21    1    1    2  503  502  0.31171940056E+02  0.39479166362E+02 -0.32112515666E+01  0.50404429965E+02  0.00000000000E+00 0. -1.
         21    1    1    2  504  501  0.94511463783E+02 -0.81525335622E+02 -0.29719484676E+04  0.29745682865E+04  0.00000000000E+00 0. -1.
         21    1    1    2  505  504 -0.15780019621E+03 -0.25044552843E+03  0.30655504304E+03  0.42614534967E+03  0.00000000000E+00 0. -1.
         -1    1    1    2    0  503  0.32116792371E+02  0.29249169769E+03 -0.77578253109E+03  0.82971164697E+03  0.00000000000E+00 0. -1.
<scales pt_clust_3="50.30203" pt_clust_4="124.80792" pt_clust_5="251.43143" pt_clust_6="14000.00000"></scales>
<clustering>
<clus scale="   50.302">  1  3  2 -1</clus>
<clus scale="  124.808">  2  4  1 -1</clus>
<clus scale="  251.431">  1  5  2 -1</clus>
<clus scale="   50.302">  1  3  2 -1</clus>
</clustering>
</event>
<event>
 6    0  0.1631680E+002  0.1283128E+03  0.7546771E-02  0.1229981E+00
          3   -1    0    0  504    0 -0.00000000000E+00  0.00000000000E+00  0.47975020046E+02  0.47975020046E+02  0.00000000000E+00 0.  1.
         21   -1    0    0  505  502  0.00000000000E+00 -0.00000000000E+00 -0.17093539063E+04  0.17093539063E+04  0.00000000000E+00 0. -1.
         21    1    1    2  503  501  0.57546374106E+01  0.65142221952E+02 -0.22051548435E+03  0.23000805154E+03  0.00000000000E+00 0. -1.
         21    1    1    2  504  502 -0.12604877074E+03  0.33334046541E+02 -0.45692117828E+03  0.47515935687E+03  0.00000000000E+00 0. -1.
         21    1    1    2  505  503  0.34691614677E+02  0.33850447373E+01 -0.88663906263E+03  0.88732395101E+03  0.00000000000E+00 0.  1.
          3    1    1    2  501    0  0.85602518649E+02 -0.10186131323E+03 -0.97303160997E+02  0.16483756693E+03  0.00000000000E+00 0.  1.
<scales pt_clust_3="67.80822" pt_clust_4="128.31277" pt_clust_5="34.85637" pt_clust_6="14000.00000"></scales>
<clustering>
<clus scale="   34.856">  2  5  1 -1</clus>
<clus scale="   67.808">  2  3  1 -1</clus>
<clus scale="  128.313">  2  4  1 -1</clus>
<clus scale="   34.856">  2  3  1 -1</clus>
</clustering>
</event>
<event>
 6    0  0.1631680E+002  0.1345288E+03  0.7546771E-02  0.1220886E+00
          2   -1    0    0  505    0 -0.00000000000E+00  0.00000000000E+00  0.10799375954E+04  0.10799375954E+04  0.00000000000E+00 0. -1.
         21   -1    0    0  504  502  0.00000000000E+00 -0.00000000000E+00 -0.46181165610E+03  0.46181165610E+03  0.00000000000E+00 0.  1.
         21    1    1    2  503  501 -0.83759816500E+02  0.29514127252E+02 -0.15079364181E+03  0.17500146564E+03  0.00000000000E+00 0.  1.
         21    1    1    2  504  503 -0.53402737894E+02 -0.29267157176E+01 -0.28459744470E+03  0.28957921819E+03  0.00000000000E+00 0.  1.
         21    1    1    2  505  502  0.15932755896E+02 -0.86886336554E+02  0.45979135909E+03  0.46819993815E+03  0.00000000000E+00 0.  1.
          2    1    1    2  501    0  0.12122979850E+03  0.60298925020E+02  0.59372566672E+03  0.60896862951E+03  0.00000000000E+00 0. -1.
<scales pt_clust_3="134.52878" pt_clust_4="53.48288" pt_clust_5="88.18183" pt_clust_6="14000.00000"></scales>
<clustering>
<clus scale="   53.483">  2  4  1 -1</clus>
<clus scale="   88.182">  1  5  2 -1</clus>
<clus scale="  134.529">  2  3  1 -1</clus>
<clus scale="   53.483">  2  3  1 -1</clus>
</clustering>
</event>
<event>
 6    0  0.1631680E+002  0.6734769E+02  0.7546771E-02  0.1369352E+00
          2   -1    0    0  505    0 -0.00000000000E+00  0.00000000000E+00  0.59016181565E+03  0.59016181565E+03  0.00000000000E+00 0.  1.
         21   -1    0    0  501  502  0.00000000000E+00 -0.00000000000E+00 -0.40231219905E+02  0.40231219905E+02  0.00000000000E+00 0.  1.
         21    1    1    2  503  504  0.83678599388E+02 -0.54071299678E+02  0.28799394640E+03  0.30473976867E+03  0.00000000000E+00 0.  1.
         21    1    1    2  504  502 -0.93450983991E+01  0.64538282453E+02  0.58806427452E+02  0.87810686569E+02  0.00000000000E+00 0.  1.
         21    1    1    2  505  503 -0.25997422381E+02  0.31009616590E+02  0.14855229005E+03  0.15396507777E+03  0.00000000000E+00 0.  1.
          2    1    1    2  501    0 -0.48336078608E+02 -0.41476599366E+02  0.54577931834E+02  0.83877502546E+02  0.00000000000E+00 0.  1.
<scales pt_clust_3="67.34769" pt_clust_4="14000.00000" pt_clust_5="40.46557" pt_clust_6="63.93823"></scales>
<clustering>
<clus scale="   40.466">  1  5  2 -1</clus>
<clus scale="   63.938">  2  6  1 -1</clus>
<clus scale="   67.348">  1  3  2 -1</clus>
<clus scale="   63.938">  2  3  1 -1</clus>
</clustering>
</event>
<event>
 6    0  0.1631680E+002  0.1182610E+03  0.7546771E-02  0.1245994E+00
         21   -1    0    0  505  502  0.00000000000E+00  0.00000000000E+00  0.21826141743E+04  0.21826141743E+04  0.00000000000E+00 0. -1.
         -2   -1    0    0    0  501 -0.00000000000E+00 -0.00000000000E+00 -0.90679459614E+02  0.90679459614E+02  0.00000000000E+00 0.  1.
         21    1    1    2  503  501 -0.91976796474E+02 -0.50995791196E+02  0.18413371763E+04  0.18443380652E+04  0.00000000000E+00 0. -1.
         21    1    1    2  504  502  0.13412798606E+03  0.76119891882E+02  0.15089684619E+02  0.15495887573E+03  0.00000000000E+00 0.  1.
         21    1    1    2  505  503 -0.22887315440E+02  0.24295033011E+02  0.21428248056E+03  0.21686645502E+03  0.00000000000E+00 0. -1.
         -2    1    1    2    0  504 -0.19263874145E+02 -0.49419133698E+02  0.21225373156E+02  0.57130237949E+02  0.00000000000E+00 0.  1.
<scales pt_clust_3="14000.00000" pt_clust_4="118.26105" pt_clust_5="33.37780" pt_clust_6="52.75913"></scales>
<clustering>
<clus scale="   33.378">  1  5  2 -1</clus>
<clus scale="   52.759">  2  6  1 -1</clus>
<clus scale="  118.261">  2  4  1 -1</clus>
<clus scale="   33.378">  1  3  2 -1</clus>
</clustering>
</event>
<event>
 6    0  0.1631680E+002  0.1394751E+03  0.7546771E-02  0.1214037E+00
         21   -1    0    0  505  502  0.00000000000E+00  0.00000000000E+00  0.52882718113E+02  0.52882718113E+02  0.00000000000E+00 0.  1.
          2   -1    0    0  503    0 -0.00000000000E+00 -0.00000000000E+00 -0.13761671363E+04  0.13761671363E+04  0.00000000000E+00 0.  1.
         21    1    1    2  503  502  0.30889550586E+01 -0.12539528842E+03 -0.55840068816E+03  0.57231534012E+03  0.00000000000E+00 0.  1.
         21    1    1    2  504  501 -0.49236726908E+02  0.22078209617E+02 -0.80605263247E+02  0.96999541647E+02  0.00000000000E+00 0.  1.
         21    1    1    2  505  504 -0.15947515824E+01 -0.52557727906E+02  0.36938326478E+01  0.52711501543E+02  0.00000000000E+00 0.  1.
          2    1    1    2  501    0  0.47742523432E+02  0.15587480671E+03 -0.68797229946E+03  0.70702347114E+03  0.00000000000E+00 0.  1.
<scales pt_clust_3="14000.00000" pt_clust_4="49.98056" pt_clust_5="52.58192" pt_clust_6="139.47508"></scales>
<clustering>
<clus scale="   52.582">  1  5  2 -1</clus>
<clus scale="   49.981">  1  4  2 -1</clus>
<clus scale="  139.475">  1  6  2 -1</clus>
<clus scale="   52.582">  1  3  2 -1</clus>
</clustering>
</event>
<event>
 6    0  0.1631680E+002  0.3290246E+03  0.7546771E-02  0.1071569E+00
         21   -1    0    0  503  502  0.00000000000E+00  0.00000000000E+00  0.16306863500E+03  0.16306863500E+03  0.00000000000E+00 0. -1.
          1   -1    0    0  504    0 -0.00000000000E+00 -0.00000000000E+00 -0.15046189026E+04  0.15046189026E+04  0.00000000000E+00 0.  1.
         21    1    1    2  503  505 -0.28680153079E+02 -0.37813921359E+02  0.31607019084E+02  0.57021465122E+02  0.00000000000E+00 0. -1.
         21    1    1    2  504  502 -0.37370842041E+02  0.69742461045E+02 -0.25804893177E+03  0.26990709863E+03  0.00000000000E+00 0. -1.
         21    1    1    2  505  501 -0.24537864251E+03 -0.17166111485E+03 -0.18991510346E+03  0.35460677246E+03  0.00000000000E+00 0. -1.
          1    1    1    2  501    0  0.31142963763E+03  0.13973257516E+03 -0.92519325145E+03  0.98615220138E+03  0.00000000000E+00 0.  1.
<scales pt_clust_3="47.45992" pt_clust_4="78.16578" pt_clust_5="329.02458" pt_clust_6="14000.00000"></scales>
<clustering>
<clus scale="   47.460">  1  3  2 -1</clus>
<clus scale="   78.166">  2  4  1 -1</clus>
<clus scale="  329.025">  1  5  2 -1</clus>
<clus scale="   47.460">  1  3  2 -1</clus>
</clustering>
</event>
<event>
 6    0  0.1631680E+002  0.1140827E+03  0.7546771E-02  0.1253191E+00
          2   -1    0    0  505    0 -0.00000000000E+00  0.00000000000E+00  0.19054992409E+04  0.19054992409E+04  0.00000000000E+00 0. -1.
         21   -1    0    0  503  502  0.00000000000E+00 -0.00000000000E+00 -0.15483128755E+03  0.15483128755E+03  0.00000000000E+00 0. -1.
         21    1    1    2  503  504  0.27557386885E+02  0.21091076792E+02 -0.13406836466E+03  0.13848671234E+03  0.00000000000E+00 0. -1.
         21    1    1    2  504  501  0.41188561338E+01  0.10520318177E+03  0.17806528434E+03  0.20686207946E+03  0.00000000000E+00 0.  1.
         21    1    1    2  505  502 -0.28898005366E+02 -0.27560191314E+02  0.10654271365E+04  0.10661752399E+04  0.00000000000E+00 0. -1.
          2    1    1    2  501    0 -0.27782376534E+01 -0.98734067251E+02  0.64124389716E+03  0.64880649679E+03  0.00000000000E+00 0. -1.
<scales pt_clust_3="34.70221" pt_clust_4="14000.00000" pt_clust_5="39.23775" pt_clust_6="114.08265"></scales>
<clustering>
<clus scale="   34.702">  2  3  1 -1</clus>
<clus scale="   39.238">  1  5  2 -1</clus>
<clus scale="  114.083">  1  6  2 -1</clus>
<clus scale="   34.702">  2  3  1 -1</clus>
</clustering>
</event>
<event>
 6    0  0.1631680E+002  0.7689929E+02  0.7546771E-02  0.1338088E+00
         21   -1    0    0  503  502  0.00000000000E+00  0.00000000000E+00  0.96115616364E+03  0.96115616364E+03  0.00000000000E+00 0.  1.
          2   -1    0    0  504    0 -0.00000000000E+00 -0.00000000000E+00 -0.54804717520E+03  0.54804717520E+03  0.00000000000E+00 0.  1.
         21    1    1    2  503  505  0.61532862701E+01  0.84978206275E+02  0.69422314850E+03  0.69943186829E+03  0.00000000000E+00 0.  1.
         21    1    1    2  504  502 -0.57751518578E+02 -0.48978411876E+02  0.25197675922E+03  0.26310912169E+03  0.00000000000E+00 0.  1.
         21    1    1    2  505  501  0.69869885756E+02  0.68529975088E+01 -0.24621308230E+03  0.25602665175E+03  0.00000000000E+00 0.  1.
          2    1    1    2  501    0 -0.18271653448E+02 -0.42852791908E+02 -0.28687783698E+03  0.29063569712E+03  0.00000000000E+00 0.  1.
<scales pt_clust_3="76.89929" pt_clust_4="14000.00000" pt_clust_5="62.63154" pt_clust_6="46.58557"></scales>
<clustering>
<clus scale="   46.586">  2  6  1 -1</clus>
<clus scale="   62.632">  2  5  1 -1</clus>
<clus scale="   76.899">  1  3  2 -1</clus>
<clus scale="   76.899">  1  3  2 -1</clus>
</clustering>
</event>
<event>
 6    0  0.1631680E+002  0.1455647E+03  0.7546771E-02  0.1206031E+00
          1   -1    0    0  505    0 -0.00000000000E+00  0.00000000000E+00  0.12820936615E+04  0.12820936615E+04  0.00000000000E+00 0. -1.
         21   -1    0    0  503  502  0.00000000000E+00 -0.00000000000E+00 -0.36634961234E+03  0.36634961234E+03  0.00000000000E+00 0. -1.
         21    1    1    2  503  504 -0.52896690421E+02  0.99369285747E+02 -0.29301685733E+03  0.31389678795E+03  0.00000000000E+00 0. -1.
         21    1    1    2  504  501  0.10363928429E+02  0.32017925832E+02 -0.49931433396E+02  0.60213840835E+02  0.00000000000E+00 0. -1.
         21    1    1    2  505  502 -0.49498586952E+01 -0.77034672383E+02  0.22025744544E+03  0.23339276793E+03  0.00000000000E+00 0. -1.
          1    1    1    2  501    0  0.47482620687E+02 -0.54352539196E+02  0.10384348945E+04  0.10409398772E+04  0.00000000000E+00 0. -1.
<scales pt_clust_3="31.28339" pt_clust_4="31.28339" pt_clust_5="133.84878" pt_clust_6="72.17200"></scales>
<clustering>
<clus scale="   31.283">  3  4 -1 -1</clus>
<clus scale="   72.172">  1  6  2 -1</clus>
<clus scale="  133.849">  1  5  2 -1</clus>
<clus scale="  145.565">  2  3  1 -1</clus>
</clustering>
</event>
<event>
 6    0  0.1631680E+002  0.1532843E+03  0.7546771E-02  0.1196494E+00
          2   -1    0    0  504    0 -0.00000000000E+00  0.00000000000E+00  0.54241853406E+03  0.54241853406E+03  0.00000000000E+00 0.  1.
         21   -1    0    0  501  502  0.00000000000E+00 -0.00000000000E+00 -0.29080316569E+04  0.29080316569E+04  0.00000000000E+00 0. -1.
         21    1    1    2  503  505  0.10991367931E+03 -0.21020248513E+02 -0.20571666461E+04  0.20602081151E+04  0.00000000000E+00 0. -1.
         21    1    1    2  504  503 -0.29221905521E+02  0.15204682208E+02  0.18486123393E+02  0.37773520904E+02  0.00000000000E+00 0.  1.
         21    1    1    2  505  502  0.41396816965E+02  0.49359953449E+02 -0.83024111646E+03  0.83273670084E+03  0.00000000000E+00 0. -1.
          2    1    1    2  501    0 -0.12208859075E+03 -0.43544387145E+02  0.50330851629E+03  0.51973185414E+03  0.00000000000E+00 0.  1.
<scales pt_clust_3="14000.00000" pt_clust_4="32.94089" pt_clust_5="64.40403" pt_clust_6="153.28434"></scales>
<clustering>
<clus scale="   32.941">  1  4  2 -1</clus>
<clus scale="   64.404">  2  5  1 -1</clus>
<clus scale="  153.284">  1  6  2 -1</clus>
<clus scale="   64.404">  2  3  1 -1</clus>
</clustering>
</event>
<event>
 6    0  0.1631680E+002  0.1185242E+03  0.7546771E-02  0.1245552E+00
         21   -1    0    0  503  502  0.00000000000E+00  0.00000000000E+00  0.10391222119E+04  0.10391222119E+04  0.00000000000E+00 0. -1.
          2   -1    0    0  504    0 -0.00000000000E+00 -0.00000000000E+00 -0.37933379713E+03  0.37933379713E+03  0.00000000000E+00 0.  1.
         21    1    1    2  503  501 -0.35267384769E+02  0.11375840877E+03  0.97510552260E+03  0.98235204698E+03  0.00000000000E+00 0. -1.
         21    1    1    2  504  505 -0.12604235922E+02 -0.36809328919E+02 -0.21639809073E+02  0.44520498597E+02  0.00000000000E+00 0. -1.
         21    1    1    2  505  502 -0.42043851888E+02 -0.34979078648E+02  0.23291975452E+02  0.59445248297E+02  0.00000000000E+00 0. -1.
          2    1    1    2  501    0  0.89915472580E+02 -0.41970001203E+02 -0.31696927418E+03  0.33213821518E+03  0.00000000000E+00 0.  1.
<scales pt_clust_3="118.52420" pt_clust_4="38.90750" pt_clust_5="56.43683" pt_clust_6="14000.00000"></scales>
<clustering>
<clus scale="   38.907">  2  4  1 -1</clus>
<clus scale="   56.437">  2  5  1 -1</clus>
<clus scale="  118.524">  1  3  2 -1</clus>
<clus scale="  118.524">  1  3  2 -1</clus>
</clustering>
</event>
<event>
 6    0  0.1631680E+002  0.2303803E+03  0.7546771E-02  0.1126372E+00
          1   -1    0    0  503    0 -0.00000000000E+00  0.00000000000E+00  0.22060161145E+04  0.22060161145E+04  0.00000000000E+00 0.  1.
         21   -1    0    0  504  502  0.00000000000E+00 -0.00000000000E+00 -0.24656378268E+03  0.24656378268E+03  0.00000000000E+00 0. -1.
         21    1    1    2  503  505  0.21279034716E+02  0.22703104832E+02  0.91291254314E+03  0.91344268551E+03  0.00000000000E+00 0.  1.
         21    1    1    2  504  501  0.16528532688E+03  0.10772198754E+03 -0.16295776373E+03  0.25588766802E+03  0.00000000000E+00 0. -1.
         21    1    1    2  505  502  0.71215642220E+01  0.45353053679E+02  0.11771320991E+00  0.45908931716E+02  0.00000000000E+00 0. -1.
          1    1    1    2  501    0 -0.19368592582E+03 -0.17577814605E+03  0.12093798392E+04  0.12373406119E+04  0.00000000000E+00 0.  1.
<scales pt_clust_3="31.11637" pt_clust_4="230.38034" pt_clust_5="46.36782" pt_clust_6="14000.00000"></scales>
<clustering>
<clus scale="   31.116">  1  3  2 -1</clus>
<clus scale="   46.368">  2  5  1 -1</clus>
<clus scale="  230.380">  2  4  1 -1</clus>
<clus scale="   46.368">  2  3  1 -1</clus>
</clustering>
</event>
<event>
 6    0  0.1631680E+002  0.9834341E+02  0.7546771E-02  0.1283819E+00
          2   -1    0    0  505    0 -0.00000000000E+00  0.00000000000E+00  0.94723481233E+03  0.94723481233E+03  0.00000000000E+00 0. -1.
         21   -1    0    0  504  502  0.00000000000E+00 -0.00000000000E+00 -0.71566229855E+02  0.71566229855E+02  0.00000000000E+00 0.  1.
         21    1    1    2  503  502 -0.41463769132E+02  0.21106510477E+02 -0.46344280723E+02  0.65669789788E+02  0.00000000000E+00 0.  1.
         21    1    1    2  504  501  0.64938932492E+02  0.85157398091E+02  0.37974068622E+03  0.39455270393E+03  0.00000000000E+00 0. -1.
         21    1    1    2  505  503  0.24023946283E+02 -0.30582705271E+02  0.98482940237E+02  0.10588362184E+03  0.00000000000E+00 0. -1.
          2    1    1    2  501    0 -0.47499109643E+02 -0.75681203297E+02  0.44378923674E+03  0.45269492663E+03  0.00000000000E+00 0. -1.
<scales pt_clust_3="46.12358" pt_clust_4="14000.00000" pt_clust_5="38.89025" pt_clust_6="98.34341"></scales>
<clustering>
<clus scale="   38.890">  1  5  2 -1</clus>
<clus scale="   46.124">  2  3  1 -1</clus>
<clus scale="   98.343">  1  6  2 -1</clus>
<clus scale="   46.124">  2  3  1 -1</clus>
</clustering>
</event>
<event>
 6    0  0.1631680E+002  0.1014377E+03  0.7546771E-02  0.1277301E+00
          1   -1    0    0  504    0 -0.00000000000E+00  0.00000000000E+00  0.31720112322E+04  0.31720112322E+04  0.00000000000E+00 0. -1.
         21   -1    0    0  503  502  0.00000000000E+00 -0.00000000000E+00 -0.98469028392E+01  0.98469028392E+01  0.00000000000E+00 0. -1.
         21    1    1    2  503  501  0.37997236396E+02  0.46278057416E+02  0.47415277429E+03  0.47791871897E+03  0.00000000000E+00 0. -1.
         21    1    1    2  504  505  0.68436228662E+02 -0.40133773297E+02  0.83156378456E+03  0.83533979012E+03  0.00000000000E+00 0. -1.
         21    1    1    2  505  502  0.35002342670E+02 -0.17306101631E+02  0.11634240998E+03  0.12272009414E+03  0.00000000000E+00 0. -1.
          1    1    1    2  501    0 -0.14143580773E+03  0.11161817512E+02  0.17401053606E+04  0.17458795319E+04  0.00000000000E+00 0. -1.
<scales pt_clust_3="63.29822" pt_clust_4="101.43770" pt_clust_5="39.04696" pt_clust_6="14000.00000"></scales>
<clustering>
<clus scale="   39.047">  2  5  1 -1</clus>
<clus scale="   63.298">  2  3  1 -1</clus>
<clus scale="  101.438">  1  4  2 -1</clus>
<clus scale="   39.047">  2  3  1 -1</clus>
</clustering>
</event>
<event>
 6    0  0.1631680E+002  0.1169899E+03  0.7546771E-02  0.1248147E+00
         21   -1    0    0  504  502  0.00000000000E+00  0.00000000000E+00  0.16872907593E+03  0.16872907593E+03  0.00000000000E+00 0.  1.
          1   -1    0    0  503    0 -0.00000000000E+00 -0.00000000000E+00 -0.64670721809E+03  0.64670721809E+03  0.00000000000E+00 0.  1.
         21    1    1    2  503  505 -0.76017063999E+02 -0.12564651882E+03 -0.56280733386E+03  0.58165087187E+03  0.00000000000E+00 0.  1.
         21    1    1    2  504  501  0.93303262224E+01  0.32561851954E+02 -0.63009011874E+01  0.34453309650E+02  0.00000000000E+00 0.  1.
         21    1    1    2  505  502  0.35952814867E+02  0.76999022047E+02  0.12480306214E+03  0.15098761079E+03  0.00000000000E+00 0.  1.
          1    1    1    2  501    0  0.30733922910E+02  0.16085644816E+02 -0.33672969255E+02  0.48344501704E+02  0.00000000000E+00 0.  1.
<scales pt_clust_3="116.98989" pt_clust_4="33.87225" pt_clust_5="14000.00000" pt_clust_6="35.81615"></scales>
<clustering>
<clus scale="   33.872">  1  4  2 -1</clus>
<clus scale="   35.816">  2  6  1 -1</clus>
<clus scale="  116.990">  2  3  1 -1</clus>
<clus scale="   33.872">  1  3  2 -1</clus>
</clustering>
</event>
<event>
 6    0  0.1631680E+002  0.3128575E+03  0.7546771E-02  0.1078984E+00
         -3   -1    0    0    0  501 -0.00000000000E+00  0.00000000000E+00  0.71850393166E+03  0.71850393166E+03  0.00000000000E+00 0.  1.
         21   -1    0    0  503  502  0.00000000000E+00 -0.00000000000E+00 -0.12135475088E+04  0.12135475088E+04  0.00000000000E+00 0.  1.
         21    1    1    2  503  505  0.29299618070E+02 -0.15049116172E+02 -0.41064036153E+03  0.41195928201E+03  0.00000000000E+00 0.  1.
         21    1    1    2  504  501  0.67886651333E+02  0.19419429790E+03 -0.97795160883E+02  0.22778041237E+03  0.00000000000E+00 0.  1.
         21    1    1    2  505  504  0.12139221777E+03  0.89824313319E+02 -0.58315579804E+03  0.60239120395E+03  0.00000000000E+00 0.  1.
         -3    1    1    2    0  502 -0.21857848718E+03 -0.26896949505E+03  0.59654774335E+03  0.68992054211E+03  0.00000000000E+00 0.  1.
<scales pt_clust_3="32.93848" pt_clust_4="14000.00000" pt_clust_5="163.26444" pt_clust_6="312.85746"></scales>
<clustering>
<clus scale="   32.938">  2  3  1 -1</clus>
<clus scale="  163.264">  2  5  1 -1</clus>
<clus scale="  312.857">  1  6  2 -1</clus>
<clus scale="   32.938">  2  3  1 -1</clus>
</clustering>
</event>
<event>
 6    0  0.1631680E+002  0.7584314E+02  0.7546771E-02  0.1341280E+00
         21   -1    0    0  504  502  0.00000000000E+00  0.00000000000E+00  0.35097495084E+02  0.35097495084E+02  0.00000000000E+00 0. -1.
          2   -1    0    0  503    0 -0.00000000000E+00 -0.00000000000E+00 -0.13095726247E+04  0.13095726247E+04  0.00000000000E+00 0.  1.
         21    1    1    2  503  505  0.11595544318E+02 -0.38243029652E+02 -0.52320440969E+03  0.52472834904E+03  0.00000000000E+00 0.  1.
         21    1    1    2  504  501  0.70507464452E+02 -0.51446245147E+02 -0.17653781388E+03  0.19693556919E+03  0.00000000000E+00 0.  1.
         21    1    1    2  505  502 -0.12137122383E+01  0.50917403510E+02 -0.10903442831E+02  0.52085891979E+02  0.00000000000E+00 0. -1.
          2    1    1    2  501    0 -0.80889296531E+02  0.38771871290E+02 -0.56382946326E+03  0.57092030962E+03  0.00000000000E+00 0.  1.
<scales pt_clust_3="39.96231" pt_clust_4="14000.00000" pt_clust_5="49.38993" pt_clust_6="75.84314"></scales>
<clustering>
<clus scale="   39.962">  2  3  1 -1</clus>
<clus scale="   49.390">  1  5  2 -1</clus>
<clus scale="   75.843">  2  6  1 -1</clus>
<clus scale="   49.390">  1  3  2 -1</clus>
</clustering>
</event>
<event>
 6    0  0.1631680E+002  0.1960423E+03  0.7546771E-02  0.1153122E+00
          2   -1    0    0  503    0 -0.00000000000E+00  0.00000000000E+00  0.75269051402E+03  0.75269051402E+03  0.00000000000E+00 0.  1.
         21   -1    0    0  505  502  0.00000000000E+00 -0.00000000000E+00 -0.16991665465E+03  0.16991665465E+03  0.00000000000E+00 0. -1.
         21    1    1    2  503  504 -0.20189315914E+03 -0.11297564299E+02  0.34633699626E+03  0.40104587972E+03  0.00000000000E+00 0. -1.
         21    1    1    2  504  502  0.42600699321E+02 -0.90540219708E+01 -0.44967509232E+02  0.62600892829E+02  0.00000000000E+00 0. -1.
         21    1    1    2  505  501 -0.29022265230E+02 -0.11707305246E+02 -0.60043801692E+02  0.67709755551E+02  0.00000000000E+00 0. -1.
          2    1    1    2  501    0  0.18831472505E+03  0.32058891516E+02  0.34144817404E+03  0.39125064057E+03  0.00000000000E+00 0.  1.
<scales pt_clust_3="196.04232" pt_clust_4="31.65562" pt_clust_5="31.29461" pt_clust_6="14000.00000"></scales>
<clustering>
<clus scale="   31.295">  2  5  1 -1</clus>
<clus scale="   31.656">  2  4  1 -1</clus>
<clus scale="  196.042">  2  3  1 -1</clus>
<clus scale="   31.295">  2  3  1 -1</clus>
</clustering>
</event>
<event>
 6    0  0.1631680E+002  0.8216608E+02  0.7546771E-02  0.1323014E+00
         21   -1    0    0  503  502  0.00000000000E+00  0.00000000000E+00  0.52658166082E+02  0.52658166082E+02  0.00000000000E+00 0.  1.
          2   -1    0    0  505    0 -0.00000000000E+00 -0.00000000000E+00 -0.35145971709E+04  0.35145971709E+04  0.00000000000E+00 0. -1.
         21    1    1    2  503  501  0.92177999210E+01 -0.34211527117E+02 -0.10476547869E+03  0.11059476456E+03  0.00000000000E+00 0. -1.
         21    1    1    2  504  502  0.82831165585E+02  0.48408137264E+02 -0.35001681314E+01  0.96003129753E+02  0.00000000000E+00 0.  1.
         21    1    1    2  505  504 -0.58180632721E+02  0.39688542072E+02 -0.39047197250E+03  0.39677263982E+03  0.00000000000E+00 0.  1.
          2    1    1    2  501    0 -0.33868332785E+02 -0.53885152219E+02 -0.29632013854E+04  0.29638848028E+04  0.00000000000E+00 0. -1.
<scales pt_clust_3="35.43157" pt_clust_4="82.16608" pt_clust_5="14000.00000" pt_clust_6="63.81043"></scales>
<clustering>
<clus scale="   35.432">  1  3  2 -1</clus>
<clus scale="   63.810">  2  6  1 -1</clus>
<clus scale="   82.166">  1  4  2 -1</clus>
<clus scale="   35.432">  1  3  2 -1</clus>
</clustering>
</event>
<event>
 6    0  0.1631680E+002  0.7392902E+02  0.7546771E-02  0.1347220E+00
         21   -1    0    0  505  502  0.00000000000E+00  0.00000000000E+00  0.20656060322E+03  0.20656060322E+03  0.00000000000E+00 0.  1.
         -4   -1    0    0    0  501 -0.00000000000E+00 -0.00000000000E+00 -0.23081626472E+03  0.23081626472E+03  0.00000000000E+00 0. -1.
         21    1    1    2  503  502  0.98149330509E+01 -0.32791653356E+02  0.18578222760E+02  0.38945805955E+02  0.00000000000E+00 0. -1.
         21    1    1    2  504  501  0.53834522393E+02 -0.28256198141E+01 -0.55764561356E+02  0.77561757534E+02  0.00000000000E+00 0.  1.
         21    1    1    2  505  504 -0.23036022554E+02  0.10277685970E+03  0.13776325310E+03  0.17341411456E+03  0.00000000000E+00 0.  1.
         -4    1    1    2    0  503 -0.40613432890E+02 -0.67159586528E+02 -0.12483257601E+03  0.14745518989E+03  0.00000000000E+00 0. -1.
<scales pt_clust_3="34.22901" pt_clust_4="54.65051" pt_clust_5="14000.00000" pt_clust_6="73.92902"></scales>
<clustering>
<clus scale="   34.229">  1  3  2 -1</clus>
<clus scale="   54.651">  2  4  1 -1</clus>
<clus scale="   73.929">  2  6  1 -1</clus>
<clus scale="   34.229">  1  3  2 -1</clus>
</clustering>
</event>
<event>
 6    0  0.1631680E+002  0.1613528E+03  0.7546771E-02  0.1187178E+00
          2   -1    0    0  503    0 -0.00000000000E+00  0.00000000000E+00  0.13581944747E+04  0.13581944747E+04  0.00000000000E+00 0. -1.
         21   -1    0    0  501  502  0.00000000000E+00 -0.00000000000E+00 -0.48293374979E+03  0.48293374979E+03  0.00000000000E+00 0. -1.
         21    1    1    2  503  505  0.23861474206E+02  0.28656260700E+02  0.58016076136E+03  0.58135794503E+03  0.00000000000E+00 0.  1.
         21    1    1    2  504  502 -0.83967835894E+02  0.63945963413E+02 -0.31859683497E+03  0.33562423476E+03  0.00000000000E+00 0. -1.
         21    1    1    2  505  504 -0.52372880335E+02 -0.15846219095E+03 -0.10271860520E+03  0.19597014163E+03  0.00000000000E+00 0. -1.
          2    1    1    2  501    0  0.11247924202E+03  0.65859966840E+02  0.71641540369E+03  0.72817590304E+03  0.00000000000E+00 0. -1.
<scales pt_clust_3="37.29010" pt_clust_4="105.52773" pt_clust_5="14000.00000" pt_clust_6="161.35281"></scales>
<clustering>
<clus scale="   37.290">  1  3  2 -1</clus>
<clus scale="  105.528">  2  4  1 -1</clus>
<clus scale="  161.353">  1  6  2 -1</clus>
<clus scale="  105.528">  2  3  1 -1</clus>
</clustering>
</event>
<event>
 6    0  0.1631680E+002  0.1614898E+03  0.7546771E-02  0.1187025E+00
         21   -1    0    0  505  502  0.00000000000E+00  0.00000000000E+00  0.11910685208E+03  0.11910685208E+03  0.00000000000E+00 0. -1.
          2   -1    0    0  504    0 -0.00000000000E+00 -0.00000000000E+00 -0.77436705308E+03  0.77436705308E+03  0.00000000000E+00 0. -1.
         21    1    1    2  503  501 -0.34075133958E+02  0.97350071554E+02 -0.72112728003E+01  0.10339319920E+03  0.00000000000E+00 0. -1.
         21    1    1    2  504  502  0.77363856329E+02 -0.91522379267E+01 -0.16913670315E+03  0.18621534330E+03  0.00000000000E+00 0.  1.
         21    1    1    2  505  503 -0.73599208384E+01  0.48863984797E+02  0.41486763044E+02  0.64521383687E+02  0.00000000000E+00 0. -1.
          2    1    1    2  501    0 -0.35928801532E+02 -0.13706181842E+03 -0.52039898809E+03  0.53934397897E+03  0.00000000000E+00 0. -1.
<scales pt_clust_3="43.36487" pt_clust_4="77.90334" pt_clust_5="43.36487" pt_clust_6="148.84175"></scales>
<clustering>
<clus scale="   43.365">  3  5 -1 -1</clus>
<clus scale="   77.903">  2  4  1 -1</clus>
<clus scale="  148.842">  2  6  1 -1</clus>
<clus scale="  161.490">  1  3  2 -1</clus>
</clustering>
</event>
<event>
 6    0  0.1631680E+002  0.3712623E+03  0.7546771E-02  0.1054211E+00
          1   -1    0    0  505    0 -0.00000000000E+00  0.00000000000E+00  0.45207665180E+03  0.45207665180E+03  0.00000000000E+00 0.  1.
         21   -1    0    0  501  502  0.00000000000E+00 -0.00000000000E+00 -0.31464072498E+03  0.31464072498E+03  0.00000000000E+00 0.  1.
         21    1    1    2  503  504 -0.18702296288E+03  0.17271450194E+03 -0.64451282732E+02  0.26260589420E+03  0.00000000000E+00 0.  1.
         21    1    1    2  504  502 -0.52040569444E+02  0.27587921338E+00 -0.13140392812E+02  0.53674639269E+02  0.00000000000E+00 0.  1.
         21    1    1    2  505  503 -0.30513565304E+02  0.41353272967E+02  0.27596393567E+02  0.58332939156E+02  0.00000000000E+00 0.  1.
          1    1    1    2  501    0  0.26957709763E+03 -0.21434365412E+03  0.18743120880E+03  0.39210390416E+03  0.00000000000E+00 0.  1.
<scales pt_clust_3="44.05805" pt_clust_4="37.65454" pt_clust_5="44.05805" pt_clust_6="344.40530"></scales>
<clustering>
<clus scale="   37.655">  3  4 -1 -1</clus>
<clus scale="   44.058">  3  5 -1 -1</clus>
<clus scale="  344.405">  1  6  2 -1</clus>
<clus scale="  371.262">  2  3  1 -1</clus>
</clustering>
</event>
<event>
 6    0  0.1631680E+002  0.9557509E+02  0.7546771E-02  0.1289886E+00
          2   -1    0    0  505    0 -0.00000000000E+00  0.00000000000E+00  0.11307189908E+04  0.11307189908E+04  0.00000000000E+00 0.  1.
         21   -1    0    0  504  502  0.00000000000E+00 -0.00000000000E+00 -0.48064031290E+03  0.48064031290E+03  0.00000000000E+00 0. -1.
         21    1    1    2  503  501 -0.25145803413E+02 -0.25897738243E+02 -0.83068380480E+02  0.90572402590E+02  0.00000000000E+00 0. -1.
         21    1    1    2  504  503  0.33006723781E+02 -0.10674989592E+02 -0.38422506810E+03  0.38578789791E+03  0.00000000000E+00 0. -1.
         21    1    1    2  505  502 -0.69733741293E+02 -0.54142443062E+02  0.55955882081E+03  0.56648060228E+03  0.00000000000E+00 0. -1.
          2    1    1    2  501    0  0.61872820925E+02  0.90715170897E+02  0.55781330568E+03  0.56851840093E+03  0.00000000000E+00 0.  1.
<scales pt_clust_3="35.91373" pt_clust_4="34.69004" pt_clust_5="14000.00000" pt_clust_6="95.57509"></scales>
<clustering>
<clus scale="   34.690">  2  4  1 -1</clus>
<clus scale="   35.914">  2  3  1 -1</clus>
<clus scale="   95.575">  2  6  1 -1</clus>
<clus scale="   34.690">  2  3  1 -1</clus>
</clustering>
</event>
<event>
 6    0  0.1631680E+002  0.1263573E+03  0.7546771E-02  0.1232963E+00
          2   -1    0    0  503    0 -0.00000000000E+00  0.00000000000E+00  0.17863981717E+04  0.17863981717E+04  0.00000000000E+00 0.  1.
         21   -1    0    0  504  502  0.00000000000E+00 -0.00000000000E+00 -0.93196822848E+03  0.93196822848E+03  0.00000000000E+00 0.  1.
         21    1    1    2  503  505  0.34567505147E+02  0.31307844373E+01  0.20826519966E+03  0.21113765087E+03  0.00000000000E+00 0.  1.
         21    1    1    2  504  501  0.16941385993E+02 -0.48141778483E+02 -0.87293610589E+03  0.87442671869E+03  0.00000000000E+00 0.  1.
         21    1    1    2  505  502  0.33195327339E+02  0.15974482902E+03  0.71404459513E+02  0.17809811059E+03  0.00000000000E+00 0. -1.
          2    1    1    2  501    0 -0.84704218479E+02 -0.11473383498E+03  0.14476963899E+04  0.14547039200E+04  0.00000000000E+00 0.  1.
<scales pt_clust_3="34.70899" pt_clust_4="51.03972" pt_clust_5="126.35727" pt_clust_6="14000.00000"></scales>
<clustering>
<clus scale="   34.709">  1  3  2 -1</clus>
<clus scale="   51.040">  2  4  1 -1</clus>
<clus scale="  126.357">  2  5  1 -1</clus>
<clus scale="   51.040">  2  3  1 -1</clus>
</clustering>
</event>
<event>
 6    0  0.1631680E+002  0.8948014E+02  0.7546771E-02  0.1304116E+00
         21   -1    0    0  504  502  0.00000000000E+00  0.00000000000E+00  0.97021062925E+03  0.97021062925E+03  0.00000000000E+00 0.  1.
          1   -1    0    0  505    0 -0.00000000000E+00 -0.00000000000E+00 -0.23100850378E+04  0.23100850378E+04  0.00000000000E+00 0. -1.
         21    1    1    2  503  502 -0.82764617717E+02 -0.47790017051E+02  0.86713879550E+03  0.87238956799E+03  0.00000000000E+00 0.  1.
         21    1    1    2  504  501  0.71308714840E+02 -0.78541341809E+01  0.86766003297E+02  0.11258312291E+03  0.00000000000E+00 0.  1.
         21    1    1    2  505  503 -0.25766210264E+02  0.24830378497E+02 -0.10206519158E+04  0.10212789915E+04  0.00000000000E+00 0. -1.
          1    1    1    2  501    0  0.37222113141E+02  0.30813772734E+02 -0.12731272916E+04  0.12740439847E+04  0.00000000000E+00 0. -1.
<scales pt_clust_3="14000.00000" pt_clust_4="89.48014" pt_clust_5="35.78331" pt_clust_6="56.58189"></scales>
<clustering>
<clus scale="   35.783">  2  5  1 -1</clus>
<clus scale="   56.582">  2  6  1 -1</clus>
<clus scale="   89.480">  2  4  1 -1</clus>
<clus scale="   89.480">  1  3  2 -1</clus>
</clustering>
</event>
<event>
 6    0  0.1631680E+002  0.8370332E+02  0.7546771E-02  0.1318859E+00
         -1   -1    0    0    0  501 -0.00000000000E+00  0.00000000000E+00  0.45477434959E+03  0.45477434959E+03  0.00000000000E+00 0.  1.
         21   -1    0    0  503  502  0.00000000000E+00 -0.00000000000E+00 -0.47618267967E+02  0.47618267967E+02  0.00000000000E+00 0.  1.
         21    1    1    2  503  504  0.34884130821E+02  0.63398905938E+02  0.47264116623E+02  0.86430437795E+02  0.00000000000E+00 0.  1.
         21    1    1    2  504  505  0.37456652097E+02 -0.15236675470E+02  0.53023575845E+02  0.66683256227E+02  0.00000000000E+00 0.  1.
         21    1    1    2  505  501  0.12224297143E+02  0.36033345687E+02  0.13345844433E+03  0.13877676968E+03  0.00000000000E+00 0.  1.
         -1    1    1    2    0  502 -0.84565080061E+02 -0.84195576156E+02  0.17340994483E+03  0.21050215385E+03  0.00000000000E+00 0.  1.
<scales pt_clust_3="83.70332" pt_clust_4="40.64476" pt_clust_5="38.05043" pt_clust_6="14000.00000"></scales>
<clustering>
<clus scale="   38.050">  1  5  2 -1</clus>
<clus scale="   40.645">  1  4  2 -1</clus>
<clus scale="   83.703">  2  3  1 -1</clus>
<clus scale="   83.703">  2  3  1 -1</clus>
</clustering>
</event>
<event>
 6    0  0.1631680E+002  0.1133771E+03  0.7546771E-02  0.1254441E+00
          2   -1    0    0  504    0 -0.00000000000E+00  0.00000000000E+00  0.26259691620E+04  0.26259691620E+04  0.00000000000E+00 0. -1.
         21   -1    0    0  501  502  0.00000000000E+00 -0.00000000000E+00 -0.61332910284E+02  0.61332910284E+02  0.00000000000E+00 0. -1.
         21    1    1    2  503  502  0.26221365567E+02 -0.31891370339E+02 -0.34970220028E+02  0.54106707561E+02  0.00000000000E+00 0. -1.
         21    1    1    2  504  505 -0.25886523754E+02 -0.45490319177E+02  0.46648394323E+03  0.46941106777E+03  0.00000000000E+00 0. -1.
         21    1    1    2  505  503  0.37848033174E+02  0.13168510521E+03  0.30392314717E+03  0.33338074320E+03  0.00000000000E+00 0. -1.
          2    1    1    2  501    0 -0.38182874986E+02 -0.54303415694E+02  0.18291993814E+04  0.18304035538E+04  0.00000000000E+00 0. -1.
<scales pt_clust_3="41.28704" pt_clust_4="53.73057" pt_clust_5="14000.00000" pt_clust_6="113.37708"></scales>
<clustering>
<clus scale="   41.287">  2  3  1 -1</clus>
<clus scale="   53.731">  1  4  2 -1</clus>
<clus scale="  113.377">  1  6  2 -1</clus>
<clus scale="   41.287">  2  3  1 -1</clus>
</clustering>
</event>
<event>
 6    0  0.1746851E+002  0.1079186E+03  0.7546771E-02  0.1264474E+00
         21   -1    0    0  505  502  0.00000000000E+00  0.00000000000E+00  0.23708345455E+03  0.23708345455E+03  0.00000000000E+00 0. -1.
          1   -1    0    0  503    0 -0.00000000000E+00 -0.00000000000E+00 -0.19354066937E+04  0.19354066937E+04  0.00000000000E+00 0. -1.
         21    1    1    2  503  502  0.92151740316E+02  0.55738875643E+02  0.20524949592E+03  0.23178895806E+03  0.00000000000E+00 0. -1.
         21    1    1    2  504  501 -0.54173478158E+02 -0.50862147225E+02 -0.16538123810E+03  0.18130823939E+03  0.00000000000E+00 0.  1.
         21    1    1    2  505  504  0.21771288901E+02 -0.24497588037E+02 -0.16755382452E+02  0.36808472954E+02  0.00000000000E+00 0.  1.
          1    1    1    2  501    0 -0.59749551059E+02  0.19620859618E+02 -0.17214361145E+04  0.17225844779E+04  0.00000000000E+00 0. -1.
<scales pt_clust_3="107.91862" pt_clust_4="14000.00000" pt_clust_5="32.77378" pt_clust_6="62.81707"></scales>
<clustering>
<clus scale="   32.774">  1  5  2 -1</clus>
<clus scale="   62.817">  2  6  1 -1</clus>
<clus scale="  107.919">  1  3  2 -1</clus>
<clus scale="   32.774">  1  3  2 -1</clus>
</clustering>
</event>
<event>
 6    0  0.1631680E+002  0.8287768E+02  0.7546771E-02  0.1321078E+00
          1   -1    0    0  504    0 -0.00000000000E+00  0.00000000000E+00  0.10856234165E+04  0.10856234165E+04  0.00000000000E+00 0.  1.
         21   -1    0    0  505  502  0.00000000000E+00 -0.00000000000E+00 -0.20353699574E+03  0.20353699574E+03  0.00000000000E+00 0. -1.
         21    1    1    2  503  502  0.18945286589E+02 -0.25766444871E+02 -0.27047444646E+02  0.41885532432E+02  0.00000000000E+00 0. -1.
         21    1    1    2  504  503 -0.68647492160E+02  0.14796173346E+02  0.46898943577E+03  0.47421777253E+03  0.00000000000E+00 0. -1.
         21    1    1    2  505  501 -0.53451864488E+02  0.31450446817E+02 -0.15591204939E+03  0.16779391994E+03  0.00000000000E+00 0. -1.
          1    1    1    2  501    0  0.10315407006E+03 -0.20480175292E+02  0.59605647908E+03  0.60526318738E+03  0.00000000000E+00 0.  1.
<scales pt_clust_3="31.98177" pt_clust_4="14000.00000" pt_clust_5="35.96103" pt_clust_6="82.87768"></scales>
<clustering>
<clus scale="   31.982">  2  3  1 -1</clus>
<clus scale="   35.961">  2  5  1 -1</clus>
<clus scale="   82.878">  2  6  1 -1</clus>
<clus scale="   31.982">  2  3  1 -1</clus>
</clustering>
</event>
<event>
 6    0  0.1631680E+002  0.6755900E+02  0.7546771E-02  0.1368596E+00
         21   -1    0    0  505  502  0.00000000000E+00  0.00000000000E+00  0.34544827923E+03  0.34544827923E+03  0.00000000000E+00 0.  1.
          2   -1    0    0  503    0 -0.00000000000E+00 -0.00000000000E+00 -0.89199222400E+03  0.89199222400E+03  0.00000000000E+00 0.  1.
         21    1    1    2  503  504  0.11307442917E+03  0.13162228422E+02  0.73137392105E+00  0.11384026396E+03  0.00000000000E+00 0. -1.
         21    1    1    2  504  502 -0.50371382909E+02  0.26739414909E+02  0.27762812132E+03  0.28342485120E+03  0.00000000000E+00 0.  1.
         21    1    1    2  505  501 -0.24610035272E+02 -0.40008678170E+02 -0.69927048878E+02  0.84238591689E+02  0.00000000000E+00 0. -1.
          2    1    1    2  501    0 -0.38093010994E+02  0.10703483915E+00 -0.75497639114E+03  0.75593679638E+03  0.00000000000E+00 0.  1.
<scales pt_clust_3="67.55900" pt_clust_4="57.74523" pt_clust_5="14000.00000" pt_clust_6="38.09316"></scales>
<clustering>
<clus scale="   38.093">  2  6  1 -1</clus>
<clus scale="   57.745">  1  4  2 -1</clus>
<clus scale="   67.559">  1  3  2 -1</clus>
<clus scale="   57.745">  1  3  2 -1</clus>
</clustering>
</event>
<event>
 6    0  0.1631680E+002  0.1057462E+03  0.7546771E-02  0.1268656E+00
          2   -1    0    0  505    0 -0.00000000000E+00  0.00000000000E+00  0.64016383264E+03  0.64016383264E+03  0.00000000000E+00 0.  1.
         21   -1    0    0  501  502  0.00000000000E+00 -0.00000000000E+00 -0.36652749421E+03  0.36652749421E+03  0.00000000000E+00 0.  1.
         21    1    1    2  503  504  0.75618352075E+02 -0.65117777004E+02  0.33199352876E+02  0.10516965857E+03  0.00000000000E+00 0.  1.
         21    1    1    2  504  502 -0.60356956394E+01  0.11016529795E+03 -0.31344670041E+03  0.33229754211E+03  0.00000000000E+00 0.  1.
         21    1    1    2  505  503 -0.95110075862E+01 -0.48491854028E+02  0.10186621626E+03  0.11321945587E+03  0.00000000000E+00 0.  1.
          2    1    1    2  501    0 -0.60071648849E+02  0.34443330846E+01  0.45201746970E+03  0.45600467031E+03  0.00000000000E+00 0.  1.
<scales pt_clust_3="14000.00000" pt_clust_4="105.74618" pt_clust_5="49.41578" pt_clust_6="78.00039"></scales>
<clustering>
<clus scale="   49.416">  1  5  2 -1</clus>
<clus scale="   78.000">  1  6  2 -1</clus>
<clus scale="  105.746">  2  4  1 -1</clus>
<clus scale="  105.746">  2  3  1 -1</clus>
</clustering>
</event>
<event>
 6    0  0.1631680E+002  0.1113531E+03  0.7546771E-02  0.1258084E+00
         21   -1    0    0  504  502  0.00000000000E+00  0.00000000000E+00  0.16300033495E+03  0.16300033495E+03  0.00000000000E+00 0. -1.
          2   -1    0    0  505    0 -0.00000000000E+00 -0.00000000000E+00 -0.30801902776E+04  0.30801902776E+04  0.00000000000E+00 0. -1.
         21    1    1    2  503  502  0.42184901731E+02  0.17509150036E+02  0.10522725834E+03  0.11471230173E+03  0.00000000000E+00 0. -1.
         21    1    1    2  504  501  0.89587105886E+01  0.84941162730E+02  0.38902303491E+01  0.85500839256E+02  0.00000000000E+00 0.  1.
         21    1    1    2  505  503 -0.46791176541E+02  0.91487232688E+02 -0.58344875573E+03  0.59242871175E+03  0.00000000000E+00 0. -1.
          2    1    1    2  501    0 -0.43524357788E+01 -0.19393754545E+03 -0.24428586756E+04  0.24505487598E+04  0.00000000000E+00 0. -1.
<scales pt_clust_3="45.67424" pt_clust_4="111.35312" pt_clust_5="102.52457" pt_clust_6="14000.00000"></scales>
<clustering>
<clus scale="   45.674">  1  3  2 -1</clus>
<clus scale="  102.525">  2  5  1 -1</clus>
<clus scale="  111.353">  1  4  2 -1</clus>
<clus scale="   45.674">  1  3  2 -1</clus>
</clustering>
</event>
<event>
 6    0  0.1631680E+002  0.8039800E+02  0.7546771E-02  0.1327926E+00
          1   -1    0    0  504    0 -0.00000000000E+00  0.00000000000E+00  0.19496362792E+04  0.19496362792E+04  0.00000000000E+00 0.  1.
         21   -1    0    0  501  502  0.00000000000E+00 -0.00000000000E+00 -0.87001828816E+02  0.87001828816E+02  0.00000000000E+00 0.  1.
         21    1    1    2  503  505 -0.54768107759E+02  0.11907588970E+02  0.11895882934E+03  0.13150110030E+03  0.00000000000E+00 0. -1.
         21    1    1    2  504  503  0.29194582459E+01 -0.37560505093E+02  0.78992216961E+03  0.79082004831E+03  0.00000000000E+00 0.  1.
         21    1    1    2  505  502 -0.22561598270E+02  0.77370364563E+02 -0.57505871613E+02  0.99005678116E+02  0.00000000000E+00 0.  1.
          1    1    1    2  501    0  0.74410247783E+02 -0.51717448440E+02  0.10112593230E+04  0.10153112813E+04  0.00000000000E+00 0.  1.
<scales pt_clust_3="55.01567" pt_clust_4="37.67379" pt_clust_5="14000.00000" pt_clust_6="80.39800"></scales>
<clustering>
<clus scale="   37.674">  1  4  2 -1</clus>
<clus scale="   55.016">  1  3  2 -1</clus>
<clus scale="   80.398">  1  6  2 -1</clus>
<clus scale="   80.398">  2  3  1 -1</clus>
</clustering>
</event>
<event>
 6    0  0.1631680E+002  0.5945819E+02  0.7546771E-02  0.1400120E+00
          1   -1    0    0  505    0 -0.00000000000E+00  0.00000000000E+00  0.14043010861E+04  0.14043010861E+04  0.00000000000E+00 0. -1.
         21   -1    0    0  504  502  0.00000000000E+00 -0.00000000000E+00 -0.98378447877E+02  0.98378447877E+02  0.00000000000E+00 0.  1.
         21    1    1    2  503  502  0.73783288618E+02  0.11866816115E+02 -0.40512023102E+02  0.85005994023E+02  0.00000000000E+00 0.  1.
         21    1    1    2  504  501 -0.28554982638E+02 -0.49150135405E+02 -0.39347707711E+01  0.56978989679E+02  0.00000000000E+00 0.  1.
         21    1    1    2  505  503  0.14930832245E+02 -0.39146206064E+02  0.13293934893E+03  0.13938517028E+03  0.00000000000E+00 0.  1.
          1    1    1    2  501    0 -0.60159138226E+02  0.76429525354E+02  0.12174300831E+04  0.12213093800E+04  0.00000000000E+00 0. -1.
<scales pt_clust_3="59.45819" pt_clust_4="57.39805" pt_clust_5="41.89696" pt_clust_6="14000.00000"></scales>
<clustering>
<clus scale="   41.897">  1  5  2 -1</clus>
<clus scale="   57.398">  2  4  1 -1</clus>
<clus scale="   59.458">  2  3  1 -1</clus>
<clus scale="   57.398">  2  3  1 -1</clus>
</clustering>
</event>
<event>
 6    0  0.1631680E+002  0.8568097E+02  0.7546771E-02  0.1313661E+00
         21   -1    0    0  505  502  0.00000000000E+00  0.00000000000E+00  0.12821618741E+04  0.12821618741E+04  0.00000000000E+00 0.  1.
         -1   -1    0    0    0  501 -0.00000000000E+00 -0.00000000000E+00 -0.30405495612E+03  0.30405495612E+03  0.00000000000E+00 0. -1.
         21    1    1    2  503  501 -0.83434605066E+01  0.45329695791E+02  0.10308870515E+02  0.47229942463E+02  0.00000000000E+00 0. -1.
         21    1    1    2  504  503  0.59608350666E+02 -0.23814316714E+02  0.25358846406E+02  0.69017014140E+02  0.00000000000E+00 0.  1.
         21    1    1    2  505  504  0.21903767814E+02  0.82629323998E+02  0.11892261821E+04  0.11922945493E+04  0.00000000000E+00 0.  1.
         -1    1    1    2    0  502 -0.73168657974E+02 -0.10414470308E+03 -0.24678698104E+03  0.27767532425E+03  0.00000000000E+00 0. -1.
<scales pt_clust_3="46.09116" pt_clust_4="62.38302" pt_clust_5="14000.00000" pt_clust_6="85.68097"></scales>
<clustering>
<clus scale="   46.091">  2  3  1 -1</clus>
<clus scale="   62.383">  2  4  1 -1</clus>
<clus scale="   85.681">  2  6  1 -1</clus>
<clus scale="   85.681">  1  3  2 -1</clus>
</clustering>
</event>
<event>
 6    0  0.1631680E+002  0.1557616E+03  0.7546771E-02  0.1193567E+00
          1   -1    0    0  503    0 -0.00000000000E+00  0.00000000000E+00  0.93338109495E+03  0.93338109495E+03  0.00000000000E+00 0.  1.
         21   -1    0    0  504  502  0.00000000000E+00 -0.00000000000E+00 -0.48705237056E+03  0.48705237056E+03  0.00000000000E+00 0.  1.
         21    1    1    2  503  505 -0.25105997148E+02 -0.32894470147E+02  0.78624514907E+02  0.88849150831E+02  0.00000000000E+00 0.  1.
         21    1    1    2  504  501 -0.15297632948E+03  0.38303046203E+02 -0.44459517756E+03  0.47173483297E+03  0.00000000000E+00 0.  1.
         21    1    1    2  505  502 -0.17785344945E+01 -0.31881233293E+02  0.49836862563E+01  0.32317384639E+02  0.00000000000E+00 0.  1.
          1    1    1    2  501    0  0.17986086112E+03  0.26472657237E+02  0.80731570078E+03  0.82753209706E+03  0.00000000000E+00 0.  1.
<scales pt_clust_3="41.66643" pt_clust_4="14000.00000" pt_clust_5="31.93080" pt_clust_6="155.76161"></scales>
<clustering>
<clus scale="   31.931">  2  5  1 -1</clus>
<clus scale="   41.666">  1  3  2 -1</clus>
<clus scale="  155.762">  1  6  2 -1</clus>
<clus scale="   31.931">  2  3  1 -1</clus>
</clustering>
</event>
<event>
 6    0  0.1631680E+002  0.1948001E+03  0.7546771E-02  0.1154202E+00
          2   -1    0    0  505    0 -0.00000000000E+00  0.00000000000E+00  0.14713324584E+04  0.14713324584E+04  0.00000000000E+00 0. -1.
         21   -1    0    0  503  502  0.00000000000E+00 -0.00000000000E+00 -0.30367414787E+04  0.30367414787E+04  0.00000000000E+00 0.  1.
         21    1    1    2  503  504  0.68560041978E+01  0.19846757693E+03 -0.27223873150E+04  0.27296206837E+04  0.00000000000E+00 0.  1.
         21    1    1    2  504  501  0.17656124324E+00 -0.16860746648E+03 -0.25789225514E+03  0.30811836068E+03  0.00000000000E+00 0.  1.
         21    1    1    2  505  502 -0.51083363231E+01  0.41099506568E+02 -0.10877842697E+02  0.42820462420E+02  0.00000000000E+00 0.  1.
          2    1    1    2  501    0 -0.19242291180E+01 -0.70959617015E+02  0.14257483925E+04  0.14275144303E+04  0.00000000000E+00 0. -1.
<scales pt_clust_3="194.80012" pt_clust_4="14000.00000" pt_clust_5="41.41575" pt_clust_6="31.44497"></scales>
<clustering>
<clus scale="   41.416">  1  5  2 -1</clus>
<clus scale="   31.445">  1  6  2 -1</clus>
<clus scale="  194.800">  2  3  1 -1</clus>
<clus scale="  194.800">  2  3  1 -1</clus>
</clustering>
</event>
<event>
 6    0  0.1631680E+002  0.8766883E+02  0.7546771E-02  0.1308597E+00
         21   -1    0    0  503  502  0.00000000000E+00  0.00000000000E+00  0.12444997522E+03  0.12444997522E+03  0.00000000000E+00 0.  1.
          1   -1    0    0  504    0 -0.00000000000E+00 -0.00000000000E+00 -0.15182557723E+03  0.15182557723E+03  0.00000000000E+00 0. -1.
         21    1    1    2  503  505 -0.82445932458E+02 -0.50626759950E+02  0.10796850161E+02  0.97349743581E+02  0.00000000000E+00 0.  1.
         21    1    1    2  504  502  0.65726228737E+02  0.45174551744E+02  0.38843333157E+01  0.79848389555E+02  0.00000000000E+00 0. -1.
         21    1    1    2  505  501  0.31959789011E+02 -0.34318084008E+02 -0.18550694537E+02  0.50431014975E+02  0.00000000000E+00 0.  1.
          1    1    1    2  501    0 -0.15240085290E+02  0.39770292215E+02 -0.23506090952E+02  0.48646404331E+02  0.00000000000E+00 0. -1.
<scales pt_clust_3="87.66883" pt_clust_4="14000.00000" pt_clust_5="35.44800" pt_clust_6="42.59033"></scales>
<clustering>
<clus scale="   42.590">  2  6  1 -1</clus>
<clus scale="   35.448">  2  5  1 -1</clus>
<clus scale="   87.669">  2  3  1 -1</clus>
<clus scale="   87.669">  1  3  2 -1</clus>
</clustering>
</event>
<event>
 6    0  0.1631680E+002  0.7864466E+02  0.7546771E-02  0.1332942E+00
         21   -1    0    0  505  502  0.00000000000E+00  0.00000000000E+00  0.11394886482E+03  0.11394886482E+03  0.00000000000E+00 0.  1.
         -1   -1    0    0    0  501 -0.00000000000E+00 -0.00000000000E+00 -0.52341082385E+03  0.52341082385E+03  0.00000000000E+00 0.  1.
         21    1    1    2  503  504  0.10037537014E+03  0.93676322934E+01  0.62685896886E+01  0.10100625071E+03  0.00000000000E+00 0.  1.
         21    1    1    2  504  502 -0.32542070459E+02  0.26710903297E+02  0.31230327600E+02  0.52419386363E+02  0.00000000000E+00 0.  1.
         21    1    1    2  505  501 -0.15060646564E+02 -0.89849869597E+02 -0.34700065433E+03  0.35876075071E+03  0.00000000000E+00 0.  1.
         -1    1    1    2    0  503 -0.52772653118E+02  0.53771334007E+02 -0.99960221980E+02  0.12517330089E+03  0.00000000000E+00 0.  1.
<scales pt_clust_3="81.59075" pt_clust_4="42.10058" pt_clust_5="78.64466" pt_clust_6="14000.00000"></scales>
<clustering>
<clus scale="   42.101">  1  4  2 -1</clus>
<clus scale="   81.591">  1  3  2 -1</clus>
<clus scale="   78.645">  2  5  1 -1</clus>
<clus scale="   42.101">  1  3  2 -1</clus>
</clustering>
</event>
<event>
 6    0  0.1631680E+002  0.9277853E+02  0.7546771E-02  0.1296259E+00
         21   -1    0    0  503  502  0.00000000000E+00  0.00000000000E+00  0.15601249937E+03  0.15601249937E+03  0.00000000000E+00 0. -1.
          2   -1    0    0  504    0 -0.00000000000E+00 -0.00000000000E+00 -0.24965856191E+04  0.24965856191E+04  0.00000000000E+00 0.  1.
         21    1    1    2  503  501 -0.70754721848E+02 -0.86830262189E+02 -0.28865910753E+03  0.30962849587E+03  0.00000000000E+00 0.  1.
         21    1    1    2  504  505  0.50949674852E+02  0.20279818399E+02 -0.39352716211E+03  0.39732954549E+03  0.00000000000E+00 0. -1.
         21    1    1    2  505  502  0.35119205978E+02 -0.15397059770E+01  0.14078893844E+03  0.14511117982E+03  0.00000000000E+00 0. -1.
          2    1    1    2  501    0 -0.15314158983E+02  0.68090149767E+02 -0.17991757885E+04  0.18005288973E+04  0.00000000000E+00 0.  1.
<scales pt_clust_3="92.77853" pt_clust_4="59.54061" pt_clust_5="35.15294" pt_clust_6="14000.00000"></scales>
<clustering>
<clus scale="   35.153">  1  5  2 -1</clus>
<clus scale="   59.541">  2  4  1 -1</clus>
<clus scale="   92.779">  1  3  2 -1</clus>
<clus scale="   35.153">  1  3  2 -1</clus>
</clustering>
</event>
<event>
 6    0  0.1631680E+002  0.1223574E+03  0.7546771E-02  0.1239258E+00
         21   -1    0    0  505  502  0.00000000000E+00  0.00000000000E+00  0.53436836825E+03  0.53436836825E+03  0.00000000000E+00 0.  1.
          2   -1    0    0  504    0 -0.00000000000E+00 -0.00000000000E+00 -0.11744093933E+04  0.11744093933E+04  0.00000000000E+00 0.  1.
         21    1    1    2  503  502  0.21052818771E+02 -0.11043952366E+03 -0.52325468468E+03  0.53519676251E+03  0.00000000000E+00 0.  1.
         21    1    1    2  504  503  0.28313241896E+02  0.79901557661E+02 -0.44845387396E+02  0.95901028952E+02  0.00000000000E+00 0. -1.
         21    1    1    2  505  501 -0.56242366759E+02 -0.10859718387E+03  0.48675258696E+03  0.50188109455E+03  0.00000000000E+00 0.  1.
          2    1    1    2  501    0  0.68763060921E+01  0.13913514987E+03 -0.55869353990E+03  0.57579887551E+03  0.00000000000E+00 0.  1.
<scales pt_clust_3="80.01760" pt_clust_4="84.76968" pt_clust_5="14000.00000" pt_clust_6="122.35745"></scales>
<clustering>
<clus scale="   84.770">  2  4  1 -1</clus>
<clus scale="   80.018">  2  3  1 -1</clus>
<clus scale="  122.357">  2  6  1 -1</clus>
<clus scale="  122.357">  1  3  2 -1</clus>
</clustering>
</event>
<event>
 6    0  0.1631680E+002  0.2056118E+03  0.7546771E-02  0.1145089E+00
         21   -1    0    0  505  502  0.00000000000E+00  0.00000000000E+00  0.23195852994E+04  0.23195852994E+04  0.00000000000E+00 0.  1.
          1   -1    0    0  504    0 -0.00000000000E+00 -0.00000000000E+00 -0.33466377797E+03  0.33466377797E+03  0.00000000000E+00 0.  1.
         21    1    1    2  503  502  0.13883724107E+02 -0.74969474711E+02  0.25532636685E+03  0.26646713408E+03  0.00000000000E+00 0.  1.
         21    1    1    2  504  503 -0.55367490606E+01 -0.58696237137E+02 -0.13484554049E+03  0.14717072954E+03  0.00000000000E+00 0.  1.
         21    1    1    2  505  501  0.16354416416E+03 -0.29952911761E+02  0.19727542948E+04  0.19797483119E+04  0.00000000000E+00 0.  1.
          1    1    1    2  501    0 -0.17189113920E+03  0.16361862361E+03 -0.10831359971E+03  0.26086290195E+03  0.00000000000E+00 0.  1.
<scales pt_clust_3="77.87673" pt_clust_4="58.95680" pt_clust_5="14000.00000" pt_clust_6="205.61182"></scales>
<clustering>
<clus scale="   58.957">  2  4  1 -1</clus>
<clus scale="   77.877">  1  3  2 -1</clus>
<clus scale="  205.612">  2  6  1 -1</clus>
<clus scale="   77.877">  1  3  2 -1</clus>
</clustering>
</event>
<event>
 6    0  0.1631680E+002  0.2130802E+03  0.7546771E-02  0.1139150E+00
          1   -1    0    0  505    0 -0.00000000000E+00  0.00000000000E+00  0.75108090162E+03  0.75108090162E+03  0.00000000000E+00 0. -1.
         21   -1    0    0  504  502  0.00000000000E+00 -0.00000000000E+00 -0.15726799494E+03  0.15726799494E+03  0.00000000000E+00 0.  1.
         21    1    1    2  503  502 -0.38591942742E+02 -0.72216252359E+02  0.28291147666E+02  0.86630907797E+02  0.00000000000E+00 0. -1.
         21    1    1    2  504  501 -0.18611195130E+03  0.12155857355E+03  0.36315453050E+02  0.22523977746E+03  0.00000000000E+00 0.  1.
         21    1    1    2  505  503  0.33457747077E+02 -0.25172627953E+01  0.26425693766E+03  0.26637846489E+03  0.00000000000E+00 0. -1.
          1    1    1    2  501    0  0.19124614697E+03 -0.46825058397E+02  0.26494936830E+03  0.33009974642E+03  0.00000000000E+00 0. -1.
<scales pt_clust_3="80.36051" pt_clust_4="14000.00000" pt_clust_5="33.55231" pt_clust_6="213.08022"></scales>
<clustering>
<clus scale="   33.552">  1  5  2 -1</clus>
<clus scale="   80.361">  2  3  1 -1</clus>
<clus scale="  213.080">  1  6  2 -1</clus>
<clus scale="   80.361">  2  3  1 -1</clus>
</clustering>
</event>
<event>
 6    0  0.1631680E+002  0.1352017E+03  0.7546771E-02  0.1219935E+00
          2   -1    0    0  505    0 -0.00000000000E+00  0.00000000000E+00  0.37039970271E+03  0.37039970271E+03  0.00000000000E+00 0.  1.
         21   -1    0    0  503  502  0.00000000000E+00 -0.00000000000E+00 -0.12483558698E+04  0.12483558698E+04  0.00000000000E+00 0. -1.
         21    1    1    2  503  501 -0.10317680063E+03 -0.12054687607E+03 -0.34471407005E+03  0.37947963266E+03  0.00000000000E+00 0. -1.
         21    1    1    2  504  502  0.11504766683E+03  0.62233131787E+02 -0.86472417575E+03  0.87456093467E+03  0.00000000000E+00 0. -1.
         21    1    1    2  505  504  0.28006380525E+02  0.24932602736E+02  0.96637118600E+01  0.38721820157E+02  0.00000000000E+00 0.  1.
          2    1    1    2  501    0 -0.39877246716E+02  0.33381141542E+02  0.32181836686E+03  0.32599318500E+03  0.00000000000E+00 0.  1.
<scales pt_clust_3="14000.00000" pt_clust_4="135.20173" pt_clust_5="37.49656" pt_clust_6="58.33323"></scales>
<clustering>
<clus scale="   37.497">  1  5  2 -1</clus>
<clus scale="   58.333">  1  6  2 -1</clus>
<clus scale="  135.202">  2  4  1 -1</clus>
<clus scale="  135.202">  2  3  1 -1</clus>
</clustering>
</event>
<event>
 6    0  0.1631680E+002  0.1295109E+03  0.7546771E-02  0.1228183E+00
         21   -1    0    0  504  502  0.00000000000E+00  0.00000000000E+00  0.95520935004E+03  0.95520935004E+03  0.00000000000E+00 0.  1.
          1   -1    0    0  503    0 -0.00000000000E+00 -0.00000000000E+00 -0.14148822434E+03  0.14148822434E+03  0.00000000000E+00 0.  1.
         21    1    1    2  503  505 -0.59518571791E+02  0.37797795796E+02 -0.75563530089E+01  0.70910029092E+02  0.00000000000E+00 0.  1.
         21    1    1    2  504  501  0.12752927672E+02  0.54810909712E+02  0.24574812791E+03  0.25210913383E+03  0.00000000000E+00 0. -1.
         21    1    1    2  505  502  0.12341104374E+03 -0.67216014212E+02  0.64928597476E+03  0.66431961833E+03  0.00000000000E+00 0.  1.
          1    1    1    2  501    0 -0.76645399618E+02 -0.25392691295E+02 -0.73756623966E+02  0.10935879312E+03  0.00000000000E+00 0.  1.
<scales pt_clust_3="71.38104" pt_clust_4="56.27498" pt_clust_5="129.51094" pt_clust_6="14000.00000"></scales>
<clustering>
<clus scale="   56.275">  1  4  2 -1</clus>
<clus scale="   71.381">  2  3  1 -1</clus>
<clus scale="  129.511">  1  5  2 -1</clus>
<clus scale="   56.275">  1  3  2 -1</clus>
</clustering>
</event>
<event>
 6    0  0.1631680E+002  0.7255884E+02  0.7546771E-02  0.1351602E+00
         21   -1    0    0  505  502  0.00000000000E+00  0.00000000000E+00  0.24806561819E+02  0.24806561819E+02  0.00000000000E+00 0. -1.
          2   -1    0    0  504    0 -0.00000000000E+00 -0.00000000000E+00 -0.12055189936E+04  0.12055189936E+04  0.00000000000E+00 0. -1.
         21    1    1    2  503  502 -0.35873318917E+02 -0.57568560141E+02 -0.70038393889E+02  0.97500824332E+02  0.00000000000E+00 0. -1.
         21    1    1    2  504  503 -0.42706983709E+02 -0.40453199924E+02 -0.21049565749E+03  0.21856067730E+03  0.00000000000E+00 0. -1.
         21    1    1    2  505  501  0.97161881185E+02  0.60224149226E+02 -0.56485810535E+03  0.57630899566E+03  0.00000000000E+00 0. -1.
          2    1    1    2  501    0 -0.18581578559E+02  0.37797610839E+02 -0.33532027506E+03  0.33795505813E+03  0.00000000000E+00 0. -1.
<scales pt_clust_3="72.55884" pt_clust_4="56.61545" pt_clust_5="14000.00000" pt_clust_6="42.11810"></scales>
<clustering>
<clus scale="   42.118">  2  6  1 -1</clus>
<clus scale="   56.615">  2  4  1 -1</clus>
<clus scale="   72.559">  1  3  2 -1</clus>
<clus scale="   72.559">  1  3  2 -1</clus>
</clustering>
</event>
<event>
 6    0  0.1631680E+002  0.7313594E+02  0.7546771E-02  0.1349743E+00
          2   -1    0    0  503    0 -0.00000000000E+00  0.00000000000E+00  0.21216336199E+04  0.21216336199E+04  0.00000000000E+00 0.  1.
         21   -1    0    0  505  502  0.00000000000E+00 -0.00000000000E+00 -0.16500630766E+03  0.16500630766E+03  0.00000000000E+00 0.  1.
         21    1    1    2  503  504 -0.72180887435E+02  0.35899011659E+02  0.58197686974E+03  0.58753374070E+03  0.00000000000E+00 0. -1.
         21    1    1    2  504  502 -0.44893342181E+02 -0.19486523687E+01 -0.60620885016E+02  0.75459267942E+02  0.00000000000E+00 0.  1.
         21    1    1    2  505  501  0.44132931255E+02 -0.56531474951E+02 -0.79432976729E+02  0.10701925562E+03  0.00000000000E+00 0.  1.
          2    1    1    2  501    0  0.72941298362E+02  0.22581115661E+02  0.15147043042E+04  0.15166276633E+04  0.00000000000E+00 0.  1.
<scales pt_clust_3="73.13594" pt_clust_4="44.93561" pt_clust_5="58.41304" pt_clust_6="14000.00000"></scales>
<clustering>
<clus scale="   44.936">  2  4  1 -1</clus>
<clus scale="   58.413">  2  5  1 -1</clus>
<clus scale="   73.136">  2  3  1 -1</clus>
<clus scale="   44.936">  2  3  1 -1</clus>
</clustering>
</event>
<event>
 6    0  0.1631680E+002  0.8585125E+02  0.7546771E-02  0.1313221E+00
         21   -1    0    0  503  502  0.00000000000E+00  0.00000000000E+00  0.45360865548E+03  0.45360865548E+03  0.00000000000E+00 0. -1.
          3   -1    0    0  504    0 -0.00000000000E+00 -0.00000000000E+00 -0.22849154158E+03  0.22849154158E+03  0.00000000000E+00 0.  1.
         21    1    1    2  503  501 -0.10295518067E+03  0.19687924354E+02  0.24195529248E+01  0.10484864247E+03  0.00000000000E+00 0.  1.
         21    1    1    2  504  505  0.10175941073E+03 -0.11775537295E+02 -0.95952931295E+02  0.14035884716E+03  0.00000000000E+00 0.  1.
         21    1    1    2  505  502  0.36678042530E+02 -0.31982085326E+02  0.36818056299E+03  0.37138263226E+03  0.00000000000E+00 0. -1.
          3    1    1    2  501    0 -0.35482272592E+02  0.24069698267E+02 -0.49530070713E+02  0.65510075163E+02  0.00000000000E+00 0.  1.
<scales pt_clust_3="85.85125" pt_clust_4="14000.00000" pt_clust_5="48.26492" pt_clust_6="42.87589"></scales>
<clustering>
<clus scale="   42.876">  2  6  1 -1</clus>
<clus scale="   48.265">  1  5  2 -1</clus>
<clus scale="   85.851">  1  3  2 -1</clus>
<clus scale="   48.265">  1  3  2 -1</clus>
</clustering>
</event>
<event>
 6    0  0.1631680E+002  0.6763272E+02  0.7546771E-02  0.1368333E+00
         21   -1    0    0  503  502  0.00000000000E+00  0.00000000000E+00  0.19378063059E+02  0.19378063059E+02  0.00000000000E+00 0. -1.
          2   -1    0    0  504    0 -0.00000000000E+00 -0.00000000000E+00 -0.26619289080E+04  0.26619289080E+04  0.00000000000E+00 0.  1.
         21    1    1    2  503  501  0.41216887258E+02 -0.41797368425E+02 -0.38081033772E+03  0.38530814307E+03  0.00000000000E+00 0.  1.
         21    1    1    2  504  505 -0.64421258949E+02  0.61688020258E+02 -0.71326592363E+03  0.71882111005E+03  0.00000000000E+00 0.  1.
         21    1    1    2  505  502 -0.38312154839E+02 -0.14787258352E+01 -0.13182862956E+02  0.40543750619E+02  0.00000000000E+00 0. -1.
          2    1    1    2  501    0  0.61516526530E+02 -0.18411925998E+02 -0.15352917206E+04  0.15366339673E+04  0.00000000000E+00 0.  1.
<scales pt_clust_3="49.77034" pt_clust_4="14000.00000" pt_clust_5="38.34068" pt_clust_6="67.63272"></scales>
<clustering>
<clus scale="   38.341">  1  5  2 -1</clus>
<clus scale="   49.770">  1  3  2 -1</clus>
<clus scale="   67.633">  2  6  1 -1</clus>
<clus scale="   38.341">  1  3  2 -1</clus>
</clustering>
</event>
<event>
 6    0  0.1631680E+002  0.1138137E+03  0.7546771E-02  0.1253666E+00
         21   -1    0    0  504  502  0.00000000000E+00  0.00000000000E+00  0.27765511739E+03  0.27765511739E+03  0.00000000000E+00 0.  1.
          2   -1    0    0  505    0 -0.00000000000E+00 -0.00000000000E+00 -0.16733448618E+03  0.16733448618E+03  0.00000000000E+00 0.  1.
         21    1    1    2  503  501  0.73652650571E+02  0.10822689236E+03  0.11167907781E+03  0.17207553453E+03  0.00000000000E+00 0.  1.
         21    1    1    2  504  503 -0.33694070119E+02 -0.37743793693E+01  0.45856532930E+02  0.57029447772E+02  0.00000000000E+00 0.  1.
         21    1    1    2  505  502 -0.57273583598E+02  0.10301376840E+02 -0.76573068644E+02  0.96175966772E+02  0.00000000000E+00 0. -1.
          2    1    1    2  501    0  0.17315003147E+02 -0.11475388983E+03  0.29358089116E+02  0.11970865449E+03  0.00000000000E+00 0.  1.
<scales pt_clust_3="113.81375" pt_clust_4="33.90481" pt_clust_5="59.60201" pt_clust_6="14000.00000"></scales>
<clustering>
<clus scale="   33.905">  1  4  2 -1</clus>
<clus scale="   59.602">  2  5  1 -1</clus>
<clus scale="  113.814">  1  3  2 -1</clus>
<clus scale="   33.905">  1  3  2 -1</clus>
</clustering>
</event>
<event>
 6    0  0.1631680E+002  0.1304189E+03  0.7546771E-02  0.1226835E+00
         -1   -1    0    0    0  501 -0.00000000000E+00  0.00000000000E+00  0.52811997850E+02  0.52811997850E+02  0.00000000000E+00 0. -1.
         21   -1    0    0  504  502  0.00000000000E+00 -0.00000000000E+00 -0.21102531366E+04  0.21102531366E+04  0.00000000000E+00 0. -1.
         21    1    1    2  503  502  0.85379714027E+02  0.81714806506E+02 -0.11788548278E+04  0.11847639892E+04  0.00000000000E+00 0. -1.
         21    1    1    2  504  505 -0.17260882634E+03 -0.59889080089E+02 -0.83662826301E+03  0.85634535049E+03  0.00000000000E+00 0. -1.
         21    1    1    2  505  501  0.15257288812E+02 -0.28059105089E+02 -0.37952851821E+02  0.49603600693E+02  0.00000000000E+00 0. -1.
         -1    1    1    2    0  503  0.71971823497E+02  0.62333786724E+01 -0.40051961404E+01  0.72352194046E+02  0.00000000000E+00 0. -1.
<scales pt_clust_3="14000.00000" pt_clust_4="130.41891" pt_clust_5="31.93898" pt_clust_6="84.26909"></scales>
<clustering>
<clus scale="   31.939">  1  5  2 -1</clus>
<clus scale="   84.269">  1  6  2 -1</clus>
<clus scale="  130.419">  1  4  2 -1</clus>
<clus scale="  130.419">  2  3  1 -1</clus>
</clustering>
</event>
<event>
 6    0  0.1631680E+002  0.2146292E+03  0.7546771E-02  0.1137952E+00
          3   -1    0    0  505    0 -0.00000000000E+00  0.00000000000E+00  0.20355142455E+04  0.20355142455E+04  0.00000000000E+00 0. -1.
         21   -1    0    0  503  502  0.00000000000E+00 -0.00000000000E+00 -0.14959200833E+03  0.14959200833E+03  0.00000000000E+00 0. -1.
         21    1    1    2  503  501  0.33134108064E+03 -0.42215118800E+02  0.32171447931E+03  0.46375557589E+03  0.00000000000E+00 0. -1.
         21    1    1    2  504  502 -0.17331898503E+03  0.47999853820E+02  0.47240220976E+02  0.18594379532E+03  0.00000000000E+00 0. -1.
         21    1    1    2  505  504  0.19507910785E+02  0.41648006783E+02  0.17609393301E+03  0.18200051730E+03  0.00000000000E+00 0. -1.
          3    1    1    2  501    0 -0.17753000639E+03 -0.47432741802E+02  0.13408736039E+04  0.13534063654E+04  0.00000000000E+00 0. -1.
<scales pt_clust_3="214.62920" pt_clust_4="14000.00000" pt_clust_5="45.99038" pt_clust_6="164.27821"></scales>
<clustering>
<clus scale="   45.990">  1  5  2 -1</clus>
<clus scale="  164.278">  1  6  2 -1</clus>
<clus scale="  214.629">  1  3  2 -1</clus>
<clus scale="  214.629">  2  3  1 -1</clus>
</clustering>
</event>
<event>
 6    0  0.1631680E+002  0.1539310E+03  0.7546771E-02  0.1195724E+00
         21   -1    0    0  505  502  0.00000000000E+00  0.00000000000E+00  0.18485174547E+03  0.18485174547E+03  0.00000000000E+00 0. -1.
         -2   -1    0    0    0  501 -0.00000000000E+00 -0.00000000000E+00 -0.96013923252E+03  0.96013923252E+03  0.00000000000E+00 0. -1.
         21    1    1    2  503  502 -0.58939671038E+02 -0.10160014679E+03 -0.25565840946E+02  0.12020851415E+03  0.00000000000E+00 0. -1.
         21    1    1    2  504  501  0.24987502314E+02  0.38147929474E+02 -0.26268217842E+03  0.26661126505E+03  0.00000000000E+00 0.  1.
         21    1    1    2  505  504  0.88749158863E+02  0.16595252157E+03  0.61085514322E+02  0.19785876951E+03  0.00000000000E+00 0. -1.
         -2    1    1    2    0  503 -0.54796990139E+02 -0.10250030425E+03 -0.54812498201E+03  0.56031242928E+03  0.00000000000E+00 0. -1.
<scales pt_clust_3="14000.00000" pt_clust_4="45.60307" pt_clust_5="153.93102" pt_clust_6="80.09724"></scales>
<clustering>
<clus scale="   45.603">  2  4  1 -1</clus>
<clus scale="   80.097">  2  6  1 -1</clus>
<clus scale="  153.931">  1  5  2 -1</clus>
<clus scale="  153.931">  1  3  2 -1</clus>
</clustering>
</event>
<event>
 6    0  0.1631680E+002  0.9130039E+02  0.7546771E-02  0.1299733E+00
         -1   -1    0    0    0  501 -0.00000000000E+00  0.00000000000E+00  0.88476916244E+02  0.88476916244E+02  0.00000000000E+00 0. -1.
         21   -1    0    0  504  502  0.00000000000E+00 -0.00000000000E+00 -0.38504085963E+03  0.38504085963E+03  0.00000000000E+00 0.  1.
         21    1    1    2  503  501  0.21314811173E+02  0.24970050902E+02 -0.10364859934E+02  0.34427531699E+02  0.00000000000E+00 0.  1.
         21    1    1    2  504  505  0.33381352080E+02  0.55144846275E+01 -0.15471459991E+03  0.15837086738E+03  0.00000000000E+00 0.  1.
         21    1    1    2  505  503 -0.71147614246E+02  0.71703022811E+02 -0.14460114506E+03  0.17638820155E+03  0.00000000000E+00 0.  1.
         -1    1    1    2    0  502  0.16451450993E+02 -0.10218755834E+03  0.13116661521E+02  0.10433117525E+03  0.00000000000E+00 0. -1.
<scales pt_clust_3="32.83024" pt_clust_4="34.43773" pt_clust_5="14000.00000" pt_clust_6="91.30039"></scales>
<clustering>
<clus scale="   32.830">  1  3  2 -1</clus>
<clus scale="   34.438">  2  4  1 -1</clus>
<clus scale="   91.300">  1  6  2 -1</clus>
<clus scale="   34.438">  2  3  1 -1</clus>
</clustering>
</event>
<event>
 6    0  0.1631680E+002  0.9704327E+02  0.7546771E-02  0.1286639E+00
         21   -1    0    0  501  502  0.00000000000E+00  0.00000000000E+00  0.21081123914E+04  0.21081123914E+04  0.00000000000E+00 0.  1.
          1   -1    0    0  504    0 -0.00000000000E+00 -0.00000000000E+00 -0.37485987146E+02  0.37485987146E+02  0.00000000000E+00 0.  1.
         21    1    1    2  503  505 -0.13642057086E+02  0.77936718892E+02  0.32390655640E+03  0.33343019532E+03  0.00000000000E+00 0.  1.
         21    1    1    2  504  503 -0.76433977053E+01  0.50938754136E+02  0.55190666719E+02  0.75492965859E+02  0.00000000000E+00 0.  1.
         21    1    1    2  505  502 -0.47599447030E+02 -0.97237574649E+02  0.16432299708E+04  0.16467925158E+04  0.00000000000E+00 0.  1.
          1    1    1    2  501    0  0.68884901821E+02 -0.31637898379E+02  0.48299210310E+02  0.89882701502E+02  0.00000000000E+00 0.  1.
<scales pt_clust_3="14000.00000" pt_clust_4="51.50901" pt_clust_5="97.04327" pt_clust_6="63.47033"></scales>
<clustering>
<clus scale="   51.509">  2  4  1 -1</clus>
<clus scale="   63.470">  2  6  1 -1</clus>
<clus scale="   97.043">  1  5  2 -1</clus>
<clus scale="   97.043">  1  3  2 -1</clus>
</clustering>
</event>
<event>
 6    0  0.1631680E+002  0.7040315E+02  0.7546771E-02  0.1358727E+00
         21   -1    0    0  504  502  0.00000000000E+00  0.00000000000E+00  0.97665368937E+02  0.97665368937E+02  0.00000000000E+00 0.  1.
          2   -1    0    0  503    0 -0.00000000000E+00 -0.00000000000E+00 -0.10344903609E+04  0.10344903609E+04  0.00000000000E+00 0.  1.
         21    1    1    2  503  505  0.24400791808E+02 -0.62557135880E+02 -0.78524923881E+03  0.78811494145E+03  0.00000000000E+00 0.  1.
         21    1    1    2  504  501  0.36345847277E+02  0.20410321982E+02  0.28039341416E+02  0.50237501179E+02  0.00000000000E+00 0. -1.
         21    1    1    2  505  502  0.37839536460E+02 -0.37849780591E+02  0.20082941453E+02  0.57164332829E+02  0.00000000000E+00 0.  1.
          2    1    1    2  501    0 -0.98586175545E+02  0.79996594489E+02 -0.19969803604E+03  0.23663895439E+03  0.00000000000E+00 0.  1.
<scales pt_clust_3="14000.00000" pt_clust_4="41.68455" pt_clust_5="66.45873" pt_clust_6="70.40315"></scales>
<clustering>
<clus scale="   41.685">  1  4  2 -1</clus>
<clus scale="   66.459">  1  5  2 -1</clus>
<clus scale="   70.403">  1  6  2 -1</clus>
<clus scale="   41.685">  1  3  2 -1</clus>
</clustering>
</event>
<event>
 6    0  0.1631680E+002  0.1389165E+03  0.7546771E-02  0.1214794E+00
         21   -1    0    0  501  502  0.00000000000E+00  0.00000000000E+00  0.65226563173E+03  0.65226563173E+03  0.00000000000E+00 0. -1.
          2   -1    0    0  505    0 -0.00000000000E+00 -0.00000000000E+00 -0.17385632398E+04  0.17385632398E+04  0.00000000000E+00 0.  1.
         21    1    1    2  503  502 -0.14483938159E+02 -0.84761485356E+02  0.38731184922E+03  0.39674269043E+03  0.00000000000E+00 0. -1.
         21    1    1    2  504  503 -0.48314294162E+02 -0.22360625523E+02  0.25391558103E+03  0.25943667991E+03  0.00000000000E+00 0. -1.
         21    1    1    2  505  504  0.65875491826E+02  0.19186413755E+02 -0.82277987837E+03  0.82563577148E+03  0.00000000000E+00 0.  1.
          2    1    1    2  501    0 -0.30772595057E+01  0.87935697123E+02 -0.90474515991E+03  0.90901372968E+03  0.00000000000E+00 0.  1.
<scales pt_clust_3="49.63943" pt_clust_4="49.63943" pt_clust_5="68.61267" pt_clust_6="123.76519"></scales>
<clustering>
<clus scale="   49.639">  3  4 -1 -1</clus>
<clus scale="   68.613">  2  5  1 -1</clus>
<clus scale="  123.765">  2  6  1 -1</clus>
<clus scale="  138.917">  1  3  2 -1</clus>
</clustering>
</event>
<event>
 6    0  0.1631680E+002  0.1006835E+03  0.7546771E-02  0.1278865E+00
         21   -1    0    0  503  502  0.00000000000E+00  0.00000000000E+00  0.52497869402E+02  0.52497869402E+02  0.00000000000E+00 0.  1.
          2   -1    0    0  505    0 -0.00000000000E+00 -0.00000000000E+00 -0.30352932431E+04  0.30352932431E+04  0.00000000000E+00 0.  1.
         21    1    1    2  503  504 -0.68209579170E+02  0.50377859213E+02 -0.28125952472E+02  0.89339490663E+02  0.00000000000E+00 0.  1.
         21    1    1    2  504  501  0.79581874408E+02 -0.14845533417E+03 -0.34097057751E+03  0.38030671268E+03  0.00000000000E+00 0.  1.
         21    1    1    2  505  502 -0.49151292406E+02  0.26417880674E+02 -0.54245294201E+03  0.54531545756E+03  0.00000000000E+00 0. -1.
          2    1    1    2  501    0  0.37778997168E+02  0.71659594285E+02 -0.20712459017E+04  0.20728294516E+04  0.00000000000E+00 0.  1.
<scales pt_clust_3="86.09891" pt_clust_4="14000.00000" pt_clust_5="55.80102" pt_clust_6="100.68351"></scales>
<clustering>
<clus scale="   55.801">  2  5  1 -1</clus>
<clus scale="   86.099">  1  3  2 -1</clus>
<clus scale="  100.684">  2  6  1 -1</clus>
<clus scale="   86.099">  1  3  2 -1</clus>
</clustering>
</event>
<event>
 6    0  0.1631680E+002  0.1897592E+03  0.7546771E-02  0.1158679E+00
         21   -1    0    0  505  502  0.00000000000E+00  0.00000000000E+00  0.91592422961E+03  0.91592422961E+03  0.00000000000E+00 0.  1.
          2   -1    0    0  503    0 -0.00000000000E+00 -0.00000000000E+00 -0.21896957173E+03  0.21896957173E+03  0.00000000000E+00 0. -1.
         21    1    1    2  503  502  0.37085592054E+02 -0.21247872665E+02 -0.44186784903E+02  0.61475891135E+02  0.00000000000E+00 0.  1.
         21    1    1    2  504  501 -0.56990233418E+01 -0.14942465296E+03  0.28998585515E+03  0.32626983000E+03  0.00000000000E+00 0.  1.
         21    1    1    2  505  504  0.25393825387E+02 -0.45804727524E+02  0.51243959786E+03  0.51510897962E+03  0.00000000000E+00 0.  1.
          2    1    1    2  501    0 -0.56780394100E+02  0.21647725315E+03 -0.61284010240E+02  0.23203910058E+03  0.00000000000E+00 0. -1.
<scales pt_clust_3="42.74124" pt_clust_4="189.75918" pt_clust_5="52.66694" pt_clust_6="14000.00000"></scales>
<clustering>
<clus scale="   42.741">  2  3  1 -1</clus>
<clus scale="   52.667">  1  5  2 -1</clus>
<clus scale="  189.759">  1  4  2 -1</clus>
<clus scale="   52.667">  1  3  2 -1</clus>
</clustering>
</event>
<event>
 6    0  0.1631680E+002  0.1363258E+03  0.7546771E-02  0.1218360E+00
         21   -1    0    0  503  502  0.00000000000E+00  0.00000000000E+00  0.98940352974E+03  0.98940352974E+03  0.00000000000E+00 0. -1.
          1   -1    0    0  505    0 -0.00000000000E+00 -0.00000000000E+00 -0.80066768185E+03  0.80066768185E+03  0.00000000000E+00 0.  1.
         21    1    1    2  503  501 -0.64857270135E+02  0.29690822247E+02 -0.72464825069E+01  0.71697433174E+02  0.00000000000E+00 0.  1.
         21    1    1    2  504  502 -0.30008035963E+02 -0.65201968595E+01  0.60681320747E+03  0.60758971679E+03  0.00000000000E+00 0. -1.
         21    1    1    2  505  504 -0.98599399576E+01 -0.11203392052E+03  0.33450159171E+03  0.35290244065E+03  0.00000000000E+00 0. -1.
          1    1    1    2  501    0  0.10472524606E+03  0.88863295132E+02 -0.74533246878E+03  0.75788162097E+03  0.00000000000E+00 0.  1.
<scales pt_clust_3="73.41842" pt_clust_4="30.70823" pt_clust_5="14000.00000" pt_clust_6="136.32580"></scales>
<clustering>
<clus scale="   30.708">  1  4  2 -1</clus>
<clus scale="   73.418">  1  3  2 -1</clus>
<clus scale="  136.326">  2  6  1 -1</clus>
<clus scale="   30.708">  1  3  2 -1</clus>
</clustering>
</event>
<event>
 6    0  0.1631680E+002  0.1617716E+03  0.7546771E-02  0.1186711E+00
         21   -1    0    0  504  502  0.00000000000E+00  0.00000000000E+00  0.66069013088E+02  0.66069013088E+02  0.00000000000E+00 0. -1.
          1   -1    0    0  503    0 -0.00000000000E+00 -0.00000000000E+00 -0.34361803748E+04  0.34361803748E+04  0.00000000000E+00 0. -1.
         21    1    1    2  503  505 -0.12192295528E+02 -0.37744887403E+02 -0.33636741669E+03  0.33869804783E+03  0.00000000000E+00 0.  1.
         21    1    1    2  504  501  0.11048729705E+03 -0.31906458881E+02 -0.11080522039E+04  0.11140041075E+04  0.00000000000E+00 0. -1.
         21    1    1    2  505  502 -0.12937616087E+03  0.10632520449E+03 -0.52156559732E+02  0.17539540141E+03  0.00000000000E+00 0. -1.
          1    1    1    2  501    0  0.31081159341E+02 -0.36673858208E+02 -0.18735351814E+04  0.18741518312E+04  0.00000000000E+00 0. -1.
<scales pt_clust_3="39.66521" pt_clust_4="14000.00000" pt_clust_5="161.77156" pt_clust_6="64.04875"></scales>
<clustering>
<clus scale="   39.665">  2  3  1 -1</clus>
<clus scale="   64.049">  2  6  1 -1</clus>
<clus scale="  161.772">  1  5  2 -1</clus>
<clus scale="  161.772">  1  3  2 -1</clus>
</clustering>
</event>
<event>
 6    0  0.1631680E+002  0.7277081E+02  0.7546771E-02  0.1350916E+00
         21   -1    0    0  501  502  0.00000000000E+00  0.00000000000E+00  0.26218838993E+03  0.26218838993E+03  0.00000000000E+00 0.  1.
          2   -1    0    0  504    0 -0.00000000000E+00 -0.00000000000E+00 -0.20782308523E+03  0.20782308523E+03  0.00000000000E+00 0.  1.
         21    1    1    2  503  502  0.11110639187E+01 -0.40393094661E+02  0.18336263796E+03  0.18776233264E+03  0.00000000000E+00 0.  1.
         21    1    1    2  504  505 -0.33987285336E+02  0.24036310624E+01 -0.74499700229E+02  0.81921415643E+02  0.00000000000E+00 0.  1.
         21    1    1    2  505  503 -0.38695576774E+02  0.84164960816E+02  0.10442207935E+02  0.93220856023E+02  0.00000000000E+00 0.  1.
          2    1    1    2  501    0  0.71571798191E+02 -0.46175497218E+02 -0.64939840959E+02  0.10710687085E+03  0.00000000000E+00 0.  1.
<scales pt_clust_3="40.35584" pt_clust_4="34.07217" pt_clust_5="14000.00000" pt_clust_6="72.77081"></scales>
<clustering>
<clus scale="   34.072">  2  4  1 -1</clus>
<clus scale="   40.356">  1  3  2 -1</clus>
<clus scale="   72.771">  2  6  1 -1</clus>
<clus scale="   40.356">  1  3  2 -1</clus>
</clustering>
</event>
<event>
 6    0  0.1631680E+002  0.1297403E+03  0.7546771E-02  0.1227842E+00
         21   -1    0    0  504  502  0.00000000000E+00  0.00000000000E+00  0.45478545559E+03  0.45478545559E+03  0.00000000000E+00 0.  1.
          2   -1    0    0  503    0 -0.00000000000E+00 -0.00000000000E+00 -0.85952709605E+03  0.85952709605E+03  0.00000000000E+00 0. -1.
         21    1    1    2  503  502  0.28255883034E+02  0.22819225845E+02 -0.11374257514E+02  0.38058976972E+02  0.00000000000E+00 0. -1.
         21    1    1    2  504  505 -0.10468635929E+03  0.73126726403E+02  0.42700224899E+03  0.44568786452E+03  0.00000000000E+00 0.  1.
         21    1    1    2  505  501  0.20448987588E+02 -0.41219323404E+02 -0.19715719358E+03  0.20245531037E+03  0.00000000000E+00 0.  1.
          2    1    1    2  501    0  0.55981488673E+02 -0.54726628844E+02 -0.62321243836E+03  0.62811039978E+03  0.00000000000E+00 0. -1.
<scales pt_clust_3="36.31958" pt_clust_4="122.66512" pt_clust_5="32.39762" pt_clust_6="32.39762"></scales>
<clustering>
<clus scale="   32.398">  5  6 -1 -1</clus>
<clus scale="   36.320">  1  3  2 -1</clus>
<clus scale="  122.665">  1  4  2 -1</clus>
<clus scale="   36.320">  1  3  2 -1</clus>
</clustering>
</event>
<event>
 6    0  0.1631680E+002  0.9618569E+02  0.7546771E-02  0.1288528E+00
          1   -1    0    0  505    0 -0.00000000000E+00  0.00000000000E+00  0.73091269184E+03  0.73091269184E+03  0.00000000000E+00 0. -1.
         21   -1    0    0  504  502  0.00000000000E+00 -0.00000000000E+00 -0.38179376182E+03  0.38179376182E+03  0.00000000000E+00 0. -1.
         21    1    1    2  503  502 -0.78325293615E+02 -0.15157391208E+02 -0.18965985149E+03  0.20575581983E+03  0.00000000000E+00 0. -1.
         21    1    1    2  504  501 -0.77015415708E+01 -0.30802646671E+02 -0.15075483262E+03  0.15406211845E+03  0.00000000000E+00 0. -1.
         21    1    1    2  505  503 -0.55135588987E+02 -0.50331637682E+02  0.47452731880E+02  0.88458853076E+02  0.00000000000E+00 0. -1.
          1    1    1    2  501    0  0.14116242417E+03  0.96291675562E+02  0.64208088225E+03  0.66442966229E+03  0.00000000000E+00 0. -1.
<scales pt_clust_3="96.18569" pt_clust_4="31.75085" pt_clust_5="77.03453" pt_clust_6="14000.00000"></scales>
<clustering>
<clus scale="   31.751">  2  4  1 -1</clus>
<clus scale="   77.035">  1  5  2 -1</clus>
<clus scale="   96.186">  2  3  1 -1</clus>
<clus scale="   31.751">  2  3  1 -1</clus>
</clustering>
</event>
<event>
 6    0  0.1631680E+002  0.1308008E+03  0.7546771E-02  0.1226272E+00
         21   -1    0    0  505  502  0.00000000000E+00  0.00000000000E+00  0.79484964060E+03  0.79484964060E+03  0.00000000000E+00 0.  1.
          2   -1    0    0  504    0 -0.00000000000E+00 -0.00000000000E+00 -0.20011091723E+03  0.20011091723E+03  0.00000000000E+00 0.  1.
         21    1    1    2  503  501 -0.77207136090E+02  0.29726246113E+02  0.14414213620E+03  0.16619731345E+03  0.00000000000E+00 0.  1.
         21    1    1    2  504  502 -0.21186577899E+02 -0.31713604569E+02  0.10598239193E+03  0.11263610077E+03  0.00000000000E+00 0.  1.
         21    1    1    2  505  503 -0.41405094154E+02 -0.11193301613E+02  0.50278983719E+03  0.50461598489E+03  0.00000000000E+00 0.  1.
          2    1    1    2  501    0  0.13979880814E+03  0.13180660069E+02 -0.15817564194E+03  0.21151115872E+03  0.00000000000E+00 0.  1.
<scales pt_clust_3="14000.00000" pt_clust_4="38.13953" pt_clust_5="66.60114" pt_clust_6="130.80079"></scales>
<clustering>
<clus scale="   38.140">  1  4  2 -1</clus>
<clus scale="   66.601">  1  5  2 -1</clus>
<clus scale="  130.801">  2  6  1 -1</clus>
<clus scale="   38.140">  1  3  2 -1</clus>
</clustering>
</event>
<event>
 6    0  0.1631680E+002  0.7203051E+02  0.7546771E-02  0.1353321E+00
         21   -1    0    0  501  502  0.00000000000E+00  0.00000000000E+00  0.10188525874E+03  0.10188525874E+03  0.00000000000E+00 0.  1.
          2   -1    0    0  505    0 -0.00000000000E+00 -0.00000000000E+00 -0.60769338156E+03  0.60769338156E+03  0.00000000000E+00 0.  1.
         21    1    1    2  503  502  0.55568882372E+02  0.85570236091E+01  0.65668529117E+02  0.86449286044E+02  0.00000000000E+00 0.  1.
         21    1    1    2  504  503  0.58024112221E+02 -0.30562448988E+02 -0.67130857514E+02  0.93847817864E+02  0.00000000000E+00 0.  1.
         21    1    1    2  505  504 -0.47911939929E+02 -0.21625468852E+02 -0.36833000047E+03  0.37206209715E+03  0.00000000000E+00 0.  1.
          2    1    1    2  501    0 -0.65681054664E+02  0.43630894231E+02 -0.13601579396E+03  0.15721943925E+03  0.00000000000E+00 0.  1.
<scales pt_clust_3="54.01169" pt_clust_4="72.03051" pt_clust_5="52.56629" pt_clust_6="14000.00000"></scales>
<clustering>
<clus scale="   52.566">  2  5  1 -1</clus>
<clus scale="   54.012">  1  3  2 -1</clus>
<clus scale="   72.031">  2  4  1 -1</clus>
<clus scale="   54.012">  1  3  2 -1</clus>
</clustering>
</event>
<event>
 6    0  0.1631680E+002  0.9881298E+02  0.7546771E-02  0.1282812E+00
         -4   -1    0    0    0  501 -0.00000000000E+00  0.00000000000E+00  0.92945057968E+03  0.92945057968E+03  0.00000000000E+00 0. -1.
         21   -1    0    0  504  502  0.00000000000E+00 -0.00000000000E+00 -0.61182532450E+02  0.61182532450E+02  0.00000000000E+00 0. -1.
         21    1    1    2  503  505  0.21224998509E+02  0.89008862048E+02  0.18073224968E+02  0.93272287125E+02  0.00000000000E+00 0. -1.
         21    1    1    2  504  503  0.35034924834E+02 -0.99122299992E+01  0.21731070990E+02  0.42402095562E+02  0.00000000000E+00 0.  1.
         21    1    1    2  505  501  0.67061285350E+02 -0.52158440172E+01  0.24832466318E+03  0.25727331646E+03  0.00000000000E+00 0. -1.
         -4    1    1    2    0  502 -0.12332120869E+03 -0.73880788032E+02  0.58013908810E+03  0.59768541298E+03  0.00000000000E+00 0. -1.
<scales pt_clust_3="98.81298" pt_clust_4="36.41014" pt_clust_5="70.40792" pt_clust_6="14000.00000"></scales>
<clustering>
<clus scale="   36.410">  2  4  1 -1</clus>
<clus scale="   70.408">  1  5  2 -1</clus>
<clus scale="   98.813">  2  3  1 -1</clus>
<clus scale="   36.410">  2  3  1 -1</clus>
</clustering>
</event>
<event>
 6    0  0.1631680E+002  0.1212004E+03  0.7546771E-02  0.1241130E+00
         21   -1    0    0  503  502  0.00000000000E+00  0.00000000000E+00  0.35650890446E+03  0.35650890446E+03  0.00000000000E+00 0.  1.
         -3   -1    0    0    0  501 -0.00000000000E+00 -0.00000000000E+00 -0.14896664768E+04  0.14896664768E+04  0.00000000000E+00 0.  1.
         21    1    1    2  503  505  0.19603643095E+02  0.11175085963E+03  0.19036080742E+03  0.22160729783E+03  0.00000000000E+00 0.  1.
         21    1    1    2  504  502 -0.44077476707E+02 -0.13084467926E+03  0.11672110216E+03  0.18079538084E+03  0.00000000000E+00 0.  1.
         21    1    1    2  505  501 -0.27844104856E+02 -0.18254725078E+02 -0.33043161238E+03  0.33210477206E+03  0.00000000000E+00 0.  1.
         -3    1    1    2    0  504  0.52317938469E+02  0.37348544716E+02 -0.11098078696E+04  0.11116679306E+04  0.00000000000E+00 0.  1.
<scales pt_clust_3="121.20042" pt_clust_4="14000.00000" pt_clust_5="33.29458" pt_clust_6="32.40640"></scales>
<clustering>
<clus scale="   33.295">  2  5  1 -1</clus>
<clus scale="   32.406">  2  6  1 -1</clus>
<clus scale="  121.200">  1  3  2 -1</clus>
<clus scale="  121.200">  1  3  2 -1</clus>
</clustering>
</event>
<event>
 6    0  0.1631680E+002  0.1722317E+03  0.7546771E-02  0.1175540E+00
         21   -1    0    0  503  502  0.00000000000E+00  0.00000000000E+00  0.11284871234E+03  0.11284871234E+03  0.00000000000E+00 0.  1.
          2   -1    0    0  505    0 -0.00000000000E+00 -0.00000000000E+00 -0.25925712655E+04  0.25925712655E+04  0.00000000000E+00 0.  1.
         21    1    1    2  503  501 -0.19951109538E+03 -0.78181382964E+02 -0.65691819396E+02  0.22412590426E+03  0.00000000000E+00 0.  1.
         21    1    1    2  504  502  0.12060326055E+03  0.40887109482E+02 -0.12882733342E+03  0.18114464942E+03  0.00000000000E+00 0.  1.
         21    1    1    2  505  504 -0.48661652994E+02 -0.60927361907E+02 -0.36650466147E+03  0.37470757503E+03  0.00000000000E+00 0. -1.
          2    1    1    2  501    0  0.12756948783E+03  0.98221635389E+02 -0.19186987389E+04  0.19254418491E+04  0.00000000000E+00 0.  1.
<scales pt_clust_3="14000.00000" pt_clust_4="172.23174" pt_clust_5="77.97500" pt_clust_6="96.83970"></scales>
<clustering>
<clus scale="   77.975">  2  5  1 -1</clus>
<clus scale="   96.840">  2  6  1 -1</clus>
<clus scale="  172.232">  2  4  1 -1</clus>
<clus scale="  172.232">  1  3  2 -1</clus>
</clustering>
</event>
<event>
 6    0  0.1631680E+002  0.1419671E+03  0.7546771E-02  0.1210706E+00
          2   -1    0    0  503    0 -0.00000000000E+00  0.00000000000E+00  0.20463858839E+04  0.20463858839E+04  0.00000000000E+00 0. -1.
         21   -1    0    0  501  502  0.00000000000E+00 -0.00000000000E+00 -0.29936039097E+03  0.29936039097E+03  0.00000000000E+00 0.  1.
         21    1    1    2  503  505 -0.20683726658E+02  0.30161237851E+02  0.21566897717E+03  0.21874785606E+03  0.00000000000E+00 0. -1.
         21    1    1    2  504  502 -0.37535780115E+02 -0.16729296714E+02 -0.24237845523E+03  0.24583758809E+03  0.00000000000E+00 0.  1.
         21    1    1    2  505  504 -0.94658957897E+02 -0.43324899709E+02  0.35791305696E+01  0.10416417532E+03  0.00000000000E+00 0.  1.
          2    1    1    2  501    0  0.15287846467E+03  0.29892958572E+02  0.17701558405E+04  0.17769966554E+04  0.00000000000E+00 0. -1.
<scales pt_clust_3="36.57208" pt_clust_4="41.10133" pt_clust_5="141.96713" pt_clust_6="14000.00000"></scales>
<clustering>
<clus scale="   36.572">  1  3  2 -1</clus>
<clus scale="   41.101">  2  4  1 -1</clus>
<clus scale="  141.967">  2  5  1 -1</clus>
<clus scale="   41.101">  2  3  1 -1</clus>
</clustering>
</event>
<event>
 6    0  0.1631680E+002  0.1138601E+03  0.7546771E-02  0.1253584E+00
         21   -1    0    0  504  502  0.00000000000E+00  0.00000000000E+00  0.11629158031E+03  0.11629158031E+03  0.00000000000E+00 0. -1.
         -1   -1    0    0    0  501 -0.00000000000E+00 -0.00000000000E+00 -0.76698427445E+03  0.76698427445E+03  0.00000000000E+00 0.  1.
         21    1    1    2  503  501 -0.23089675628E+02 -0.24542304384E+02 -0.42483529632E+03  0.42616955173E+03  0.00000000000E+00 0.  1.
         21    1    1    2  504  503 -0.32086558093E+02 -0.23751357872E+02 -0.60812545397E+02  0.72745033430E+02  0.00000000000E+00 0. -1.
         21    1    1    2  505  502  0.12557645937E+02  0.11997769255E+03  0.66856143000E+02  0.13792057511E+03  0.00000000000E+00 0. -1.
         -1    1    1    2    0  505  0.42618587783E+02 -0.71684030296E+02 -0.23190099542E+03  0.24644069449E+03  0.00000000000E+00 0.  1.
<scales pt_clust_3="33.69656" pt_clust_4="46.42029" pt_clust_5="14000.00000" pt_clust_6="113.86013"></scales>
<clustering>
<clus scale="   33.697">  2  3  1 -1</clus>
<clus scale="   46.420">  2  4  1 -1</clus>
<clus scale="  113.860">  2  6  1 -1</clus>
<clus scale="  113.860">  1  3  2 -1</clus>
</clustering>
</event>
<event>
 6    0  0.1631680E+002  0.1365738E+03  0.7546771E-02  0.1218015E+00
         21   -1    0    0  501  502  0.00000000000E+00  0.00000000000E+00  0.35772286528E+02  0.35772286528E+02  0.00000000000E+00 0. -1.
          1   -1    0    0  505    0 -0.00000000000E+00 -0.00000000000E+00 -0.22550158745E+04  0.22550158745E+04  0.00000000000E+00 0. -1.
         21    1    1    2  503  502 -0.48733441902E+02  0.93777503703E+01 -0.70449643940E+02  0.86174490964E+02  0.00000000000E+00 0. -1.
         21    1    1    2  504  503  0.29471563435E+02 -0.90423318662E+02 -0.10789104663E+03  0.14382429403E+03  0.00000000000E+00 0. -1.
         21    1    1    2  505  504  0.75619598167E+02  0.16083225999E+03 -0.15581375978E+04  0.15682404513E+04  0.00000000000E+00 0. -1.
          1    1    1    2  501    0 -0.56357719700E+02 -0.79786691702E+02 -0.48276529963E+03  0.49254892475E+03  0.00000000000E+00 0. -1.
<scales pt_clust_3="49.62752" pt_clust_4="84.40790" pt_clust_5="14000.00000" pt_clust_6="136.57377"></scales>
<clustering>
<clus scale="   49.628">  1  3  2 -1</clus>
<clus scale="   84.408">  1  4  2 -1</clus>
<clus scale="  136.574">  2  6  1 -1</clus>
<clus scale="   49.628">  1  3  2 -1</clus>
</clustering>
</event>
<event>
 6    0  0.1631680E+002  0.6537872E+02  0.7546771E-02  0.1376553E+00
         21   -1    0    0  501  502  0.00000000000E+00  0.00000000000E+00  0.15015545773E+03  0.15015545773E+03  0.00000000000E+00 0. -1.
          1   -1    0    0  503    0 -0.00000000000E+00 -0.00000000000E+00 -0.22084838061E+03  0.22084838061E+03  0.00000000000E+00 0.  1.
         21    1    1    2  503  504 -0.60615612855E+02 -0.45250272601E+02 -0.83407664733E+02  0.11259963689E+03  0.00000000000E+00 0.  1.
         21    1    1    2  504  505 -0.63074195685E+01  0.60495811629E+02 -0.26004749892E+02  0.66149631769E+02  0.00000000000E+00 0.  1.
         21    1    1    2  505  502  0.17843702304E+02  0.42268261298E+02  0.89915016461E+02  0.10094411231E+03  0.00000000000E+00 0. -1.
          1    1    1    2  501    0  0.49079330119E+02 -0.57513800326E+02 -0.51195524722E+02  0.91310457366E+02  0.00000000000E+00 0.  1.
<scales pt_clust_3="65.37872" pt_clust_4="14000.00000" pt_clust_5="45.88032" pt_clust_6="64.96638"></scales>
<clustering>
<clus scale="   45.880">  1  5  2 -1</clus>
<clus scale="   65.379">  2  3  1 -1</clus>
<clus scale="   64.966">  1  6  2 -1</clus>
<clus scale="   45.880">  1  3  2 -1</clus>
</clustering>
</event>
<event>
 6    0  0.1631680E+002  0.1009350E+03  0.7546771E-02  0.1278342E+00
          2   -1    0    0  505    0 -0.00000000000E+00  0.00000000000E+00  0.69894019210E+03  0.69894019210E+03  0.00000000000E+00 0. -1.
         21   -1    0    0  503  502  0.00000000000E+00 -0.00000000000E+00 -0.54672663009E+03  0.54672663009E+03  0.00000000000E+00 0. -1.
         21    1    1    2  503  501 -0.57294433016E+02 -0.49972398079E+02 -0.18707241880E+03  0.20193063784E+03  0.00000000000E+00 0. -1.
         21    1    1    2  504  502  0.26892161392E+02 -0.47951204813E+02 -0.32680035373E+03  0.33139248269E+03  0.00000000000E+00 0. -1.
         21    1    1    2  505  504 -0.35990493049E+02 -0.62572011572E+02  0.12838278870E+03  0.14728446169E+03  0.00000000000E+00 0. -1.
          2    1    1    2  501    0  0.66392764674E+02  0.16049561446E+03  0.53770354584E+03  0.56505923997E+03  0.00000000000E+00 0. -1.
<scales pt_clust_3="100.93496" pt_clust_4="54.97733" pt_clust_5="73.43571" pt_clust_6="14000.00000"></scales>
<clustering>
<clus scale="   54.977">  2  4  1 -1</clus>
<clus scale="   73.436">  1  5  2 -1</clus>
<clus scale="  100.935">  2  3  1 -1</clus>
<clus scale="   54.977">  2  3  1 -1</clus>
</clustering>
</event>
<event>
 6    0  0.1631680E+002  0.8551980E+02  0.7546771E-02  0.1314079E+00
          1   -1    0    0  505    0 -0.00000000000E+00  0.00000000000E+00  0.25425418197E+03  0.25425418197E+03  0.00000000000E+00 0.  1.
         21   -1    0    0  501  502  0.00000000000E+00 -0.00000000000E+00 -0.52648766486E+03  0.52648766486E+03  0.00000000000E+00 0.  1.
         21    1    1    2  503  504 -0.93076101252E+02 -0.44825466397E+02 -0.33249816656E+02  0.10852664820E+03  0.00000000000E+00 0.  1.
         21    1    1    2  504  502  0.33845614314E+02 -0.14074424655E+02 -0.43638647128E+03  0.43792324367E+03  0.00000000000E+00 0.  1.
         21    1    1    2  505  503  0.25548092918E+02 -0.17848127279E+02  0.17306478973E+02  0.35647930004E+02  0.00000000000E+00 0.  1.
          1    1    1    2  501    0  0.33682394021E+02  0.76748018332E+02  0.18009632607E+03  0.19864402495E+03  0.00000000000E+00 0.  1.
<scales pt_clust_3="14000.00000" pt_clust_4="36.75806" pt_clust_5="31.16506" pt_clust_6="85.51980"></scales>
<clustering>
<clus scale="   31.165">  1  5  2 -1</clus>
<clus scale="   36.758">  2  4  1 -1</clus>
<clus scale="   85.520">  1  6  2 -1</clus>
<clus scale="   36.758">  2  3  1 -1</clus>
</clustering>
</event>
<event>
 6    0  0.2756866E+002  0.1653290E+03  0.7546771E-02  0.1182808E+00
         21   -1    0    0  501  502  0.00000000000E+00  0.00000000000E+00  0.13135391955E+04  0.13135391955E+04  0.00000000000E+00 0. -1.
          2   -1    0    0  503    0 -0.00000000000E+00 -0.00000000000E+00 -0.60301649523E+03  0.60301649523E+03  0.00000000000E+00 0.  1.
         21    1    1    2  503  505 -0.16558208531E+02  0.38620789064E+02  0.12115186558E+02  0.43732337726E+02  0.00000000000E+00 0. -1.
         21    1    1    2  504  502  0.10843319124E+03 -0.12589531349E+03  0.12324721197E+04  0.12436216920E+04  0.00000000000E+00 0. -1.
         21    1    1    2  505  504 -0.77974787258E+02 -0.12220797740E+02  0.66756205428E+01  0.79208454441E+02  0.00000000000E+00 0.  1.
          2    1    1    2  501    0 -0.13900195452E+02  0.99495322164E+02 -0.54074022659E+03  0.54999320652E+03  0.00000000000E+00 0.  1.
<scales pt_clust_3="42.02070" pt_clust_4="14000.00000" pt_clust_5="79.60737" pt_clust_6="165.32897"></scales>
<clustering>
<clus scale="   42.021">  2  3  1 -1</clus>
<clus scale="   79.607">  2  5  1 -1</clus>
<clus scale="  165.329">  2  6  1 -1</clus>
<clus scale="  165.329">  1  3  2 -1</clus>
</clustering>
</event>
<event>
 6    0  0.1631680E+002  0.1166689E+03  0.7546771E-02  0.1248696E+00
         21   -1    0    0  505  502  0.00000000000E+00  0.00000000000E+00  0.46154021671E+02  0.46154021671E+02  0.00000000000E+00 0. -1.
          2   -1    0    0  504    0 -0.00000000000E+00 -0.00000000000E+00 -0.19038503716E+04  0.19038503716E+04  0.00000000000E+00 0.  1.
         21    1    1    2  503  501 -0.34051903316E+02  0.47089552688E+02 -0.39024880189E+02  0.69999281179E+02  0.00000000000E+00 0. -1.
         21    1    1    2  504  502 -0.54436615266E+01 -0.69709217567E+02 -0.14869870871E+04  0.14886301104E+04  0.00000000000E+00 0.  1.
         21    1    1    2  505  503 -0.23431151850E+02  0.52309524371E+02 -0.51935340653E+01  0.57552393634E+02  0.00000000000E+00 0. -1.
          2    1    1    2  501    0  0.62926716693E+02 -0.29689859493E+02 -0.32649084865E+03  0.33382260810E+03  0.00000000000E+00 0.  1.
<scales pt_clust_3="33.38035" pt_clust_4="111.72267" pt_clust_5="33.38035" pt_clust_6="69.57916"></scales>
<clustering>
<clus scale="   33.380">  3  5 -1 -1</clus>
<clus scale="   69.579">  2  6  1 -1</clus>
<clus scale="  111.723">  2  4  1 -1</clus>
<clus scale="  116.669">  1  3  2 -1</clus>
</clustering>
</event>
<event>
 6    0  0.1631680E+002  0.8358731E+02  0.7546771E-02  0.1319169E+00
         21   -1    0    0  505  502  0.00000000000E+00  0.00000000000E+00  0.10075279971E+03  0.10075279971E+03  0.00000000000E+00 0.  1.
         -1   -1    0    0    0  501 -0.00000000000E+00 -0.00000000000E+00 -0.70326831619E+03  0.70326831619E+03  0.00000000000E+00 0. -1.
         21    1    1    2  503  501  0.32678593222E+02 -0.63271462708E+01 -0.14042230409E+03  0.14431336293E+03  0.00000000000E+00 0.  1.
         21    1    1    2  504  502 -0.57479108243E+02 -0.88468910859E+02  0.37378356231E+02  0.11192737640E+03  0.00000000000E+00 0.  1.
         21    1    1    2  505  503  0.38490642270E+02  0.81525438031E+01  0.13178450922E+01  0.39366613119E+02  0.00000000000E+00 0.  1.
         -1    1    1    2    0  504 -0.13690127249E+02  0.86643513326E+02 -0.50078941371E+03  0.50841376345E+03  0.00000000000E+00 0. -1.
<scales pt_clust_3="33.28548" pt_clust_4="14000.00000" pt_clust_5="40.38680" pt_clust_6="83.58731"></scales>
<clustering>
<clus scale="   33.285">  2  3  1 -1</clus>
<clus scale="   40.387">  1  5  2 -1</clus>
<clus scale="   83.587">  2  6  1 -1</clus>
<clus scale="   40.387">  1  3  2 -1</clus>
</clustering>
</event>
<event>
 6    0  0.1631680E+002  0.6532234E+02  0.7546771E-02  0.1376763E+00
         21   -1    0    0  505  502  0.00000000000E+00  0.00000000000E+00  0.91722134294E+02  0.91722134294E+02  0.00000000000E+00 0. -1.
          2   -1    0    0  503    0 -0.00000000000E+00 -0.00000000000E+00 -0.16647628551E+04  0.16647628551E+04  0.00000000000E+00 0. -1.
         21    1    1    2  503  504 -0.48778920453E+02 -0.26581133938E+02 -0.15452488223E+03  0.16420681773E+03  0.00000000000E+00 0. -1.
         21    1    1    2  504  502  0.49368020152E+01 -0.49784313014E+02 -0.22131556882E+02  0.54705170198E+02  0.00000000000E+00 0. -1.
         21    1    1    2  505  501 -0.67246424721E+02  0.36818617584E+02  0.46640299894E+02  0.89738563688E+02  0.00000000000E+00 0. -1.
          2    1    1    2  501    0  0.11108854316E+03  0.39546829368E+02 -0.14430245816E+04  0.14478344378E+04  0.00000000000E+00 0. -1.
<scales pt_clust_3="56.87869" pt_clust_4="50.02849" pt_clust_5="65.32234" pt_clust_6="14000.00000"></scales>
<clustering>
<clus scale="   50.028">  1  4  2 -1</clus>
<clus scale="   56.879">  2  3  1 -1</clus>
<clus scale="   65.322">  1  5  2 -1</clus>
<clus scale="   50.028">  1  3  2 -1</clus>
</clustering>
</event>
<event>
 6    0  0.1631680E+002  0.1351870E+03  0.7546771E-02  0.1219956E+00
         21   -1    0    0  505  502  0.00000000000E+00  0.00000000000E+00  0.59968615648E+03  0.59968615648E+03  0.00000000000E+00 0. -1.
          2   -1    0    0  504    0 -0.00000000000E+00 -0.00000000000E+00 -0.58910435596E+03  0.58910435596E+03  0.00000000000E+00 0. -1.
         21    1    1    2  503  502 -0.56128448641E+02 -0.35137155248E+02  0.48039319117E+03  0.48493570765E+03  0.00000000000E+00 0. -1.
         21    1    1    2  504  503 -0.95167936777E+02  0.66190494858E+02  0.71019466997E+01  0.11614024043E+03  0.00000000000E+00 0. -1.
         21    1    1    2  505  501  0.25586390333E+02  0.26539153287E+02  0.38956794376E+02  0.53634148223E+02  0.00000000000E+00 0. -1.
          2    1    1    2  501    0  0.12570999508E+03 -0.57592492898E+02 -0.51587013172E+03  0.53408041614E+03  0.00000000000E+00 0. -1.
<scales pt_clust_3="35.87502" pt_clust_4="14000.00000" pt_clust_5="36.86448" pt_clust_6="135.18697"></scales>
<clustering>
<clus scale="   36.864">  1  5  2 -1</clus>
<clus scale="   35.875">  1  3  2 -1</clus>
<clus scale="  135.187">  2  6  1 -1</clus>
<clus scale="   36.864">  1  3  2 -1</clus>
</clustering>
</event>
<event>
 6    0  0.1631680E+002  0.1422476E+03  0.7546771E-02  0.1210336E+00
         21   -1    0    0  505  502  0.00000000000E+00  0.00000000000E+00  0.67313917281E+03  0.67313917281E+03  0.00000000000E+00 0. -1.
         -1   -1    0    0    0  501 -0.00000000000E+00 -0.00000000000E+00 -0.84621620987E+03  0.84621620987E+03  0.00000000000E+00 0.  1.
         21    1    1    2  503  501 -0.12643870063E+03  0.10964371146E+02 -0.34456288226E+03  0.36719278626E+03  0.00000000000E+00 0.  1.
         21    1    1    2  504  502 -0.39070015337E+02  0.67575858443E+02  0.30325752504E+03  0.31314228273E+03  0.00000000000E+00 0. -1.
         21    1    1    2  505  503  0.47552752645E+01 -0.15969060106E+03  0.31726635555E+03  0.35522055272E+03  0.00000000000E+00 0. -1.
         -1    1    1    2    0  504  0.16075344070E+03  0.81150371468E+02 -0.44903803539E+03  0.48379976097E+03  0.00000000000E+00 0.  1.
<scales pt_clust_3="142.24756" pt_clust_4="78.05743" pt_clust_5="102.31512" pt_clust_6="14000.00000"></scales>
<clustering>
<clus scale="   78.057">  1  4  2 -1</clus>
<clus scale="  102.315">  1  5  2 -1</clus>
<clus scale="  142.248">  2  3  1 -1</clus>
<clus scale="   78.057">  1  3  2 -1</clus>
</clustering>
</event>
<event>
 6    0  0.1631680E+002  0.1309154E+03  0.7546771E-02  0.1226104E+00
          1   -1    0    0  505    0 -0.00000000000E+00  0.00000000000E+00  0.53907183766E+03  0.53907183766E+03  0.00000000000E+00 0. -1.
         21   -1    0    0  503  502  0.00000000000E+00 -0.00000000000E+00 -0.57012107233E+03  0.57012107233E+03  0.00000000000E+00 0. -1.
         21    1    1    2  503  501 -0.10602418902E+03 -0.59553871202E+02 -0.39455843381E+03  0.41287304335E+03  0.00000000000E+00 0. -1.
         21    1    1    2  504  502 -0.25362662654E+02  0.50903069491E+02 -0.14487513864E+03  0.15563801893E+03  0.00000000000E+00 0. -1.
         21    1    1    2  505  504 -0.44481844258E+01  0.41134769267E+02  0.16200584860E+03  0.16720571332E+03  0.00000000000E+00 0. -1.
          1    1    1    2  501    0  0.13583503610E+03 -0.32483967555E+02  0.34637848919E+03  0.37347613438E+03  0.00000000000E+00 0. -1.
<scales pt_clust_3="130.91538" pt_clust_4="57.42966" pt_clust_5="41.37458" pt_clust_6="14000.00000"></scales>
<clustering>
<clus scale="   41.375">  1  5  2 -1</clus>
<clus scale="   57.430">  2  4  1 -1</clus>
<clus scale="  130.915">  2  3  1 -1</clus>
<clus scale="   57.430">  2  3  1 -1</clus>
</clustering>
</event>
<event>
 6    0  0.1631680E+002  0.1123999E+03  0.7546771E-02  0.1256189E+00
          2   -1    0    0  504    0 -0.00000000000E+00  0.00000000000E+00  0.18580366783E+03  0.18580366783E+03  0.00000000000E+00 0. -1.
         21   -1    0    0  505  502  0.00000000000E+00 -0.00000000000E+00 -0.94366964780E+03  0.94366964780E+03  0.00000000000E+00 0.  1.
         21    1    1    2  503  502  0.40997758606E+02  0.15424920294E+02 -0.33604300086E+02  0.55208634842E+02  0.00000000000E+00 0.  1.
         21    1    1    2  504  503  0.58867934867E+02 -0.19028600502E+02 -0.78605191361E+02  0.10003148255E+03  0.00000000000E+00 0.  1.
         21    1    1    2  505  501 -0.39036285686E+01 -0.44123255572E+02 -0.79178040013E+03  0.79301847521E+03  0.00000000000E+00 0.  1.
          2    1    1    2  501    0 -0.95962064904E+02  0.47726935780E+02  0.14612391160E+03  0.18121472303E+03  0.00000000000E+00 0. -1.
<scales pt_clust_3="32.83118" pt_clust_4="32.83118" pt_clust_5="44.29560" pt_clust_6="105.41046"></scales>
<clustering>
<clus scale="   32.831">  3  4 -1 -1</clus>
<clus scale="   44.296">  2  5  1 -1</clus>
<clus scale="  105.410">  1  6  2 -1</clus>
<clus scale="   44.296">  2  3  1 -1</clus>
</clustering>
</event>
<event>
 6    0  0.1631680E+002  0.8824184E+02  0.7546771E-02  0.1307166E+00
          2   -1    0    0  504    0 -0.00000000000E+00  0.00000000000E+00  0.12485854179E+04  0.12485854179E+04  0.00000000000E+00 0. -1.
         21   -1    0    0  503  502  0.00000000000E+00 -0.00000000000E+00 -0.13305328379E+03  0.13305328379E+03  0.00000000000E+00 0.  1.
         21    1    1    2  503  505 -0.36975845283E+02 -0.35325364685E+02 -0.34862616110E+02  0.61891005215E+02  0.00000000000E+00 0.  1.
         21    1    1    2  504  502  0.25515842993E+02  0.70488504132E+02  0.23744971822E+03  0.24900212076E+03  0.00000000000E+00 0. -1.
         21    1    1    2  505  501 -0.49590388911E+02  0.62221118140E+02 -0.54535598529E+02  0.96461420899E+02  0.00000000000E+00 0. -1.
          2    1    1    2  501    0  0.61050391201E+02 -0.97384257587E+02  0.96748063048E+03  0.97428415477E+03  0.00000000000E+00 0. -1.
<scales pt_clust_3="51.13799" pt_clust_4="71.85697" pt_clust_5="14000.00000" pt_clust_6="88.24184"></scales>
<clustering>
<clus scale="   51.138">  2  3  1 -1</clus>
<clus scale="   71.857">  1  4  2 -1</clus>
<clus scale="   88.242">  1  6  2 -1</clus>
<clus scale="   51.138">  2  3  1 -1</clus>
</clustering>
</event>
<event>
 6    0  0.1631680E+002  0.2366857E+03  0.7546771E-02  0.1122021E+00
         21   -1    0    0  505  502  0.00000000000E+00  0.00000000000E+00  0.36418007511E+03  0.36418007511E+03  0.00000000000E+00 0. -1.
          1   -1    0    0  503    0 -0.00000000000E+00 -0.00000000000E+00 -0.93689126794E+03  0.93689126794E+03  0.00000000000E+00 0. -1.
         21    1    1    2  503  504 -0.28154943625E+02 -0.27403486204E+02 -0.25554471166E+03  0.25854738746E+03  0.00000000000E+00 0. -1.
         21    1    1    2  504  502 -0.31593606481E+03  0.19165943560E+03 -0.17472530208E+02  0.36993813755E+03  0.00000000000E+00 0. -1.
         21    1    1    2  505  501  0.19157045872E+03 -0.10088510850E+02  0.10112672997E+03  0.21685855810E+03  0.00000000000E+00 0. -1.
          1    1    1    2  501    0  0.15252054971E+03 -0.15416743855E+03 -0.40082068093E+03  0.45572725994E+03  0.00000000000E+00 0. -1.
<scales pt_clust_3="39.28934" pt_clust_4="14000.00000" pt_clust_5="189.58135" pt_clust_6="236.68575"></scales>
<clustering>
<clus scale="   39.289">  2  3  1 -1</clus>
<clus scale="  189.581">  1  5  2 -1</clus>
<clus scale="  236.686">  2  6  1 -1</clus>
<clus scale="  189.581">  1  3  2 -1</clus>
</clustering>
</event>
<event>
 6    0  0.1631680E+002  0.9752054E+02  0.7546771E-02  0.1285598E+00
          2   -1    0    0  503    0 -0.00000000000E+00  0.00000000000E+00  0.76612252261E+03  0.76612252261E+03  0.00000000000E+00 0. -1.
         21   -1    0    0  505  502  0.00000000000E+00 -0.00000000000E+00 -0.81048008256E+03  0.81048008256E+03  0.00000000000E+00 0. -1.
         21    1    1    2  503  504  0.88503641224E+02  0.22047263173E+01  0.44936727039E+03  0.45800512991E+03  0.00000000000E+00 0. -1.
         21    1    1    2  504  502  0.50619699101E+02  0.57174475894E+02 -0.75141067489E+03  0.75528092586E+03  0.00000000000E+00 0. -1.
         21    1    1    2  505  501 -0.12380870214E+02 -0.59889431320E+02 -0.14690551191E+02  0.62895486527E+02  0.00000000000E+00 0. -1.
          2    1    1    2  501    0 -0.12674247011E+03  0.51022910904E+00  0.27237639574E+03  0.30042106287E+03  0.00000000000E+00 0. -1.
<scales pt_clust_3="14000.00000" pt_clust_4="38.55473" pt_clust_5="61.15578" pt_clust_6="97.52054"></scales>
<clustering>
<clus scale="   61.156">  2  5  1 -1</clus>
<clus scale="   38.555">  2  4  1 -1</clus>
<clus scale="   97.521">  2  6  1 -1</clus>
<clus scale="   61.156">  2  3  1 -1</clus>
</clustering>
</event>
<event>
 6    0  0.1631680E+002  0.1563655E+03  0.7546771E-02  0.1192862E+00
          2   -1    0    0  502    0 -0.00000000000E+00  0.00000000000E+00  0.22742899181E+04  0.22742899181E+04  0.00000000000E+00 0.  1.
         21   -1    0    0  503  502  0.00000000000E+00 -0.00000000000E+00 -0.65341266047E+02  0.65341266047E+02  0.00000000000E+00 0. -1.
         21    1    1    2  503  505  0.98473907062E+01 -0.51581153389E+02  0.38898364720E+02  0.65350357815E+02  0.00000000000E+00 0. -1.
         21    1    1    2  504  501 -0.64558900481E+02 -0.13236235129E+02  0.60846313470E+03  0.61202159753E+03  0.00000000000E+00 0.  1.
         21    1    1    2  505  504  0.13223469571E+03  0.91440656418E+02  0.82132646197E+02  0.18053581353E+03  0.00000000000E+00 0. -1.
          2    1    1    2  501    0 -0.77523185938E+02 -0.26623267900E+02  0.14794545065E+04  0.14817234153E+04  0.00000000000E+00 0.  1.
<scales pt_clust_3="52.51273" pt_clust_4="45.65056" pt_clust_5="147.84508" pt_clust_6="45.65056"></scales>
<clustering>
<clus scale="   45.651">  4  6 -1 -1</clus>
<clus scale="   52.513">  2  3  1 -1</clus>
<clus scale="  147.845">  2  5  1 -1</clus>
<clus scale="   52.513">  2  3  1 -1</clus>
</clustering>
</event>
<event>
 6    0  0.1631680E+002  0.6289430E+02  0.7546771E-02  0.1386072E+00
         21   -1    0    0  505  502  0.00000000000E+00  0.00000000000E+00  0.12884364310E+04  0.12884364310E+04  0.00000000000E+00 0.  1.
          1   -1    0    0  504    0 -0.00000000000E+00 -0.00000000000E+00 -0.45448830770E+03  0.45448830770E+03  0.00000000000E+00 0.  1.
         21    1    1    2  503  502  0.60426503624E+02  0.12604311976E+02  0.11435257331E+04  0.11451905227E+04  0.00000000000E+00 0.  1.
         21    1    1    2  504  503 -0.65664454190E+01  0.32159907285E+02 -0.12367227269E+03  0.12795393263E+03  0.00000000000E+00 0. -1.
         21    1    1    2  505  501 -0.94601840314E+02  0.27240005371E+02  0.11865861437E+03  0.15417974201E+03  0.00000000000E+00 0. -1.
          1    1    1    2  501    0  0.40741782109E+02 -0.72004224632E+02 -0.30456395147E+03  0.31560054137E+03  0.00000000000E+00 0.  1.
<scales pt_clust_3="62.89430" pt_clust_4="32.82343" pt_clust_5="14000.00000" pt_clust_6="54.12333"></scales>
<clustering>
<clus scale="   32.823">  2  4  1 -1</clus>
<clus scale="   54.123">  2  6  1 -1</clus>
<clus scale="   62.894">  1  3  2 -1</clus>
<clus scale="   62.894">  1  3  2 -1</clus>
</clustering>
</event>
<event>
 6    0  0.1631680E+002  0.1179841E+03  0.7546771E-02  0.1246460E+00
          2   -1    0    0  503    0 -0.00000000000E+00  0.00000000000E+00  0.13870770033E+04  0.13870770033E+04  0.00000000000E+00 0. -1.
         21   -1    0    0  504  502  0.00000000000E+00 -0.00000000000E+00 -0.62054412008E+02  0.62054412008E+02  0.00000000000E+00 0.  1.
         21    1    1    2  503  505 -0.22816468467E+01  0.30112136059E+02  0.62832501449E+03  0.62905029249E+03  0.00000000000E+00 0. -1.
         21    1    1    2  504  501 -0.92995545029E+02 -0.27535815390E+02  0.28344237384E+02  0.10104349715E+03  0.00000000000E+00 0.  1.
         21    1    1    2  505  502 -0.27406116580E+02  0.48989258935E+02  0.23939206701E+02  0.61025636699E+02  0.00000000000E+00 0.  1.
          2    1    1    2  501    0  0.12268330846E+03 -0.51565579604E+02  0.64441413269E+03  0.65801198894E+03  0.00000000000E+00 0. -1.
<scales pt_clust_3="30.19845" pt_clust_4="117.98408" pt_clust_5="57.67303" pt_clust_6="14000.00000"></scales>
<clustering>
<clus scale="   30.198">  1  3  2 -1</clus>
<clus scale="   57.673">  2  5  1 -1</clus>
<clus scale="  117.984">  2  4  1 -1</clus>
<clus scale="   57.673">  2  3  1 -1</clus>
</clustering>
</event>
<event>
 6    0  0.1631680E+002  0.1346579E+03  0.7546771E-02  0.1220703E+00
         -2   -1    0    0    0  501 -0.00000000000E+00  0.00000000000E+00  0.56780263448E+03  0.56780263448E+03  0.00000000000E+00 0.  1.
         21   -1    0    0  505  502  0.00000000000E+00 -0.00000000000E+00 -0.38236363047E+03  0.38236363047E+03  0.00000000000E+00 0. -1.
         21    1    1    2  503  502  0.82650546952E+02 -0.59336422006E+02 -0.12269442997E+03  0.15939211723E+03  0.00000000000E+00 0. -1.
         21    1    1    2  504  501  0.72686302842E+02 -0.44888778082E+02  0.32266946235E+03  0.33378718212E+03  0.00000000000E+00 0. -1.
         21    1    1    2  505  504  0.51973709821E+02  0.90658189090E+02 -0.16858822212E+03  0.19834858810E+03  0.00000000000E+00 0. -1.
         -2    1    1    2    0  503 -0.20731055962E+03  0.13567010998E+02  0.15405219376E+03  0.25863837750E+03  0.00000000000E+00 0.  1.
<scales pt_clust_3="134.65793" pt_clust_4="85.43009" pt_clust_5="104.46093" pt_clust_6="14000.00000"></scales>
<clustering>
<clus scale="   85.430">  1  4  2 -1</clus>
<clus scale="  104.461">  2  5  1 -1</clus>
<clus scale="  134.658">  2  3  1 -1</clus>
<clus scale="  104.461">  2  3  1 -1</clus>
</clustering>
</event>
<event>
 6    0  0.1631680E+002  0.1314318E+03  0.7546771E-02  0.1225347E+00
          2   -1    0    0  504    0 -0.00000000000E+00  0.00000000000E+00  0.42722767752E+04  0.42722767752E+04  0.00000000000E+00 0.  1.
         21   -1    0    0  503  502  0.00000000000E+00 -0.00000000000E+00 -0.33198651957E+03  0.33198651957E+03  0.00000000000E+00 0.  1.
         21    1    1    2  503  501  0.12054732250E+02 -0.33899561951E+02  0.96218417897E+00  0.35991980614E+02  0.00000000000E+00 0.  1.
         21    1    1    2  504  505  0.42608116027E+02 -0.15018866854E+03  0.13294707113E+04  0.13386054161E+04  0.00000000000E+00 0.  1.
         21    1    1    2  505  502  0.18563540106E+02  0.16106821292E+03 -0.28815503936E+03  0.33063711368E+03  0.00000000000E+00 0.  1.
          2    1    1    2  501    0 -0.73226388384E+02  0.23020017571E+02  0.28980123995E+04  0.28990287844E+04  0.00000000000E+00 0.  1.
<scales pt_clust_3="35.97912" pt_clust_4="131.43182" pt_clust_5="14000.00000" pt_clust_6="76.72453"></scales>
<clustering>
<clus scale="   35.979">  2  3  1 -1</clus>
<clus scale="   76.725">  1  6  2 -1</clus>
<clus scale="  131.432">  1  4  2 -1</clus>
<clus scale="   35.979">  2  3  1 -1</clus>
</clustering>
</event>
<event>
 6    0  0.1631680E+002  0.9740549E+02  0.7546771E-02  0.1285848E+00
         21   -1    0    0  505  502  0.00000000000E+00  0.00000000000E+00  0.34192369495E+02  0.34192369495E+02  0.00000000000E+00 0. -1.
          3   -1    0    0  503    0 -0.00000000000E+00 -0.00000000000E+00 -0.16977119380E+04  0.16977119380E+04  0.00000000000E+00 0. -1.
         21    1    1    2  503  502  0.41085122892E+02 -0.48883838788E+02 -0.25745148086E+03  0.26525248729E+03  0.00000000000E+00 0.  1.
         21    1    1    2  504  501  0.30397438893E+02 -0.32990790464E+02 -0.28325821882E+02  0.53054205601E+02  0.00000000000E+00 0. -1.
         21    1    1    2  505  504 -0.21303202017E+02 -0.29176551607E+02 -0.62024693861E+01  0.36654716017E+02  0.00000000000E+00 0. -1.
          3    1    1    2  501    0 -0.50179359768E+02  0.11105118086E+03 -0.13715397964E+04  0.13769428986E+04  0.00000000000E+00 0. -1.
<scales pt_clust_3="14000.00000" pt_clust_4="54.56859" pt_clust_5="36.12613" pt_clust_6="97.40549"></scales>
<clustering>
<clus scale="   36.126">  1  5  2 -1</clus>
<clus scale="   54.569">  1  4  2 -1</clus>
<clus scale="   97.405">  2  6  1 -1</clus>
<clus scale="   36.126">  1  3  2 -1</clus>
</clustering>
</event>
<event>
 6    0  0.1631680E+002  0.6654361E+02  0.7546771E-02  0.1372257E+00
          2   -1    0    0  504    0 -0.00000000000E+00  0.00000000000E+00  0.16915325984E+04  0.16915325984E+04  0.00000000000E+00 0.  1.
         21   -1    0    0  505  502  0.00000000000E+00 -0.00000000000E+00 -0.44421515072E+02  0.44421515072E+02  0.00000000000E+00 0.  1.
         21    1    1    2  503  502 -0.25611583624E+02  0.24512416318E+02  0.44003168648E+02  0.56507438631E+02  0.00000000000E+00 0.  1.
         21    1    1    2  504  503  0.45355528196E+02  0.36116994214E+01  0.95967337778E+03  0.96075135198E+03  0.00000000000E+00 0. -1.
         21    1    1    2  505  501  0.83906474969E+02 -0.22298153495E+02  0.23244610513E+02  0.89876671662E+02  0.00000000000E+00 0.  1.
          2    1    1    2  501    0 -0.10365041954E+03 -0.58259622446E+01  0.62018992638E+03  0.62881865120E+03  0.00000000000E+00 0.  1.
<scales pt_clust_3="35.45154" pt_clust_4="45.16761" pt_clust_5="66.54361" pt_clust_6="14000.00000"></scales>
<clustering>
<clus scale="   35.452">  2  3  1 -1</clus>
<clus scale="   45.168">  1  4  2 -1</clus>
<clus scale="   66.544">  2  5  1 -1</clus>
<clus scale="   35.452">  2  3  1 -1</clus>
</clustering>
</event>
<event>
 6    0  0.1631680E+002  0.8180562E+02  0.7546771E-02  0.1324004E+00
          1   -1    0    0  504    0 -0.00000000000E+00  0.00000000000E+00  0.51198745135E+03  0.51198745135E+03  0.00000000000E+00 0. -1.
         21   -1    0    0  505  502  0.00000000000E+00 -0.00000000000E+00 -0.14512435483E+03  0.14512435483E+03  0.00000000000E+00 0.  1.
         21    1    1    2  503  502 -0.42604121042E+02  0.90910040652E+01 -0.28675594615E+02  0.52154071856E+02  0.00000000000E+00 0. -1.
         21    1    1    2  504  503  0.52487121563E+02 -0.48687931285E+02  0.18504200846E+03  0.19840856200E+03  0.00000000000E+00 0.  1.
         21    1    1    2  505  501  0.91838696302E+02  0.18506190291E+02 -0.63728784995E+02  0.11330570707E+03  0.00000000000E+00 0.  1.
          1    1    1    2  501    0 -0.10172169682E+03  0.21090736929E+02  0.27422546768E+03  0.29324346525E+03  0.00000000000E+00 0. -1.
<scales pt_clust_3="43.56326" pt_clust_4="81.80562" pt_clust_5="61.66183" pt_clust_6="14000.00000"></scales>
<clustering>
<clus scale="   43.563">  2  3  1 -1</clus>
<clus scale="   61.662">  2  5  1 -1</clus>
<clus scale="   81.806">  1  4  2 -1</clus>
<clus scale="   43.563">  2  3  1 -1</clus>
</clustering>
</event>
<event>
 6    0  0.1631680E+002  0.6836164E+02  0.7546771E-02  0.1365755E+00
          2   -1    0    0  505    0 -0.00000000000E+00  0.00000000000E+00  0.70662894739E+03  0.70662894739E+03  0.00000000000E+00 0. -1.
         21   -1    0    0  503  502  0.00000000000E+00 -0.00000000000E+00 -0.66190206144E+02  0.66190206144E+02  0.00000000000E+00 0. -1.
         21    1    1    2  503  501  0.50726706759E+02 -0.58856639344E+02  0.84142451503E+02  0.11453058508E+03  0.00000000000E+00 0. -1.
         21    1    1    2  504  502 -0.23452659850E+02  0.62695874504E+02 -0.19252936744E+02  0.69652534104E+02  0.00000000000E+00 0. -1.
         21    1    1    2  505  504  0.40996830884E+02  0.22966366094E+02  0.29186806789E+03  0.29562672945E+03  0.00000000000E+00 0. -1.
          2    1    1    2  501    0 -0.68270877793E+02 -0.26805601254E+02  0.28368115860E+03  0.29300930490E+03  0.00000000000E+00 0. -1.
<scales pt_clust_3="14000.00000" pt_clust_4="68.36164" pt_clust_5="46.99143" pt_clust_6="41.07593"></scales>
<clustering>
<clus scale="   46.991">  1  5  2 -1</clus>
<clus scale="   41.076">  1  6  2 -1</clus>
<clus scale="   68.362">  2  4  1 -1</clus>
<clus scale="   68.362">  2  3  1 -1</clus>
</clustering>
</event>
<event>
 6    0  0.1631680E+002  0.1553806E+03  0.7546771E-02  0.1194013E+00
          1   -1    0    0  504    0 -0.00000000000E+00  0.00000000000E+00  0.11599683507E+04  0.11599683507E+04  0.00000000000E+00 0. -1.
         21   -1    0    0  505  502  0.00000000000E+00 -0.00000000000E+00 -0.26536303317E+03  0.26536303317E+03  0.00000000000E+00 0. -1.
         21    1    1    2  503  502 -0.40656104285E+02  0.56489319430E+02 -0.20033791043E+02  0.72424545624E+02  0.00000000000E+00 0. -1.
         21    1    1    2  504  503  0.14602847201E+02  0.82296271253E+02  0.18360713279E+03  0.20173621048E+03  0.00000000000E+00 0.  1.
         21    1    1    2  505  501  0.18805183262E+03 -0.92437000802E+02 -0.14774095651E+03  0.25638931549E+03  0.00000000000E+00 0. -1.
          1    1    1    2  501    0 -0.16199857553E+03 -0.46348589881E+02  0.87877293225E+03  0.89478131223E+03  0.00000000000E+00 0. -1.
<scales pt_clust_3="69.59858" pt_clust_4="85.61363" pt_clust_5="155.38061" pt_clust_6="14000.00000"></scales>
<clustering>
<clus scale="   69.599">  2  3  1 -1</clus>
<clus scale="   85.614">  1  4  2 -1</clus>
<clus scale="  155.381">  2  5  1 -1</clus>
<clus scale="   69.599">  2  3  1 -1</clus>
</clustering>
</event>
<event>
 6    0  0.1631680E+002  0.1288629E+03  0.7546771E-02  0.1229153E+00
          2   -1    0    0  504    0 -0.00000000000E+00  0.00000000000E+00  0.12696854015E+04  0.12696854015E+04  0.00000000000E+00 0. -1.
         21   -1    0    0  501  502  0.00000000000E+00 -0.00000000000E+00 -0.17919352080E+03  0.17919352080E+03  0.00000000000E+00 0.  1.
         21    1    1    2  503  505 -0.14594674938E+03 -0.72189871060E+02  0.22686865552E+03  0.27925117367E+03  0.00000000000E+00 0.  1.
         21    1    1    2  504  503 -0.34778276622E+02 -0.21210653264E+02  0.34425770373E+03  0.34665946823E+03  0.00000000000E+00 0.  1.
         21    1    1    2  505  502  0.12465323613E+03  0.18431733835E+02 -0.12165258245E+03  0.17514996120E+03  0.00000000000E+00 0.  1.
          2    1    1    2  501    0  0.56071789865E+02  0.74968790490E+02  0.64101810386E+03  0.64781831916E+03  0.00000000000E+00 0. -1.
<scales pt_clust_3="128.86287" pt_clust_4="40.73598" pt_clust_5="14000.00000" pt_clust_6="68.07545"></scales>
<clustering>
<clus scale="   40.736">  1  4  2 -1</clus>
<clus scale="   68.075">  1  6  2 -1</clus>
<clus scale="  128.863">  1  3  2 -1</clus>
<clus scale="  128.863">  2  3  1 -1</clus>
</clustering>
</event>
<event>
 6    0  0.1631680E+002  0.1211988E+03  0.7546771E-02  0.1241132E+00
          2   -1    0    0  503    0 -0.00000000000E+00  0.00000000000E+00  0.83586322100E+03  0.83586322100E+03  0.00000000000E+00 0. -1.
         21   -1    0    0  504  502  0.00000000000E+00 -0.00000000000E+00 -0.37830987177E+03  0.37830987177E+03  0.00000000000E+00 0. -1.
         21    1    1    2  503  505  0.27018822167E+02 -0.15127768724E+02  0.17741848888E+02  0.35688084003E+02  0.00000000000E+00 0.  1.
         21    1    1    2  504  501  0.40069427340E+02 -0.68160144325E+02 -0.32201143342E+03  0.33157612631E+03  0.00000000000E+00 0. -1.
         21    1    1    2  505  502 -0.34745114056E+02 -0.54355289774E+02 -0.72766181487E+01  0.64920487127E+02  0.00000000000E+00 0. -1.
          2    1    1    2  501    0 -0.32343135451E+02  0.13764320282E+03  0.76909955191E+03  0.78198839534E+03  0.00000000000E+00 0. -1.
<scales pt_clust_3="30.96556" pt_clust_4="14000.00000" pt_clust_5="64.45648" pt_clust_6="121.19879"></scales>
<clustering>
<clus scale="   30.966">  1  3  2 -1</clus>
<clus scale="   64.456">  2  5  1 -1</clus>
<clus scale="  121.199">  1  6  2 -1</clus>
<clus scale="   64.456">  2  3  1 -1</clus>
</clustering>
</event>
<event>
 6    0  0.1631680E+002  0.2128284E+03  0.7546771E-02  0.1139346E+00
         -4   -1    0    0    0  501 -0.00000000000E+00  0.00000000000E+00  0.76931012489E+03  0.76931012489E+03  0.00000000000E+00 0.  1.
         21   -1    0    0  505  502  0.00000000000E+00 -0.00000000000E+00 -0.42528158866E+03  0.42528158866E+03  0.00000000000E+00 0. -1.
         21    1    1    2  503  502 -0.23132812345E+02  0.41586333200E+02 -0.19451163013E+03  0.20024815697E+03  0.00000000000E+00 0. -1.
         21    1    1    2  504  501  0.12015731293E+02  0.17245878849E+03 -0.10396499233E+03  0.20173034268E+03  0.00000000000E+00 0. -1.
         21    1    1    2  505  504 -0.36415447672E+02 -0.13819515668E+01 -0.52690884374E+02  0.64064997584E+02  0.00000000000E+00 0. -1.
         -4    1    1    2    0  503  0.47532528724E+02 -0.21266317013E+03  0.69519604306E+03  0.72854821632E+03  0.00000000000E+00 0.  1.
<scales pt_clust_3="59.10490" pt_clust_4="212.82839" pt_clust_5="36.44166" pt_clust_6="14000.00000"></scales>
<clustering>
<clus scale="   36.442">  2  5  1 -1</clus>
<clus scale="   59.105">  2  3  1 -1</clus>
<clus scale="  212.828">  2  4  1 -1</clus>
<clus scale="   36.442">  2  3  1 -1</clus>
</clustering>
</event>
<event>
 6    0  0.1631680E+002  0.7609458E+02  0.7546771E-02  0.1340515E+00
         21   -1    0    0  501  502  0.00000000000E+00  0.00000000000E+00  0.36137531469E+02  0.36137531469E+02  0.00000000000E+00 0.  1.
          2   -1    0    0  504    0 -0.00000000000E+00 -0.00000000000E+00 -0.16762372105E+04  0.16762372105E+04  0.00000000000E+00 0.  1.
         21    1    1    2  503  502 -0.67790024266E+02  0.19385785371E+02 -0.33297759117E+02  0.77974590903E+02  0.00000000000E+00 0.  1.
         21    1    1    2  504  505 -0.46497958234E+02 -0.12991696633E+02 -0.30420649978E+03  0.30801369906E+03  0.00000000000E+00 0.  1.
         21    1    1    2  505  503  0.10118328114E+03  0.54234249726E+02 -0.29005119698E+03  0.31194407687E+03  0.00000000000E+00 0.  1.
          2    1    1    2  501    0  0.13104701358E+02 -0.60628338464E+02 -0.10125442232E+04  0.10144423751E+04  0.00000000000E+00 0.  1.
<scales pt_clust_3="72.18502" pt_clust_4="48.27882" pt_clust_5="14000.00000" pt_clust_6="76.09458"></scales>
<clustering>
<clus scale="   48.279">  2  4  1 -1</clus>
<clus scale="   72.185">  1  3  2 -1</clus>
<clus scale="   76.095">  2  6  1 -1</clus>
<clus scale="   72.185">  1  3  2 -1</clus>
</clustering>
</event>
<event>
 6    0  0.1631680E+002  0.1144094E+03  0.7546771E-02  0.1252615E+00
          2   -1    0    0  503    0 -0.00000000000E+00  0.00000000000E+00  0.88420411460E+03  0.88420411460E+03  0.00000000000E+00 0. -1.
         21   -1    0    0  504  502  0.00000000000E+00 -0.00000000000E+00 -0.14896752378E+03  0.14896752378E+03  0.00000000000E+00 0.  1.
         21    1    1    2  503  505 -0.57377639824E+02 -0.19338739681E+02  0.21533223044E+03  0.22368314615E+03  0.00000000000E+00 0. -1.
         21    1    1    2  504  501  0.73701922633E+01  0.90948538790E+02 -0.51989012522E+02  0.10501815969E+03  0.00000000000E+00 0.  1.
         21    1    1    2  505  502  0.16828953387E+02  0.25750507847E+02 -0.58310652759E+02  0.65927494657E+02  0.00000000000E+00 0.  1.
          2    1    1    2  501    0  0.33178494174E+02 -0.97360306957E+02  0.63020402566E+03  0.63854283788E+03  0.00000000000E+00 0. -1.
<scales pt_clust_3="59.39391" pt_clust_4="14000.00000" pt_clust_5="30.76203" pt_clust_6="114.40943"></scales>
<clustering>
<clus scale="   30.762">  2  5  1 -1</clus>
<clus scale="   59.394">  1  3  2 -1</clus>
<clus scale="  114.409">  1  6  2 -1</clus>
<clus scale="   30.762">  2  3  1 -1</clus>
</clustering>
</event>
<event>
 6    0  0.1631680E+002  0.1285091E+03  0.7546771E-02  0.1229685E+00
         21   -1    0    0  504  502  0.00000000000E+00  0.00000000000E+00  0.84599460122E+02  0.84599460122E+02  0.00000000000E+00 0.  1.
          2   -1    0    0  505    0 -0.00000000000E+00 -0.00000000000E+00 -0.18357163979E+04  0.18357163979E+04  0.00000000000E+00 0. -1.
         21    1    1    2  503  502  0.22412273313E+02 -0.11893620640E+03 -0.10711508490E+03  0.16162231467E+03  0.00000000000E+00 0.  1.
         21    1    1    2  504  501  0.36991082609E+02  0.42682512673E+00  0.42539354660E+02  0.56374808800E+02  0.00000000000E+00 0.  1.
         21    1    1    2  505  503  0.57109769148E+02  0.35212151114E+02 -0.25673751283E+03  0.26535932584E+03  0.00000000000E+00 0. -1.
          2    1    1    2  501    0 -0.11651312507E+03  0.83297230156E+02 -0.14298036947E+04  0.14369594087E+04  0.00000000000E+00 0. -1.
<scales pt_clust_3="14000.00000" pt_clust_4="36.99355" pt_clust_5="71.02108" pt_clust_6="128.50909"></scales>
<clustering>
<clus scale="   36.994">  1  4  2 -1</clus>
<clus scale="   71.021">  2  5  1 -1</clus>
<clus scale="  128.509">  2  6  1 -1</clus>
<clus scale="   36.994">  1  3  2 -1</clus>
</clustering>
</event>
<event>
 6    0  0.2674675E+002  0.8985339E+02  0.7546771E-02  0.1303207E+00
         21   -1    0    0  503  502  0.00000000000E+00  0.00000000000E+00  0.10116407647E+04  0.10116407647E+04  0.00000000000E+00 0.  1.
          3   -1    0    0  505    0 -0.00000000000E+00 -0.00000000000E+00 -0.14101939556E+04  0.14101939556E+04  0.00000000000E+00 0. -1.
         21    1    1    2  503  501 -0.14278610416E+02  0.26546360567E+02  0.51415119510E+02  0.59599517523E+02  0.00000000000E+00 0. -1.
         21    1    1    2  504  502  0.52465352194E+02 -0.10732783848E+03  0.94134032352E+03  0.94889065902E+03  0.00000000000E+00 0.  1.
         21    1    1    2  505  504 -0.16373275418E+02 -0.43659760666E+02 -0.59679994424E+02  0.75736124695E+02  0.00000000000E+00 0. -1.
          3    1    1    2  501    0 -0.21813466361E+02  0.12444123858E+03 -0.13316286395E+04  0.13376084191E+04  0.00000000000E+00 0. -1.
<scales pt_clust_3="30.14279" pt_clust_4="14000.00000" pt_clust_5="46.46274" pt_clust_6="89.85339"></scales>
<clustering>
<clus scale="   30.143">  1  3  2 -1</clus>
<clus scale="   46.463">  2  5  1 -1</clus>
<clus scale="   89.853">  2  6  1 -1</clus>
<clus scale="   30.143">  1  3  2 -1</clus>
</clustering>
</event>
<event>
 6    0  0.1631680E+002  0.1038433E+03  0.7546771E-02  0.1272415E+00
         21   -1    0    0  504  502  0.00000000000E+00  0.00000000000E+00  0.18820772421E+03  0.18820772421E+03  0.00000000000E+00 0.  1.
          2   -1    0    0  505    0 -0.00000000000E+00 -0.00000000000E+00 -0.10896752395E+04  0.10896752395E+04  0.00000000000E+00 0.  1.
         21    1    1    2  503  502 -0.92549679276E+01 -0.68484163338E+02  0.15824023237E+03  0.17267225081E+03  0.00000000000E+00 0.  1.
         21    1    1    2  504  501  0.15210799264E+02  0.26231721792E+02 -0.10433923362E+02  0.32067715840E+02  0.00000000000E+00 0.  1.
         21    1    1    2  505  503  0.20573051209E+02 -0.72547814444E+02 -0.16954047551E+03  0.18555432803E+03  0.00000000000E+00 0.  1.
          2    1    1    2  501    0 -0.26528882545E+02  0.11480025599E+03 -0.87973334882E+03  0.88758866905E+03  0.00000000000E+00 0.  1.
<scales pt_clust_3="44.29277" pt_clust_4="30.32279" pt_clust_5="14000.00000" pt_clust_6="103.84331"></scales>
<clustering>
<clus scale="   30.323">  1  4  2 -1</clus>
<clus scale="   44.293">  1  3  2 -1</clus>
<clus scale="  103.843">  2  6  1 -1</clus>
<clus scale="   30.323">  1  3  2 -1</clus>
</clustering>
</event>
<event>
 6    0  0.1631680E+002  0.1262802E+03  0.7546771E-02  0.1233082E+00
         21   -1    0    0  503  502  0.00000000000E+00  0.00000000000E+00  0.35219470219E+03  0.35219470219E+03  0.00000000000E+00 0. -1.
          1   -1    0    0  505    0 -0.00000000000E+00 -0.00000000000E+00 -0.18701411013E+03  0.18701411013E+03  0.00000000000E+00 0. -1.
         21    1    1    2  503  501  0.51840821683E+02  0.23880018370E+02  0.89546070322E+02  0.10618957002E+03  0.00000000000E+00 0. -1.
         21    1    1    2  504  502 -0.13388358600E+03  0.62373431696E+02  0.18036472600E+03  0.23312377392E+03  0.00000000000E+00 0. -1.
         21    1    1    2  505  504 -0.30693790695E+02 -0.45865075034E+01 -0.20304548481E+02  0.37086648910E+02  0.00000000000E+00 0. -1.
          1    1    1    2  501    0  0.11273655502E+03 -0.81666942562E+02 -0.84425655782E+02  0.16280881948E+03  0.00000000000E+00 0. -1.
<scales pt_clust_3="55.51213" pt_clust_4="126.28019" pt_clust_5="31.03457" pt_clust_6="14000.00000"></scales>
<clustering>
<clus scale="   31.035">  2  5  1 -1</clus>
<clus scale="   55.512">  1  3  2 -1</clus>
<clus scale="  126.280">  1  4  2 -1</clus>
<clus scale="   55.512">  1  3  2 -1</clus>
</clustering>
</event>
<event>
 6    0  0.1631680E+002  0.1544312E+03  0.7546771E-02  0.1195131E+00
         21   -1    0    0  503  502  0.00000000000E+00  0.00000000000E+00  0.43794089339E+03  0.43794089339E+03  0.00000000000E+00 0. -1.
         -1   -1    0    0    0  501 -0.00000000000E+00 -0.00000000000E+00 -0.60132817983E+03  0.60132817983E+03  0.00000000000E+00 0.  1.
         21    1    1    2  503  504 -0.77603863676E+02 -0.21190243623E+03  0.11773501634E+03  0.25453199448E+03  0.00000000000E+00 0. -1.
         21    1    1    2  504  501  0.42720523578E+02 -0.68822853666E+02 -0.13521991975E+03  0.15762631449E+03  0.00000000000E+00 0.  1.
         21    1    1    2  505  502 -0.77899133041E+01  0.10218272345E+03  0.20606901444E+03  0.23014436867E+03  0.00000000000E+00 0. -1.
         -1    1    1    2    0  505  0.42673253403E+02  0.17854256644E+03 -0.35197139746E+03  0.39696639558E+03  0.00000000000E+00 0.  1.
<scales pt_clust_3="154.43120" pt_clust_4="81.00388" pt_clust_5="100.58224" pt_clust_6="14000.00000"></scales>
<clustering>
<clus scale="   81.004">  2  4  1 -1</clus>
<clus scale="  100.582">  1  5  2 -1</clus>
<clus scale="  154.431">  1  3  2 -1</clus>
<clus scale="  100.582">  1  3  2 -1</clus>
</clustering>
</event>
<event>
 6    0  0.1631680E+002  0.8020211E+02  0.7546771E-02  0.1328479E+00
         21   -1    0    0  503  502  0.00000000000E+00  0.00000000000E+00  0.14802079322E+02  0.14802079322E+02  0.00000000000E+00 0. -1.
          2   -1    0    0  504    0 -0.00000000000E+00 -0.00000000000E+00 -0.22643361420E+04  0.22643361420E+04  0.00000000000E+00 0.  1.
         21    1    1    2  503  501  0.34558340881E+02 -0.52126031886E+02 -0.21164889186E+03  0.22069584398E+03  0.00000000000E+00 0. -1.
         21    1    1    2  504  505 -0.33800156174E+02 -0.12464553675E+02 -0.38127425394E+03  0.38297241725E+03  0.00000000000E+00 0. -1.
         21    1    1    2  505  502 -0.39004591160E+02  0.12439843996E+03 -0.50113358173E+03  0.51781386302E+03  0.00000000000E+00 0. -1.
          2    1    1    2  501    0  0.38246406453E+02 -0.59807854400E+02 -0.11554773351E+04  0.11576560971E+04  0.00000000000E+00 0.  1.
<scales pt_clust_3="61.72079" pt_clust_4="36.02521" pt_clust_5="80.20211" pt_clust_6="14000.00000"></scales>
<clustering>
<clus scale="   36.025">  2  4  1 -1</clus>
<clus scale="   61.721">  1  3  2 -1</clus>
<clus scale="   80.202">  1  5  2 -1</clus>
<clus scale="   61.721">  1  3  2 -1</clus>
</clustering>
</event>
<event>
 6    0  0.1631680E+002  0.6548892E+02  0.7546771E-02  0.1376142E+00
         21   -1    0    0  505  502  0.00000000000E+00  0.00000000000E+00  0.68271752058E+03  0.68271752058E+03  0.00000000000E+00 0. -1.
          2   -1    0    0  503    0 -0.00000000000E+00 -0.00000000000E+00 -0.58950040518E+03  0.58950040518E+03  0.00000000000E+00 0.  1.
         21    1    1    2  503  504  0.41582666627E+02 -0.52727000415E+02  0.41918960965E+02  0.79160937494E+02  0.00000000000E+00 0.  1.
         21    1    1    2  504  502 -0.90104080229E+01  0.65555010859E+02  0.58241896869E+03  0.58616593384E+03  0.00000000000E+00 0. -1.
         21    1    1    2  505  501 -0.76988932196E+02 -0.75128158018E+01 -0.35593847089E+01  0.77436472682E+02  0.00000000000E+00 0.  1.
          2    1    1    2  501    0  0.44416673592E+02 -0.53151946423E+01 -0.52756142955E+03  0.52945458175E+03  0.00000000000E+00 0.  1.
<scales pt_clust_3="65.48892" pt_clust_4="14000.00000" pt_clust_5="48.76363" pt_clust_6="44.73357"></scales>
<clustering>
<clus scale="   44.734">  2  6  1 -1</clus>
<clus scale="   48.764">  2  5  1 -1</clus>
<clus scale="   65.489">  2  3  1 -1</clus>
<clus scale="   65.489">  1  3  2 -1</clus>
</clustering>
</event>
<event>
 6    0  0.1631680E+002  0.1260817E+03  0.7546771E-02  0.1233388E+00
          2   -1    0    0  505    0 -0.00000000000E+00  0.00000000000E+00  0.54228439615E+03  0.54228439615E+03  0.00000000000E+00 0. -1.
         21   -1    0    0  504  502  0.00000000000E+00 -0.00000000000E+00 -0.47361196802E+03  0.47361196802E+03  0.00000000000E+00 0. -1.
         21    1    1    2  503  501 -0.74716507060E+02  0.23887512128E+01 -0.26721341862E+03  0.27747301427E+03  0.00000000000E+00 0. -1.
         21    1    1    2  504  503 -0.47012715815E+02 -0.30152563709E+02 -0.17448388304E+03  0.18320479794E+03  0.00000000000E+00 0.  1.
         21    1    1    2  505  502  0.80114806839E+02 -0.23583667353E+02  0.67326896170E+02  0.10727293502E+03  0.00000000000E+00 0.  1.
          2    1    1    2  501    0  0.41614416036E+02  0.51347479850E+02  0.44304283362E+03  0.44794561693E+03  0.00000000000E+00 0. -1.
<scales pt_clust_3="33.90593" pt_clust_4="33.90593" pt_clust_5="119.82441" pt_clust_6="66.09329"></scales>
<clustering>
<clus scale="   33.906">  3  4 -1 -1</clus>
<clus scale="   66.093">  1  6  2 -1</clus>
<clus scale="  119.824">  1  5  2 -1</clus>
<clus scale="  126.082">  2  3  1 -1</clus>
</clustering>
</event>
<event>
 6    0  0.1631680E+002  0.1445112E+03  0.7546771E-02  0.1207385E+00
          2   -1    0    0  505    0 -0.00000000000E+00  0.00000000000E+00  0.16986036627E+04  0.16986036627E+04  0.00000000000E+00 0.  1.
         21   -1    0    0  503  502  0.00000000000E+00 -0.00000000000E+00 -0.22330623908E+03  0.22330623908E+03  0.00000000000E+00 0.  1.
         21    1    1    2  503  501  0.14215060432E+03 -0.43119976241E+02 -0.15351804949E+03  0.21362096849E+03  0.00000000000E+00 0.  1.
         21    1    1    2  504  502 -0.14013248018E+03 -0.56936251798E+02  0.12970098156E+03  0.19925158315E+03  0.00000000000E+00 0.  1.
         21    1    1    2  505  504 -0.47228021451E+02 -0.13937355641E+02  0.36329951483E+03  0.36662143059E+03  0.00000000000E+00 0. -1.
          2    1    1    2  501    0  0.45209897314E+02  0.11399358368E+03  0.11358149767E+04  0.11424159196E+04  0.00000000000E+00 0.  1.
<scales pt_clust_3="14000.00000" pt_clust_4="144.51121" pt_clust_5="49.24161" pt_clust_6="102.20528"></scales>
<clustering>
<clus scale="   49.242">  1  5  2 -1</clus>
<clus scale="  102.205">  1  6  2 -1</clus>
<clus scale="  144.511">  1  4  2 -1</clus>
<clus scale="  144.511">  2  3  1 -1</clus>
</clustering>
</event>
<event>
 6    0  0.1631680E+002  0.5979739E+02  0.7546771E-02  0.1398684E+00
          3   -1    0    0  504    0 -0.00000000000E+00  0.00000000000E+00  0.31933846782E+02  0.31933846782E+02  0.00000000000E+00 0. -1.
         21   -1    0    0  503  502  0.00000000000E+00 -0.00000000000E+00 -0.29423037473E+04  0.29423037473E+04  0.00000000000E+00 0.  1.
         21    1    1    2  503  501 -0.47167998117E+02 -0.15660475833E+02 -0.20710821636E+04  0.20716784014E+04  0.00000000000E+00 0.  1.
         21    1    1    2  504  505 -0.42177437643E+02  0.11796553770E+02 -0.46134895749E+02  0.63612290737E+02  0.00000000000E+00 0.  1.
         21    1    1    2  505  502  0.25938328558E+02  0.69213970537E+02 -0.71540902523E+03  0.71921724394E+03  0.00000000000E+00 0.  1.
          3    1    1    2  501    0  0.63407107203E+02 -0.65350048474E+02 -0.77743815904E+02  0.11972965794E+03  0.00000000000E+00 0. -1.
<scales pt_clust_3="50.16749" pt_clust_4="43.79606" pt_clust_5="14000.00000" pt_clust_6="59.79739"></scales>
<clustering>
<clus scale="   43.796">  1  4  2 -1</clus>
<clus scale="   50.167">  2  3  1 -1</clus>
<clus scale="   59.797">  1  6  2 -1</clus>
<clus scale="   50.167">  2  3  1 -1</clus>
</clustering>
</event>
<event>
 6    0  0.1631680E+002  0.1777887E+03  0.7546771E-02  0.1169960E+00
          2   -1    0    0  503    0 -0.00000000000E+00  0.00000000000E+00  0.14165906433E+04  0.14165906433E+04  0.00000000000E+00 0.  1.
         21   -1    0    0  501  502  0.00000000000E+00 -0.00000000000E+00 -0.13329660093E+03  0.13329660093E+03  0.00000000000E+00 0. -1.
         21    1    1    2  503  505  0.33480684315E+02  0.24931182886E+02  0.38371115012E+03  0.38597508576E+03  0.00000000000E+00 0.  1.
         21    1    1    2  504  502  0.67818045994E+02  0.43207401937E+02 -0.42718095333E+02  0.91054942828E+02  0.00000000000E+00 0.  1.
         21    1    1    2  505  504 -0.12078685651E+03  0.12776894787E+03  0.88861891117E+02  0.19700457974E+03  0.00000000000E+00 0. -1.
          2    1    1    2  501    0  0.19488126200E+02 -0.19590753269E+03  0.85343909643E+03  0.87585263586E+03  0.00000000000E+00 0.  1.
<scales pt_clust_3="41.74350" pt_clust_4="81.38775" pt_clust_5="14000.00000" pt_clust_6="177.78874"></scales>
<clustering>
<clus scale="   41.744">  1  3  2 -1</clus>
<clus scale="   81.388">  2  4  1 -1</clus>
<clus scale="  177.789">  1  6  2 -1</clus>
<clus scale="   81.388">  2  3  1 -1</clus>
</clustering>
</event>
<event>
 6    0  0.1631680E+002  0.5656953E+02  0.7546771E-02  0.1412819E+00
         21   -1    0    0  503  502  0.00000000000E+00  0.00000000000E+00  0.85182796243E+03  0.85182796243E+03  0.00000000000E+00 0.  1.
         -2   -1    0    0    0  501 -0.00000000000E+00 -0.00000000000E+00 -0.21270654076E+03  0.21270654076E+03  0.00000000000E+00 0. -1.
         21    1    1    2  503  504  0.10847126782E+02 -0.50681793324E+02  0.14263227006E+03  0.15175726934E+03  0.00000000000E+00 0.  1.
         21    1    1    2  504  501 -0.13096166821E+01 -0.50717902116E+02 -0.28192515485E+02  0.58041697256E+02  0.00000000000E+00 0. -1.
         21    1    1    2  505  502 -0.53232587157E+02  0.13655621803E+02  0.67393515024E+03  0.67617214603E+03  0.00000000000E+00 0.  1.
         -2    1    1    2    0  505  0.43695077056E+02  0.87744073637E+02 -0.14925348314E+03  0.17856339056E+03  0.00000000000E+00 0. -1.
<scales pt_clust_3="53.15742" pt_clust_4="50.73481" pt_clust_5="14000.00000" pt_clust_6="56.56953"></scales>
<clustering>
<clus scale="   50.735">  2  4  1 -1</clus>
<clus scale="   53.157">  1  3  2 -1</clus>
<clus scale="   56.570">  2  6  1 -1</clus>
<clus scale="   53.157">  1  3  2 -1</clus>
</clustering>
</event>
<event>
 6    0  0.1631680E+002  0.8408606E+02  0.7546771E-02  0.1317840E+00
         21   -1    0    0  505  502  0.00000000000E+00  0.00000000000E+00  0.40769661722E+03  0.40769661722E+03  0.00000000000E+00 0.  1.
          4   -1    0    0  503    0 -0.00000000000E+00 -0.00000000000E+00 -0.38817553568E+03  0.38817553568E+03  0.00000000000E+00 0.  1.
         21    1    1    2  503  504  0.65993827959E+01 -0.12433356944E+03 -0.13566866073E+03  0.18414226524E+03  0.00000000000E+00 0.  1.
         21    1    1    2  504  502 -0.43958551910E+02  0.31140884715E+02  0.86410301215E+01  0.54559842269E+02  0.00000000000E+00 0. -1.
         21    1    1    2  505  501  0.84105861628E+02  0.38783560894E+02  0.33918961432E+03  0.35160710320E+03  0.00000000000E+00 0.  1.
          4    1    1    2  501    0 -0.46746692514E+02  0.54409123827E+02 -0.19264090217E+03  0.20556294220E+03  0.00000000000E+00 0.  1.
<scales pt_clust_3="84.08606" pt_clust_4="53.87123" pt_clust_5="14000.00000" pt_clust_6="72.63113"></scales>
<clustering>
<clus scale="   53.871">  1  4  2 -1</clus>
<clus scale="   72.631">  2  6  1 -1</clus>
<clus scale="   84.086">  2  3  1 -1</clus>
<clus scale="   53.871">  1  3  2 -1</clus>
</clustering>
</event>
<event>
 6    0  0.1631680E+002  0.1173041E+03  0.7546771E-02  0.1247612E+00
          2   -1    0    0  504    0 -0.00000000000E+00  0.00000000000E+00  0.35639843110E+04  0.35639843110E+04  0.00000000000E+00 0. -1.
         21   -1    0    0  503  502  0.00000000000E+00 -0.00000000000E+00 -0.10241081011E+03  0.10241081011E+03  0.00000000000E+00 0.  1.
         21    1    1    2  503  505  0.59143574387E+01 -0.41214864497E+02 -0.58920141989E+02  0.72147264754E+02  0.00000000000E+00 0.  1.
         21    1    1    2  504  502 -0.58738360729E+02  0.10829887199E+03  0.94885948174E+02  0.15550621806E+03  0.00000000000E+00 0.  1.
         21    1    1    2  505  501 -0.55600812813E+02 -0.20528003346E+02  0.15407483913E+03  0.16508151126E+03  0.00000000000E+00 0.  1.
          2    1    1    2  501    0  0.10842481610E+03 -0.46556004145E+02  0.32715328556E+04  0.32736601270E+04  0.00000000000E+00 0. -1.
<scales pt_clust_3="41.63706" pt_clust_4="117.30408" pt_clust_5="60.87555" pt_clust_6="14000.00000"></scales>
<clustering>
<clus scale="   41.637">  2  3  1 -1</clus>
<clus scale="   60.876">  2  5  1 -1</clus>
<clus scale="  117.304">  2  4  1 -1</clus>
<clus scale="   41.637">  2  3  1 -1</clus>
</clustering>
</event>
<event>
 6    0  0.1631680E+002  0.9740866E+02  0.7546771E-02  0.1285842E+00
         21   -1    0    0  501  502  0.00000000000E+00  0.00000000000E+00  0.10503436998E+03  0.10503436998E+03  0.00000000000E+00 0. -1.
          1   -1    0    0  504    0 -0.00000000000E+00 -0.00000000000E+00 -0.12760371766E+04  0.12760371766E+04  0.00000000000E+00 0.  1.
         21    1    1    2  503  502 -0.74326450829E+02  0.65520643699E+02  0.69224046524E+02  0.12086912203E+03  0.00000000000E+00 0. -1.
         21    1    1    2  504  505  0.37284562362E+02 -0.30182005674E+02 -0.93092892714E+02  0.10472525355E+03  0.00000000000E+00 0.  1.
         21    1    1    2  505  503 -0.24055043748E+02 -0.48024878726E+02 -0.22857374282E+03  0.23479989356E+03  0.00000000000E+00 0. -1.
          1    1    1    2  501    0  0.61096932216E+02  0.12686240701E+02 -0.91856021756E+03  0.92067727740E+03  0.00000000000E+00 0.  1.
<scales pt_clust_3="14000.00000" pt_clust_4="47.96970" pt_clust_5="56.49521" pt_clust_6="97.40866"></scales>
<clustering>
<clus scale="   47.970">  2  4  1 -1</clus>
<clus scale="   56.495">  2  5  1 -1</clus>
<clus scale="   97.409">  2  6  1 -1</clus>
<clus scale="   97.409">  1  3  2 -1</clus>
</clustering>
</event>
<event>
 6    0  0.1631680E+002  0.1096114E+03  0.7546771E-02  0.1261291E+00
         21   -1    0    0  501  502  0.00000000000E+00  0.00000000000E+00  0.57291849825E+03  0.57291849825E+03  0.00000000000E+00 0. -1.
          1   -1    0    0  504    0 -0.00000000000E+00 -0.00000000000E+00 -0.13386391842E+03  0.13386391842E+03  0.00000000000E+00 0. -1.
         21    1    1    2  503  502  0.11992013681E+03  0.15940316071E+02  0.44219215461E+03  0.45844174601E+03  0.00000000000E+00 0. -1.
         21    1    1    2  504  505  0.45350103153E+02 -0.87011351665E+01  0.18927623448E+02  0.49905876794E+02  0.00000000000E+00 0. -1.
         21    1    1    2  505  503 -0.77169031832E+02 -0.87194021588E+01  0.43122175234E+02  0.88829102466E+02  0.00000000000E+00 0. -1.
          1    1    1    2  501    0 -0.88101208129E+02  0.14802212549E+01 -0.65187373454E+02  0.10960569140E+03  0.00000000000E+00 0. -1.
<scales pt_clust_3="14000.00000" pt_clust_4="46.17728" pt_clust_5="109.61137" pt_clust_6="54.84236"></scales>
<clustering>
<clus scale="   46.177">  2  4  1 -1</clus>
<clus scale="   54.842">  2  6  1 -1</clus>
<clus scale="  109.611">  2  5  1 -1</clus>
<clus scale="  109.611">  1  3  2 -1</clus>
</clustering>
</event>
<event>
 6    0  0.1631680E+002  0.2350161E+03  0.7546771E-02  0.1123158E+00
         21   -1    0    0  504  502  0.00000000000E+00  0.00000000000E+00  0.26778013807E+04  0.26778013807E+04  0.00000000000E+00 0. -1.
          1   -1    0    0  505    0 -0.00000000000E+00 -0.00000000000E+00 -0.17622883878E+03  0.17622883878E+03  0.00000000000E+00 0. -1.
         21    1    1    2  503  502 -0.54438390890E+02 -0.22410645807E+03  0.30658427640E+03  0.38364197045E+03  0.00000000000E+00 0. -1.
         21    1    1    2  504  501 -0.72127633383E+02 -0.54967692471E+02  0.16826493403E+04  0.16850912869E+04  0.00000000000E+00 0. -1.
         21    1    1    2  505  503 -0.44777027835E+02  0.53186938468E+02 -0.93431329882E+02  0.11646135002E+03  0.00000000000E+00 0. -1.
          1    1    1    2  501    0  0.17134305211E+03  0.22588721207E+03  0.60577025507E+03  0.66883561210E+03  0.00000000000E+00 0. -1.
<scales pt_clust_3="235.01607" pt_clust_4="90.75102" pt_clust_5="69.52577" pt_clust_6="14000.00000"></scales>
<clustering>
<clus scale="   69.526">  2  5  1 -1</clus>
<clus scale="   90.751">  1  4  2 -1</clus>
<clus scale="  235.016">  2  3  1 -1</clus>
<clus scale="   90.751">  1  3  2 -1</clus>
</clustering>
</event>
<event>
 6    0  0.1631680E+002  0.9959422E+02  0.7546771E-02  0.1281152E+00
          2   -1    0    0  505    0 -0.00000000000E+00  0.00000000000E+00  0.17107085226E+03  0.17107085226E+03  0.00000000000E+00 0.  1.
         21   -1    0    0  504  502  0.00000000000E+00 -0.00000000000E+00 -0.19578746685E+03  0.19578746685E+03  0.00000000000E+00 0.  1.
         21    1    1    2  503  501 -0.34972821936E+02  0.38855027448E+02 -0.54831289725E+00  0.52279174431E+02  0.00000000000E+00 0.  1.
         21    1    1    2  504  503  0.31582445804E+02 -0.71355541588E+02 -0.11458870475E+03  0.13863489985E+03  0.00000000000E+00 0.  1.
         21    1    1    2  505  502  0.72307441508E+02  0.33082030634E+01  0.25123077164E+02  0.76619053186E+02  0.00000000000E+00 0.  1.
          2    1    1    2  501    0 -0.68917065377E+02  0.29192311077E+02  0.65297325902E+02  0.99325191649E+02  0.00000000000E+00 0.  1.
<scales pt_clust_3="48.50104" pt_clust_4="80.93892" pt_clust_5="72.38308" pt_clust_6="48.50104"></scales>
<clustering>
<clus scale="   48.501">  3  6 -1 -1</clus>
<clus scale="   72.383">  1  5  2 -1</clus>
<clus scale="   80.939">  2  4  1 -1</clus>
<clus scale="   80.939">  2  3  1 -1</clus>
</clustering>
</event>
<event>
 6    0  0.1631680E+002  0.1542010E+03  0.7546771E-02  0.1195404E+00
         21   -1    0    0  503  502  0.00000000000E+00  0.00000000000E+00  0.27176281683E+03  0.27176281683E+03  0.00000000000E+00 0.  1.
         -1   -1    0    0    0  501 -0.00000000000E+00 -0.00000000000E+00 -0.14497257171E+04  0.14497257171E+04  0.00000000000E+00 0.  1.
         21    1    1    2  503  504 -0.76251388875E+02  0.12441107951E+02  0.14440151235E+03  0.16377073072E+03  0.00000000000E+00 0.  1.
         21    1    1    2  504  505 -0.74235321877E+02 -0.65661938603E+02  0.83983530773E+02  0.12990614549E+03  0.00000000000E+00 0.  1.
         21    1    1    2  505  501 -0.22380408553E+02  0.31193424488E+02 -0.67369172434E+02  0.77540426957E+02  0.00000000000E+00 0.  1.
         -1    1    1    2    0  502  0.17286711931E+03  0.22027406164E+02 -0.13389787709E+04  0.13502712307E+04  0.00000000000E+00 0.  1.
<scales pt_clust_3="77.45054" pt_clust_4="154.20097" pt_clust_5="38.39157" pt_clust_6="14000.00000"></scales>
<clustering>
<clus scale="   38.392">  2  5  1 -1</clus>
<clus scale="   77.451">  1  3  2 -1</clus>
<clus scale="  154.201">  1  4  2 -1</clus>
<clus scale="   77.451">  1  3  2 -1</clus>
</clustering>
</event>
<event>
 6    0  0.1631680E+002  0.1559152E+03  0.7546771E-02  0.1193387E+00
          2   -1    0    0  503    0 -0.00000000000E+00  0.00000000000E+00  0.14036208740E+04  0.14036208740E+04  0.00000000000E+00 0. -1.
         21   -1    0    0  504  502  0.00000000000E+00 -0.00000000000E+00 -0.19003023501E+03  0.19003023501E+03  0.00000000000E+00 0.  1.
         21    1    1    2  503  505 -0.10586548858E+01 -0.10081429047E+03  0.37928062969E+03  0.39245182885E+03  0.00000000000E+00 0. -1.
         21    1    1    2  504  501 -0.14219047366E+03  0.57202713251E+02 -0.89850472221E+02  0.17766088079E+03  0.00000000000E+00 0.  1.
         21    1    1    2  505  502  0.23879184158E+02  0.52705746997E+02 -0.27719456475E+02  0.64159796367E+02  0.00000000000E+00 0.  1.
          2    1    1    2  501    0  0.11936994439E+03 -0.90941697819E+01  0.95187993797E+03  0.95937860298E+03  0.00000000000E+00 0. -1.
<scales pt_clust_3="98.40540" pt_clust_4="14000.00000" pt_clust_5="57.86287" pt_clust_6="155.91516"></scales>
<clustering>
<clus scale="   57.863">  2  5  1 -1</clus>
<clus scale="   98.405">  1  3  2 -1</clus>
<clus scale="  155.915">  1  6  2 -1</clus>
<clus scale="   57.863">  2  3  1 -1</clus>
</clustering>
</event>
<event>
 6    0  0.1631680E+002  0.2757556E+03  0.7546771E-02  0.1098030E+00
         21   -1    0    0  503  502  0.00000000000E+00  0.00000000000E+00  0.15395658011E+03  0.15395658011E+03  0.00000000000E+00 0.  1.
          2   -1    0    0  504    0 -0.00000000000E+00 -0.00000000000E+00 -0.29198007544E+04  0.29198007544E+04  0.00000000000E+00 0. -1.
         21    1    1    2  503  501  0.32252488731E+02  0.71668978357E+01 -0.34979149924E+02  0.48115781022E+02  0.00000000000E+00 0.  1.
         21    1    1    2  504  505  0.44163298449E+02  0.46620821684E+02 -0.17366874495E+04  0.17378743324E+04  0.00000000000E+00 0. -1.
         21    1    1    2  505  502 -0.21559064502E+03 -0.22375571058E+03 -0.45554441141E+02  0.31404004736E+03  0.00000000000E+00 0.  1.
          2    1    1    2  501    0  0.13917485784E+03  0.16996799106E+03 -0.94862313378E+03  0.97372717379E+03  0.00000000000E+00 0. -1.
<scales pt_clust_3="33.03918" pt_clust_4="64.32788" pt_clust_5="14000.00000" pt_clust_6="275.75564"></scales>
<clustering>
<clus scale="   33.039">  1  3  2 -1</clus>
<clus scale="   64.328">  2  4  1 -1</clus>
<clus scale="  275.756">  2  6  1 -1</clus>
<clus scale="   33.039">  1  3  2 -1</clus>
</clustering>
</event>
<event>
 6    0  0.1631680E+002  0.9800760E+02  0.7546771E-02  0.1284542E+00
          2   -1    0    0  505    0 -0.00000000000E+00  0.00000000000E+00  0.44003928328E+03  0.44003928328E+03  0.00000000000E+00 0. -1.
         21   -1    0    0  501  502  0.00000000000E+00 -0.00000000000E+00 -0.70204282273E+02  0.70204282273E+02  0.00000000000E+00 0.  1.
         21    1    1    2  503  502 -0.29014875746E+02 -0.37870661411E+02 -0.34620540625E+01  0.47833417488E+02  0.00000000000E+00 0.  1.
         21    1    1    2  504  503 -0.70655189322E+02  0.65230695109E+02  0.51032270096E+02  0.10886455784E+03  0.00000000000E+00 0.  1.
         21    1    1    2  505  504 -0.10508843800E+02 -0.33410130881E+02  0.74768184512E+02  0.82564847597E+02  0.00000000000E+00 0.  1.
          2    1    1    2  501    0  0.11017890887E+03  0.60500971825E+01  0.24749660046E+03  0.27098074263E+03  0.00000000000E+00 0. -1.
<scales pt_clust_3="49.73398" pt_clust_4="98.00760" pt_clust_5="35.02389" pt_clust_6="14000.00000"></scales>
<clustering>
<clus scale="   35.024">  1  5  2 -1</clus>
<clus scale="   49.734">  2  3  1 -1</clus>
<clus scale="   98.008">  2  4  1 -1</clus>
<clus scale="   49.734">  2  3  1 -1</clus>
</clustering>
</event>
<event>
 6    0  0.1631680E+002  0.1215094E+03  0.7546771E-02  0.1240628E+00
          2   -1    0    0  504    0 -0.00000000000E+00  0.00000000000E+00  0.24027960745E+04  0.24027960745E+04  0.00000000000E+00 0. -1.
         21   -1    0    0  505  502  0.00000000000E+00 -0.00000000000E+00 -0.41948076058E+02  0.41948076058E+02  0.00000000000E+00 0. -1.
         21    1    1    2  503  502 -0.67464123658E+02  0.91609168951E+02  0.66092770945E+02  0.13157470193E+03  0.00000000000E+00 0. -1.
         21    1    1    2  504  503  0.19903984179E+02 -0.44084852302E+02  0.18792115221E+03  0.19404639197E+03  0.00000000000E+00 0. -1.
         21    1    1    2  505  501  0.38028269654E+02  0.34068734361E+02  0.11774373138E+03  0.12833711168E+03  0.00000000000E+00 0. -1.
          2    1    1    2  501    0  0.95318698249E+01 -0.81593051010E+02  0.19890903439E+04  0.19907859450E+04  0.00000000000E+00 0. -1.
<scales pt_clust_3="121.50941" pt_clust_4="48.36985" pt_clust_5="50.31084" pt_clust_6="14000.00000"></scales>
<clustering>
<clus scale="   48.370">  1  4  2 -1</clus>
<clus scale="   50.311">  2  5  1 -1</clus>
<clus scale="  121.509">  2  3  1 -1</clus>
<clus scale="   50.311">  2  3  1 -1</clus>
</clustering>
</event>
<event>
 6    0  0.1631680E+002  0.1248678E+03  0.7546771E-02  0.1235276E+00
         -4   -1    0    0    0  501 -0.00000000000E+00  0.00000000000E+00  0.88494388845E+03  0.88494388845E+03  0.00000000000E+00 0. -1.
         21   -1    0    0  503  502  0.00000000000E+00 -0.00000000000E+00 -0.30614029348E+02  0.30614029348E+02  0.00000000000E+00 0. -1.
         21    1    1    2  503  505  0.45409601316E+02  0.20700434204E+02  0.55216936093E+02  0.74427480808E+02  0.00000000000E+00 0. -1.
         21    1    1    2  504  501  0.39906321219E+02  0.47756538111E+00  0.37920635019E+03  0.38130066688E+03  0.00000000000E+00 0. -1.
         21    1    1    2  505  504  0.39587277082E+02  0.27768474464E+02  0.16279433624E+03  0.16982413431E+03  0.00000000000E+00 0. -1.
         -4    1    1    2    0  502 -0.12490319962E+03 -0.48946474049E+02  0.25711223658E+03  0.29000563580E+03  0.00000000000E+00 0. -1.
<scales pt_clust_3="48.37656" pt_clust_4="39.90918" pt_clust_5="48.37656" pt_clust_6="114.17410"></scales>
<clustering>
<clus scale="   39.909">  1  4  2 -1</clus>
<clus scale="   48.377">  3  5 -1 -1</clus>
<clus scale="  114.174">  1  6  2 -1</clus>
<clus scale="  124.868">  2  3  1 -1</clus>
</clustering>
</event>
<event>
 6    0  0.1631680E+002  0.1085700E+03  0.7546771E-02  0.1263241E+00
         -3   -1    0    0    0  501 -0.00000000000E+00  0.00000000000E+00  0.31590765795E+02  0.31590765795E+02  0.00000000000E+00 0. -1.
         21   -1    0    0  504  502  0.00000000000E+00 -0.00000000000E+00 -0.12573605550E+04  0.12573605550E+04  0.00000000000E+00 0. -1.
         21    1    1    2  503  505  0.57393239899E+02  0.29776250483E+02 -0.44912148721E+03  0.45375182573E+03  0.00000000000E+00 0. -1.
         21    1    1    2  504  503  0.20406975645E+02  0.25067918017E+02 -0.54201179478E+03  0.54297479762E+03  0.00000000000E+00 0.  1.
         21    1    1    2  505  501  0.19493092028E+02  0.31862660080E+02 -0.90508593708E+02  0.97913304914E+02  0.00000000000E+00 0. -1.
         -3    1    1    2    0  502 -0.97293307572E+02 -0.86706828580E+02 -0.14412791355E+03  0.19431139258E+03  0.00000000000E+00 0. -1.
<scales pt_clust_3="32.07585" pt_clust_4="32.07585" pt_clust_5="37.35251" pt_clust_6="98.63787"></scales>
<clustering>
<clus scale="   32.076">  3  4 -1 -1</clus>
<clus scale="   37.353">  1  5  2 -1</clus>
<clus scale="   98.638">  1  6  2 -1</clus>
<clus scale="  108.570">  2  3  1 -1</clus>
</clustering>
</event>
<event>
 6    0  0.1631680E+002  0.7624914E+02  0.7546771E-02  0.1340046E+00
          2   -1    0    0  503    0 -0.00000000000E+00  0.00000000000E+00  0.86865732668E+02  0.86865732668E+02  0.00000000000E+00 0.  1.
         21   -1    0    0  504  502  0.00000000000E+00 -0.00000000000E+00 -0.57909672144E+03  0.57909672144E+03  0.00000000000E+00 0.  1.
         21    1    1    2  503  505 -0.23186401818E+02  0.20229556871E+02 -0.58873440205E+01  0.31328980515E+02  0.00000000000E+00 0.  1.
         21    1    1    2  504  501 -0.28659919197E+02 -0.26527442171E+02 -0.27493153113E+03  0.27769127275E+03  0.00000000000E+00 0. -1.
         21    1    1    2  505  502 -0.14897184552E+02  0.83954293638E+02 -0.23659774103E+03  0.25149302294E+03  0.00000000000E+00 0.  1.
          2    1    1    2  501    0  0.66743505567E+02 -0.77656408338E+02  0.25185627405E+02  0.10544917790E+03  0.00000000000E+00 0.  1.
<scales pt_clust_3="30.77083" pt_clust_4="39.11757" pt_clust_5="76.24914" pt_clust_6="14000.00000"></scales>
<clustering>
<clus scale="   30.771">  1  3  2 -1</clus>
<clus scale="   39.118">  2  4  1 -1</clus>
<clus scale="   76.249">  2  5  1 -1</clus>
<clus scale="   39.118">  2  3  1 -1</clus>
</clustering>
</event>
<event>
 6    0  0.1631680E+002  0.1301162E+03  0.7546771E-02  0.1227283E+00
          3   -1    0    0  505    0 -0.00000000000E+00  0.00000000000E+00  0.76723157876E+03  0.76723157876E+03  0.00000000000E+00 0.  1.
         21   -1    0    0  501  502  0.00000000000E+00 -0.00000000000E+00 -0.17732886839E+03  0.17732886839E+03  0.00000000000E+00 0.  1.
         21    1    1    2  503  504  0.13483078968E+03 -0.25184231594E+02  0.87697848562E+01  0.13744270259E+03  0.00000000000E+00 0.  1.
         21    1    1    2  504  502 -0.28203956920E+02 -0.34185048549E+02 -0.85452987101E+02  0.96261590132E+02  0.00000000000E+00 0.  1.
         21    1    1    2  505  503  0.46191531944E+02 -0.32077743533E+02  0.79692076687E+02  0.97536999853E+02  0.00000000000E+00 0.  1.
          3    1    1    2  501    0 -0.15281836471E+03  0.91447023676E+02  0.58689383592E+03  0.61331915458E+03  0.00000000000E+00 0.  1.
<scales pt_clust_3="130.11624" pt_clust_4="44.31795" pt_clust_5="56.04460" pt_clust_6="14000.00000"></scales>
<clustering>
<clus scale="   44.318">  2  4  1 -1</clus>
<clus scale="   56.045">  1  5  2 -1</clus>
<clus scale="  130.116">  2  3  1 -1</clus>
<clus scale="   44.318">  2  3  1 -1</clus>
</clustering>
</event>
<event>
 6    0  0.1631680E+002  0.8369970E+02  0.7546771E-02  0.1318868E+00
         21   -1    0    0  501  502  0.00000000000E+00  0.00000000000E+00  0.11708633951E+03  0.11708633951E+03  0.00000000000E+00 0. -1.
          4   -1    0    0  504    0 -0.00000000000E+00 -0.00000000000E+00 -0.29748998376E+03  0.29748998376E+03  0.00000000000E+00 0. -1.
         21    1    1    2  503  502  0.69803099829E+01 -0.31339215319E+02  0.31976226504E+02  0.45313907421E+02  0.00000000000E+00 0. -1.
         21    1    1    2  504  505  0.57394295655E+02 -0.41841113106E+02 -0.12059881506E+03  0.13996020189E+03  0.00000000000E+00 0. -1.
         21    1    1    2  505  503  0.45229886541E+02  0.30776537342E+02  0.28034020240E+02  0.61472304155E+02  0.00000000000E+00 0. -1.
          4    1    1    2  501    0 -0.10960449218E+03  0.42403791082E+02 -0.11981507594E+03  0.16782990981E+03  0.00000000000E+00 0. -1.
<scales pt_clust_3="32.10718" pt_clust_4="83.69970" pt_clust_5="50.87414" pt_clust_6="14000.00000"></scales>
<clustering>
<clus scale="   32.107">  1  3  2 -1</clus>
<clus scale="   50.874">  1  5  2 -1</clus>
<clus scale="   83.700">  2  4  1 -1</clus>
<clus scale="   32.107">  1  3  2 -1</clus>
</clustering>
</event>
<event>
 6    0  0.1631680E+002  0.9523135E+02  0.7546771E-02  0.1290656E+00
          2   -1    0    0  503    0 -0.00000000000E+00  0.00000000000E+00  0.12495359208E+04  0.12495359208E+04  0.00000000000E+00 0. -1.
         21   -1    0    0  501  502  0.00000000000E+00 -0.00000000000E+00 -0.93336041365E+02  0.93336041365E+02  0.00000000000E+00 0. -1.
         21    1    1    2  503  504  0.23895064649E+01 -0.35575184977E+02  0.15513363706E+03  0.15917835554E+03  0.00000000000E+00 0. -1.
         21    1    1    2  504  505  0.68529006029E+02  0.77147722276E+02  0.58265133273E+02  0.11850241126E+03  0.00000000000E+00 0.  1.
         21    1    1    2  505  502 -0.17453845668E+02 -0.94660620692E+02 -0.20941442094E+02  0.98507937931E+02  0.00000000000E+00 0. -1.
          2    1    1    2  501    0 -0.53464666826E+02  0.53088083394E+02  0.96374255117E+03  0.96668325740E+03  0.00000000000E+00 0. -1.
<scales pt_clust_3="35.65534" pt_clust_4="95.23135" pt_clust_5="14000.00000" pt_clust_6="55.73216"></scales>
<clustering>
<clus scale="   35.655">  1  3  2 -1</clus>
<clus scale="   55.732">  1  6  2 -1</clus>
<clus scale="   95.231">  1  4  2 -1</clus>
<clus scale="   95.231">  2  3  1 -1</clus>
</clustering>
</event>
<event>
 6    0  0.1631680E+002  0.8986471E+02  0.7546771E-02  0.1303180E+00
         -3   -1    0    0    0  501 -0.00000000000E+00  0.00000000000E+00  0.31473509878E+03  0.31473509878E+03  0.00000000000E+00 0. -1.
         21   -1    0    0  504  502  0.00000000000E+00 -0.00000000000E+00 -0.17744888878E+03  0.17744888878E+03  0.00000000000E+00 0.  1.
         21    1    1    2  503  502  0.65646349541E+02 -0.63434668956E+00 -0.57981697368E+02  0.87588371565E+02  0.00000000000E+00 0.  1.
         21    1    1    2  504  501 -0.54446727278E+02 -0.16735162777E+02 -0.53214851618E+02  0.77950832050E+02  0.00000000000E+00 0.  1.
         21    1    1    2  505  503  0.81034148480E+02  0.59381681712E+01  0.25645068072E+02  0.85202491616E+02  0.00000000000E+00 0. -1.
         -3    1    1    2    0  505 -0.92233770743E+02  0.11431341296E+02  0.22283769091E+03  0.24144229232E+03  0.00000000000E+00 0. -1.
<scales pt_clust_3="32.34318" pt_clust_4="56.96062" pt_clust_5="14000.00000" pt_clust_6="89.86471"></scales>
<clustering>
<clus scale="   56.961">  2  4  1 -1</clus>
<clus scale="   32.343">  2  3  1 -1</clus>
<clus scale="   89.865">  1  6  2 -1</clus>
<clus scale="   56.961">  2  3  1 -1</clus>
</clustering>
</event>
<event>
 6    0  0.1631680E+002  0.1208227E+03  0.7546771E-02  0.1241746E+00
          1   -1    0    0  505    0 -0.00000000000E+00  0.00000000000E+00  0.32307284175E+03  0.32307284175E+03  0.00000000000E+00 0. -1.
         21   -1    0    0  503  502  0.00000000000E+00 -0.00000000000E+00 -0.22660956894E+03  0.22660956894E+03  0.00000000000E+00 0. -1.
         21    1    1    2  503  504 -0.51473158228E+02 -0.80987898001E+01 -0.10867738826E+03  0.12052323898E+03  0.00000000000E+00 0. -1.
         21    1    1    2  504  501 -0.81866225064E+01 -0.10811089905E+03 -0.32340043487E+02  0.11314091079E+03  0.00000000000E+00 0. -1.
         21    1    1    2  505  502 -0.48625151471E+02  0.25574758153E+02  0.23755137707E+02  0.59856329470E+02  0.00000000000E+00 0. -1.
          1    1    1    2  501    0  0.10828493221E+03  0.90634930693E+02  0.21372556685E+03  0.25616193146E+03  0.00000000000E+00 0. -1.
<scales pt_clust_3="52.10640" pt_clust_4="14000.00000" pt_clust_5="61.87829" pt_clust_6="120.82274"></scales>
<clustering>
<clus scale="   52.106">  2  3  1 -1</clus>
<clus scale="   61.878">  1  5  2 -1</clus>
<clus scale="  120.823">  1  6  2 -1</clus>
<clus scale="   52.106">  2  3  1 -1</clus>
</clustering>
</event>
<event>
 6    0  0.1631680E+002  0.6818040E+02  0.7546771E-02  0.1366392E+00
         21   -1    0    0  504  502  0.00000000000E+00  0.00000000000E+00  0.26623216689E+03  0.26623216689E+03  0.00000000000E+00 0. -1.
          2   -1    0    0  503    0 -0.00000000000E+00 -0.00000000000E+00 -0.13079824536E+04  0.13079824536E+04  0.00000000000E+00 0. -1.
         21    1    1    2  503  505  0.17517415920E+02  0.30994729428E+02 -0.24250497419E+03  0.24510445859E+03  0.00000000000E+00 0. -1.
         21    1    1    2  504  501  0.45567932243E+02  0.93267435474E+01  0.62877418058E+01  0.46935703799E+02  0.00000000000E+00 0.  1.
         21    1    1    2  505  502 -0.11348975749E+03 -0.16694453016E+02  0.22372136901E+03  0.25141575282E+03  0.00000000000E+00 0. -1.
          2    1    1    2  501    0  0.50404409325E+02 -0.23627019959E+02 -0.10292544233E+04  0.10307587053E+04  0.00000000000E+00 0. -1.
<scales pt_clust_3="35.60243" pt_clust_4="46.96188" pt_clust_5="14000.00000" pt_clust_6="68.18040"></scales>
<clustering>
<clus scale="   35.602">  2  3  1 -1</clus>
<clus scale="   46.962">  1  4  2 -1</clus>
<clus scale="   68.180">  2  6  1 -1</clus>
<clus scale="   46.962">  1  3  2 -1</clus>
</clustering>
</event>
<event>
 6    0  0.1631680E+002  0.7822717E+02  0.7546771E-02  0.1334159E+00
         21   -1    0    0  503  502  0.00000000000E+00  0.00000000000E+00  0.17301169747E+03  0.17301169747E+03  0.00000000000E+00 0.  1.
         -1   -1    0    0    0  501 -0.00000000000E+00 -0.00000000000E+00 -0.39559839333E+03  0.39559839333E+03  0.00000000000E+00 0.  1.
         21    1    1    2  503  504  0.59262109542E+02 -0.92471127995E+01  0.10433199780E+03  0.12034397570E+03  0.00000000000E+00 0.  1.
         21    1    1    2  504  505 -0.35110783113E+02 -0.68162680041E+02  0.12249222513E+02  0.77646387510E+02  0.00000000000E+00 0.  1.
         21    1    1    2  505  501  0.27573087440E+02 -0.12773125694E+02 -0.23924255412E+02  0.38675546382E+02  0.00000000000E+00 0.  1.
         -1    1    1    2    0  502 -0.51724413869E+02  0.90182918535E+02 -0.31524366077E+03  0.33194418121E+03  0.00000000000E+00 0.  1.
<scales pt_clust_3="60.62149" pt_clust_4="78.22717" pt_clust_5="30.38796" pt_clust_6="14000.00000"></scales>
<clustering>
<clus scale="   30.388">  2  5  1 -1</clus>
<clus scale="   60.621">  1  3  2 -1</clus>
<clus scale="   78.227">  1  4  2 -1</clus>
<clus scale="   60.621">  1  3  2 -1</clus>
</clustering>
</event>
<event>
 6    0  0.1631680E+002  0.1272147E+03  0.7546771E-02  0.1231648E+00
         21   -1    0    0  501  502  0.00000000000E+00  0.00000000000E+00  0.75677052924E+02  0.75677052924E+02  0.00000000000E+00 0. -1.
          4   -1    0    0  504    0 -0.00000000000E+00 -0.00000000000E+00 -0.12261953086E+04  0.12261953086E+04  0.00000000000E+00 0. -1.
         21    1    1    2  503  505  0.12098984986E+02 -0.38453875492E+02 -0.11594393813E+01  0.40329025251E+02  0.00000000000E+00 0. -1.
         21    1    1    2  504  503  0.28237315653E+02 -0.10770906714E+03 -0.20401541500E+03  0.23242392023E+03  0.00000000000E+00 0. -1.
         21    1    1    2  505  502  0.23875075122E+02  0.29541650189E+02  0.27700059217E+02  0.47010866708E+02  0.00000000000E+00 0. -1.
          4    1    1    2  501    0 -0.64211375760E+02  0.11662129244E+03 -0.97304346049E+03  0.98210854931E+03  0.00000000000E+00 0. -1.
<scales pt_clust_3="33.70512" pt_clust_4="127.21468" pt_clust_5="37.98326" pt_clust_6="14000.00000"></scales>
<clustering>
<clus scale="   37.983">  1  5  2 -1</clus>
<clus scale="   33.705">  1  3  2 -1</clus>
<clus scale="  127.215">  1  4  2 -1</clus>
<clus scale="   37.983">  1  3  2 -1</clus>
</clustering>
</event>
<event>
 6    0  0.1631680E+002  0.8185114E+02  0.7546771E-02  0.1323879E+00
          2   -1    0    0  504    0 -0.00000000000E+00  0.00000000000E+00  0.10814089332E+04  0.10814089332E+04  0.00000000000E+00 0. -1.
         21   -1    0    0  503  502  0.00000000000E+00 -0.00000000000E+00 -0.15732527993E+04  0.15732527993E+04  0.00000000000E+00 0.  1.
         21    1    1    2  503  501 -0.31835034847E+02 -0.16423137044E+02 -0.52391602889E+03  0.52513921411E+03  0.00000000000E+00 0.  1.
         21    1    1    2  504  505  0.74730293312E+02 -0.16481943402E+01  0.58945979266E+03  0.59418025922E+03  0.00000000000E+00 0. -1.
         21    1    1    2  505  502  0.53378620422E+02  0.56198975218E+02 -0.10394237448E+04  0.10423096100E+04  0.00000000000E+00 0.  1.
          2    1    1    2  501    0 -0.96273878888E+02 -0.38127643834E+02  0.48203611492E+03  0.49303264909E+03  0.00000000000E+00 0. -1.
<scales pt_clust_3="35.82163" pt_clust_4="81.85114" pt_clust_5="45.45750" pt_clust_6="14000.00000"></scales>
<clustering>
<clus scale="   35.822">  2  3  1 -1</clus>
<clus scale="   45.457">  2  5  1 -1</clus>
<clus scale="   81.851">  1  4  2 -1</clus>
<clus scale="   35.822">  2  3  1 -1</clus>
</clustering>
</event>
<event>
 6    0  0.1631680E+002  0.1158777E+03  0.7546771E-02  0.1250057E+00
          2   -1    0    0  505    0 -0.00000000000E+00  0.00000000000E+00  0.18311081884E+03  0.18311081884E+03  0.00000000000E+00 0. -1.
         21   -1    0    0  504  502  0.00000000000E+00 -0.00000000000E+00 -0.61843161190E+03  0.61843161190E+03  0.00000000000E+00 0. -1.
         21    1    1    2  503  502 -0.85011585148E+02 -0.38969924643E+02 -0.48064013299E+03  0.48965351227E+03  0.00000000000E+00 0. -1.
         21    1    1    2  504  501 -0.43786579497E+02  0.35084965773E+02 -0.37835908081E+02  0.67674037175E+02  0.00000000000E+00 0. -1.
         21    1    1    2  505  503  0.55779396242E+02  0.51039523118E+02 -0.46025068495E+02  0.88513732806E+02  0.00000000000E+00 0. -1.
          2    1    1    2  501    0  0.73018768403E+02 -0.47154564248E+02  0.12918031651E+03  0.15570114849E+03  0.00000000000E+00 0. -1.
<scales pt_clust_3="115.87765" pt_clust_4="56.10900" pt_clust_5="74.87258" pt_clust_6="14000.00000"></scales>
<clustering>
<clus scale="   56.109">  2  4  1 -1</clus>
<clus scale="   74.873">  1  5  2 -1</clus>
<clus scale="  115.878">  2  3  1 -1</clus>
<clus scale="   56.109">  2  3  1 -1</clus>
</clustering>
</event>
<event>
 6    0  0.1631680E+002  0.7582132E+02  0.7546771E-02  0.1341346E+00
         21   -1    0    0  501  502  0.00000000000E+00  0.00000000000E+00  0.68096972717E+02  0.68096972717E+02  0.00000000000E+00 0. -1.
          2   -1    0    0  504    0 -0.00000000000E+00 -0.00000000000E+00 -0.36276389047E+04  0.36276389047E+04  0.00000000000E+00 0.  1.
         21    1    1    2  503  502 -0.19816135581E+01 -0.48055048596E+02  0.28587348816E+02  0.55950433423E+02  0.00000000000E+00 0. -1.
         21    1    1    2  504  505  0.26335140552E+02  0.25631794796E+02 -0.10213757551E+04  0.10220366733E+04  0.00000000000E+00 0.  1.
         21    1    1    2  505  503  0.69640089650E+02  0.12793249010E+02 -0.26289758548E+02  0.75528542361E+02  0.00000000000E+00 0. -1.
          2    1    1    2  501    0 -0.93993616644E+02  0.96300047894E+01 -0.25404637672E+04  0.25422202283E+04  0.00000000000E+00 0.  1.
<scales pt_clust_3="47.95592" pt_clust_4="36.74954" pt_clust_5="75.82132" pt_clust_6="14000.00000"></scales>
<clustering>
<clus scale="   36.750">  2  4  1 -1</clus>
<clus scale="   47.956">  1  3  2 -1</clus>
<clus scale="   75.821">  1  5  2 -1</clus>
<clus scale="   47.956">  1  3  2 -1</clus>
</clustering>
</event>
<event>
 6    0  0.1631680E+002  0.8075579E+02  0.7546771E-02  0.1326920E+00
         -3   -1    0    0    0  501 -0.00000000000E+00  0.00000000000E+00  0.43161208980E+03  0.43161208980E+03  0.00000000000E+00 0.  1.
         21   -1    0    0  503  502  0.00000000000E+00 -0.00000000000E+00 -0.44108859041E+03  0.44108859041E+03  0.00000000000E+00 0.  1.
         21    1    1    2  503  501 -0.27965297845E+02 -0.58307677752E+02  0.12731026064E+03  0.14279266659E+03  0.00000000000E+00 0.  1.
         21    1    1    2  504  502  0.76700108019E+02 -0.32756610273E+02 -0.35209900126E+03  0.36184196657E+03  0.00000000000E+00 0.  1.
         21    1    1    2  505  504 -0.75184239750E+02 -0.23331825630E+01 -0.46776633097E+02  0.88578592513E+02  0.00000000000E+00 0. -1.
         -3    1    1    2    0  505  0.26449429576E+02  0.93397470588E+02  0.26208887311E+03  0.27948745454E+03  0.00000000000E+00 0.  1.
<scales pt_clust_3="64.66717" pt_clust_4="14000.00000" pt_clust_5="80.75579" pt_clust_6="40.16740"></scales>
<clustering>
<clus scale="   64.667">  1  3  2 -1</clus>
<clus scale="   40.167">  1  6  2 -1</clus>
<clus scale="   80.756">  1  5  2 -1</clus>
<clus scale="   80.756">  2  3  1 -1</clus>
</clustering>
</event>
<event>
 6    0  0.1631680E+002  0.1261702E+03  0.7546771E-02  0.1233252E+00
         21   -1    0    0  503  502  0.00000000000E+00  0.00000000000E+00  0.47164214809E+03  0.47164214809E+03  0.00000000000E+00 0. -1.
         -1   -1    0    0    0  501 -0.00000000000E+00 -0.00000000000E+00 -0.34062617215E+03  0.34062617215E+03  0.00000000000E+00 0. -1.
         21    1    1    2  503  501  0.27729446436E+02 -0.11770746624E+02 -0.38407585595E+01  0.30368142881E+02  0.00000000000E+00 0.  1.
         21    1    1    2  504  502  0.53285980098E+02 -0.11458979887E+03  0.34882359732E+03  0.37100959520E+03  0.00000000000E+00 0. -1.
         21    1    1    2  505  504  0.70765897686E+01  0.13818465491E+03  0.38180054789E+02  0.14353673244E+03  0.00000000000E+00 0. -1.
         -1    1    1    2    0  505 -0.88092016303E+02 -0.11824109413E+02 -0.25214691762E+03  0.26735384973E+03  0.00000000000E+00 0. -1.
<scales pt_clust_3="30.12429" pt_clust_4="14000.00000" pt_clust_5="126.17024" pt_clust_6="69.18093"></scales>
<clustering>
<clus scale="   30.124">  2  3  1 -1</clus>
<clus scale="   69.181">  2  6  1 -1</clus>
<clus scale="  126.170">  2  5  1 -1</clus>
<clus scale="  126.170">  1  3  2 -1</clus>
</clustering>
</event>
<event>
 6    0  0.1631680E+002  0.1064628E+03  0.7546771E-02  0.1267264E+00
         21   -1    0    0  503  502  0.00000000000E+00  0.00000000000E+00  0.34663488214E+03  0.34663488214E+03  0.00000000000E+00 0.  1.
          2   -1    0    0  504    0 -0.00000000000E+00 -0.00000000000E+00 -0.15309515301E+03  0.15309515301E+03  0.00000000000E+00 0.  1.
         21    1    1    2  503  505  0.30807777973E+02  0.35882816955E+02  0.13271178898E+03  0.14088688608E+03  0.00000000000E+00 0.  1.
         21    1    1    2  504  502 -0.42739935091E+01 -0.84267849182E+02  0.12612171891E+03  0.15174328785E+03  0.00000000000E+00 0.  1.
         21    1    1    2  505  501  0.34172816777E+02 -0.47614081081E+02  0.23281458992E+02  0.63062734293E+02  0.00000000000E+00 0.  1.
          2    1    1    2  501    0 -0.60706601241E+02  0.95999113309E+02 -0.88575237750E+02  0.14403712692E+03  0.00000000000E+00 0.  1.
<scales pt_clust_3="47.29372" pt_clust_4="106.46283" pt_clust_5="57.09409" pt_clust_6="14000.00000"></scales>
<clustering>
<clus scale="   47.294">  1  3  2 -1</clus>
<clus scale="   57.094">  1  5  2 -1</clus>
<clus scale="  106.463">  1  4  2 -1</clus>
<clus scale="   47.294">  1  3  2 -1</clus>
</clustering>
</event>
<event>
 6    0  0.1631680E+002  0.1303943E+03  0.7546771E-02  0.1226872E+00
          2   -1    0    0  503    0 -0.00000000000E+00  0.00000000000E+00  0.31673118226E+04  0.31673118226E+04  0.00000000000E+00 0. -1.
         21   -1    0    0  504  502  0.00000000000E+00 -0.00000000000E+00 -0.24345224692E+02  0.24345224692E+02  0.00000000000E+00 0. -1.
         21    1    1    2  503  505 -0.52552494035E+02 -0.22332288397E+01  0.24431671438E+04  0.24437333006E+04  0.00000000000E+00 0. -1.
         21    1    1    2  504  501 -0.27290101174E+01 -0.65885959032E+02  0.16418458561E+03  0.17693214870E+03  0.00000000000E+00 0. -1.
         21    1    1    2  505  502  0.53745771735E+02  0.11497694919E+03  0.23818700605E+03  0.26989137940E+03  0.00000000000E+00 0. -1.
          2    1    1    2  501    0  0.15357324171E+01 -0.46857761315E+02  0.29742786246E+03  0.30110021859E+03  0.00000000000E+00 0. -1.
<scales pt_clust_3="52.59992" pt_clust_4="43.94560" pt_clust_5="119.52553" pt_clust_6="43.94560"></scales>
<clustering>
<clus scale="   43.946">  4  6 -1 -1</clus>
<clus scale="   52.600">  1  3  2 -1</clus>
<clus scale="  119.526">  2  5  1 -1</clus>
<clus scale="  119.526">  2  3  1 -1</clus>
</clustering>
</event>
<event>
 6    0  0.1631680E+002  0.7164974E+02  0.7546771E-02  0.1354571E+00
         21   -1    0    0  504  502  0.00000000000E+00  0.00000000000E+00  0.22143175759E+03  0.22143175759E+03  0.00000000000E+00 0.  1.
         -3   -1    0    0    0  501 -0.00000000000E+00 -0.00000000000E+00 -0.28985054223E+04  0.28985054223E+04  0.00000000000E+00 0. -1.
         21    1    1    2  503  501 -0.61210753099E+02 -0.35498767522E+02 -0.15217196692E+04  0.15233639323E+04  0.00000000000E+00 0. -1.
         21    1    1    2  504  505 -0.22988232804E+01 -0.49024402397E+02  0.20985703607E+03  0.21551949380E+03  0.00000000000E+00 0.  1.
         21    1    1    2  505  503 -0.15142617387E+02  0.81325499232E+02 -0.25557903880E+03  0.26863317137E+03  0.00000000000E+00 0. -1.
         -3    1    1    2    0  502  0.78652193767E+02  0.31976706868E+01 -0.11096319928E+04  0.11124205824E+04  0.00000000000E+00 0. -1.
<scales pt_clust_3="71.64974" pt_clust_4="49.07827" pt_clust_5="47.80016" pt_clust_6="14000.00000"></scales>
<clustering>
<clus scale="   49.078">  1  4  2 -1</clus>
<clus scale="   47.800">  1  5  2 -1</clus>
<clus scale="   71.650">  2  3  1 -1</clus>
<clus scale="   49.078">  1  3  2 -1</clus>
</clustering>
</event>
<event>
 6    0  0.1631680E+002  0.1352410E+03  0.7546771E-02  0.1219880E+00
          2   -1    0    0  504    0 -0.00000000000E+00  0.00000000000E+00  0.54743034741E+03  0.54743034741E+03  0.00000000000E+00 0.  1.
         21   -1    0    0  505  502  0.00000000000E+00 -0.00000000000E+00 -0.57568153094E+02  0.57568153094E+02  0.00000000000E+00 0.  1.
         21    1    1    2  503  501  0.26014291662E+02 -0.21346301578E+02  0.83584909091E+02  0.90104633563E+02  0.00000000000E+00 0.  1.
         21    1    1    2  504  502 -0.94192626711E+02  0.74881171173E+02  0.89999093407E+02  0.15026402609E+03  0.00000000000E+00 0.  1.
         21    1    1    2  505  503  0.50873801769E+02 -0.86346422960E+02  0.88042092869E+02  0.13339887024E+03  0.00000000000E+00 0.  1.
          2    1    1    2  501    0  0.17304533280E+02  0.32811553364E+02  0.22823609895E+03  0.23123097061E+03  0.00000000000E+00 0.  1.
<scales pt_clust_3="31.67753" pt_clust_4="123.69976" pt_clust_5="31.67753" pt_clust_6="37.09508"></scales>
<clustering>
<clus scale="   31.678">  3  5 -1 -1</clus>
<clus scale="   37.095">  1  6  2 -1</clus>
<clus scale="  123.700">  2  4  1 -1</clus>
<clus scale="  123.700">  2  3  1 -1</clus>
</clustering>
</event>
<event>
 6    0  0.1631680E+002  0.1020588E+03  0.7546771E-02  0.1276025E+00
          2   -1    0    0  505    0 -0.00000000000E+00  0.00000000000E+00  0.67800768698E+03  0.67800768698E+03  0.00000000000E+00 0. -1.
         21   -1    0    0  503  502  0.00000000000E+00 -0.00000000000E+00 -0.29873537380E+03  0.29873537380E+03  0.00000000000E+00 0.  1.
         21    1    1    2  503  501  0.61415695057E+02  0.85493152618E+01 -0.78882469573E+02  0.10033654567E+03  0.00000000000E+00 0.  1.
         21    1    1    2  504  502  0.21286024539E+02 -0.75923906684E+02 -0.18589977411E+03  0.20193132610E+03  0.00000000000E+00 0.  1.
         21    1    1    2  505  504 -0.46852103437E+02  0.61716532319E+01  0.29215975433E+02  0.55558816767E+02  0.00000000000E+00 0.  1.
          2    1    1    2  501    0 -0.35849616159E+02  0.61202938190E+02  0.61483858143E+03  0.61891637225E+03  0.00000000000E+00 0. -1.
<scales pt_clust_3="61.23947" pt_clust_4="14000.00000" pt_clust_5="47.25684" pt_clust_6="102.05879"></scales>
<clustering>
<clus scale="   47.257">  1  5  2 -1</clus>
<clus scale="   61.239">  2  3  1 -1</clus>
<clus scale="  102.059">  1  6  2 -1</clus>
<clus scale="   61.239">  2  3  1 -1</clus>
</clustering>
</event>
<event>
 6    0  0.1631680E+002  0.8958483E+02  0.7546771E-02  0.1303860E+00
         21   -1    0    0  505  502  0.00000000000E+00  0.00000000000E+00  0.24621134884E+02  0.24621134884E+02  0.00000000000E+00 0.  1.
          2   -1    0    0  504    0 -0.00000000000E+00 -0.00000000000E+00 -0.25322951594E+04  0.25322951594E+04  0.00000000000E+00 0.  1.
         21    1    1    2  503  502  0.96945437809E+02  0.21946750046E+02 -0.37207312057E+03  0.38512138969E+03  0.00000000000E+00 0.  1.
         21    1    1    2  504  503  0.35570461971E+02  0.28290090761E+01 -0.15501255041E+04  0.15505361459E+04  0.00000000000E+00 0.  1.
         21    1    1    2  505  501 -0.42987120042E+02  0.21295020818E+02 -0.29668739504E+02  0.56405713406E+02  0.00000000000E+00 0.  1.
          2    1    1    2  501    0 -0.89528779738E+02 -0.46070779940E+02 -0.55580666029E+03  0.56485304531E+03  0.00000000000E+00 0.  1.
<scales pt_clust_3="14000.00000" pt_clust_4="35.68278" pt_clust_5="46.63760" pt_clust_6="89.58483"></scales>
<clustering>
<clus scale="   35.683">  2  4  1 -1</clus>
<clus scale="   46.638">  1  5  2 -1</clus>
<clus scale="   89.585">  2  6  1 -1</clus>
<clus scale="   46.638">  1  3  2 -1</clus>
</clustering>
</event>
<event>
 6    0  0.1631680E+002  0.1019522E+03  0.7546771E-02  0.1276244E+00
          2   -1    0    0  502    0 -0.00000000000E+00  0.00000000000E+00  0.13422538673E+04  0.13422538673E+04  0.00000000000E+00 0. -1.
         21   -1    0    0  504  502  0.00000000000E+00 -0.00000000000E+00 -0.87931191523E+02  0.87931191523E+02  0.00000000000E+00 0.  1.
         21    1    1    2  503  501 -0.29601864403E+02  0.91781352823E+02  0.41199106504E+03  0.42312731509E+03  0.00000000000E+00 0. -1.
         21    1    1    2  504  505  0.31231706087E+02 -0.24008284310E+02 -0.68866179160E+02  0.79337051954E+02  0.00000000000E+00 0.  1.
         21    1    1    2  505  503  0.35456995950E+02  0.43161247217E+02  0.24067201105E+03  0.24706903636E+03  0.00000000000E+00 0. -1.
          2    1    1    2  501    0 -0.37086837634E+02 -0.11093431573E+03  0.67052577888E+03  0.68065165545E+03  0.00000000000E+00 0. -1.
<scales pt_clust_3="101.95217" pt_clust_4="39.39311" pt_clust_5="56.88597" pt_clust_6="14000.00000"></scales>
<clustering>
<clus scale="   39.393">  2  4  1 -1</clus>
<clus scale="   56.886">  2  5  1 -1</clus>
<clus scale="  101.952">  2  3  1 -1</clus>
<clus scale="   39.393">  2  3  1 -1</clus>
</clustering>
</event>
<event>
 6    0  0.1631680E+002  0.6991666E+02  0.7546771E-02  0.1360377E+00
          2   -1    0    0  505    0 -0.00000000000E+00  0.00000000000E+00  0.28575803758E+04  0.28575803758E+04  0.00000000000E+00 0.  1.
         21   -1    0    0  504  502  0.00000000000E+00 -0.00000000000E+00 -0.18118811543E+03  0.18118811543E+03  0.00000000000E+00 0. -1.
         21    1    1    2  503  502 -0.85037485600E+02  0.83083227083E+02 -0.14957901593E+03  0.19107087320E+03  0.00000000000E+00 0. -1.
         21    1    1    2  504  501  0.60236456498E+02 -0.20351829900E+02  0.11325812741E+03  0.12988468384E+03  0.00000000000E+00 0.  1.
         21    1    1    2  505  503  0.67424370466E+02  0.50072255299E+01  0.64126802599E+03  0.64482230048E+03  0.00000000000E+00 0.  1.
          2    1    1    2  501    0 -0.42623341363E+02 -0.67738622712E+02  0.20714451229E+04  0.20729906337E+04  0.00000000000E+00 0.  1.
<scales pt_clust_3="68.06564" pt_clust_4="63.58166" pt_clust_5="14000.00000" pt_clust_6="69.91666"></scales>
<clustering>
<clus scale="   63.582">  2  4  1 -1</clus>
<clus scale="   68.066">  2  3  1 -1</clus>
<clus scale="   69.917">  1  6  2 -1</clus>
<clus scale="   63.582">  2  3  1 -1</clus>
</clustering>
</event>
<event>
 6    0  0.1631680E+002  0.6953496E+02  0.7546771E-02  0.1361682E+00
          2   -1    0    0  505    0 -0.00000000000E+00  0.00000000000E+00  0.22608718641E+04  0.22608718641E+04  0.00000000000E+00 0.  1.
         21   -1    0    0  504  502  0.00000000000E+00 -0.00000000000E+00 -0.49305848942E+02  0.49305848942E+02  0.00000000000E+00 0. -1.
         21    1    1    2  503  502  0.67021133535E+02  0.36404510101E+02 -0.42120735284E+01  0.76386270098E+02  0.00000000000E+00 0. -1.
         21    1    1    2  504  501 -0.36974162881E+02 -0.20144669922E+02  0.68502790383E+02  0.80408511597E+02  0.00000000000E+00 0.  1.
         21    1    1    2  505  503 -0.24894357843E+02  0.57459256467E+02  0.43183655864E+03  0.43635319247E+03  0.00000000000E+00 0. -1.
          2    1    1    2  501    0 -0.51526128115E+01 -0.73719096646E+02  0.17154387397E+04  0.17170297389E+04  0.00000000000E+00 0.  1.
<scales pt_clust_3="37.13030" pt_clust_4="42.10578" pt_clust_5="14000.00000" pt_clust_6="69.53496"></scales>
<clustering>
<clus scale="   42.106">  2  4  1 -1</clus>
<clus scale="   37.130">  2  3  1 -1</clus>
<clus scale="   69.535">  1  6  2 -1</clus>
<clus scale="   42.106">  2  3  1 -1</clus>
</clustering>
</event>
<event>
 6    0  0.1631680E+002  0.1885174E+03  0.7546771E-02  0.1159805E+00
          2   -1    0    0  505    0 -0.00000000000E+00  0.00000000000E+00  0.25506890623E+04  0.25506890623E+04  0.00000000000E+00 0.  1.
         21   -1    0    0  501  502  0.00000000000E+00 -0.00000000000E+00 -0.80579681337E+02  0.80579681337E+02  0.00000000000E+00 0.  1.
         21    1    1    2  503  502  0.32002329233E+02 -0.25763351016E+02 -0.40887080839E+01  0.41287006015E+02  0.00000000000E+00 0.  1.
         21    1    1    2  504  503  0.27769662157E+02 -0.15243688113E+03  0.11531823727E+03  0.19314878387E+03  0.00000000000E+00 0.  1.
         21    1    1    2  505  504 -0.26938591503E+01 -0.11303546962E+03  0.40282464255E+03  0.41839212100E+03  0.00000000000E+00 0.  1.
          2    1    1    2  501    0 -0.57078132240E+02  0.29123570176E+03  0.19560552092E+04  0.19784408328E+04  0.00000000000E+00 0.  1.
<scales pt_clust_3="41.08405" pt_clust_4="14000.00000" pt_clust_5="116.51054" pt_clust_6="188.51737"></scales>
<clustering>
<clus scale="   41.084">  2  3  1 -1</clus>
<clus scale="  116.511">  1  5  2 -1</clus>
<clus scale="  188.517">  1  6  2 -1</clus>
<clus scale="   41.084">  2  3  1 -1</clus>
</clustering>
</event>
<event>
 6    0  0.1631680E+002  0.7364977E+02  0.7546771E-02  0.1348104E+00
          1   -1    0    0  504    0 -0.00000000000E+00  0.00000000000E+00  0.91311439024E+03  0.91311439024E+03  0.00000000000E+00 0.  1.
         21   -1    0    0  505  502  0.00000000000E+00 -0.00000000000E+00 -0.10934639122E+04  0.10934639122E+04  0.00000000000E+00 0. -1.
         21    1    1    2  503  502  0.21123478406E+02 -0.48657811968E+02 -0.98274719965E+03  0.98417774941E+03  0.00000000000E+00 0. -1.
         21    1    1    2  504  503  0.30190522623E+02 -0.82028705657E+02  0.19590785790E+03  0.21452287755E+03  0.00000000000E+00 0.  1.
         21    1    1    2  505  501 -0.21632941810E+02  0.11676394759E+03 -0.65142963467E+02  0.13544522626E+03  0.00000000000E+00 0. -1.
          1    1    1    2  501    0 -0.29681059219E+02  0.13922570037E+02  0.67163278326E+03  0.67243244923E+03  0.00000000000E+00 0.  1.
<scales pt_clust_3="52.97219" pt_clust_4="14000.00000" pt_clust_5="73.64977" pt_clust_6="32.78419"></scales>
<clustering>
<clus scale="   32.784">  1  6  2 -1</clus>
<clus scale="   52.972">  2  3  1 -1</clus>
<clus scale="   73.650">  2  5  1 -1</clus>
<clus scale="   52.972">  2  3  1 -1</clus>
</clustering>
</event>
<event>
 6    0  0.1631680E+002  0.1263150E+03  0.7546771E-02  0.1233028E+00
         21   -1    0    0  505  502  0.00000000000E+00  0.00000000000E+00  0.15512259340E+03  0.15512259340E+03  0.00000000000E+00 0.  1.
          2   -1    0    0  503    0 -0.00000000000E+00 -0.00000000000E+00 -0.15527795015E+04  0.15527795015E+04  0.00000000000E+00 0. -1.
         21    1    1    2  503  504 -0.31257345639E+02  0.20928779299E+02 -0.76224178683E+02  0.85000946320E+02  0.00000000000E+00 0. -1.
         21    1    1    2  504  502 -0.44144002676E+02 -0.78131463732E+02 -0.12438429813E+04  0.12470760124E+04  0.00000000000E+00 0. -1.
         21    1    1    2  505  501 -0.51590636710E+02  0.11809752145E+03  0.89794880707E+02  0.15707240041E+03  0.00000000000E+00 0.  1.
          2    1    1    2  501    0  0.12699198503E+03 -0.60894837016E+02 -0.16738462876E+03  0.21875273571E+03  0.00000000000E+00 0. -1.
<scales pt_clust_3="37.61696" pt_clust_4="92.91879" pt_clust_5="14000.00000" pt_clust_6="126.31497"></scales>
<clustering>
<clus scale="   37.617">  2  3  1 -1</clus>
<clus scale="   92.919">  2  4  1 -1</clus>
<clus scale="  126.315">  2  6  1 -1</clus>
<clus scale="  126.315">  1  3  2 -1</clus>
</clustering>
</event>
<event>
 6    0  0.1631680E+002  0.1441029E+03  0.7546771E-02  0.1207912E+00
         21   -1    0    0  505  502  0.00000000000E+00  0.00000000000E+00  0.55377730384E+03  0.55377730384E+03  0.00000000000E+00 0. -1.
          2   -1    0    0  504    0 -0.00000000000E+00 -0.00000000000E+00 -0.15244482941E+03  0.15244482941E+03  0.00000000000E+00 0. -1.
         21    1    1    2  503  502 -0.15200870351E+02  0.78375872388E+02  0.29026503430E+03  0.30104423922E+03  0.00000000000E+00 0. -1.
         21    1    1    2  504  503  0.23504258928E+02  0.30898704872E+02  0.18356099522E+03  0.18762147829E+03  0.00000000000E+00 0. -1.
         21    1    1    2  505  501  0.24796348405E+02  0.24694755455E+02  0.29651079614E+02  0.45868032043E+02  0.00000000000E+00 0.  1.
          2    1    1    2  501    0 -0.33099736982E+02 -0.13396933272E+03 -0.10214463471E+03  0.17168838370E+03  0.00000000000E+00 0. -1.
<scales pt_clust_3="33.24754" pt_clust_4="33.24754" pt_clust_5="34.99557" pt_clust_6="135.98698"></scales>
<clustering>
<clus scale="   33.248">  3  4 -1 -1</clus>
<clus scale="   34.996">  1  5  2 -1</clus>
<clus scale="  135.987">  2  6  1 -1</clus>
<clus scale="   34.996">  1  3  2 -1</clus>
</clustering>
</event>
<event>
 6    0  0.1631680E+002  0.8207391E+02  0.7546771E-02  0.1323267E+00
         -1   -1    0    0    0  501 -0.00000000000E+00  0.00000000000E+00  0.26379553186E+03  0.26379553186E+03  0.00000000000E+00 0.  1.
         21   -1    0    0  505  502  0.00000000000E+00 -0.00000000000E+00 -0.49016459720E+03  0.49016459720E+03  0.00000000000E+00 0. -1.
         21    1    1    2  503  504 -0.58804356525E+02 -0.76750422016E+02 -0.39619707599E+02  0.10449067354E+03  0.00000000000E+00 0. -1.
         21    1    1    2  504  502  0.51693659695E+02 -0.11453567146E+02 -0.38917420896E+03  0.39275944746E+03  0.00000000000E+00 0. -1.
         21    1    1    2  505  501  0.31500251558E+02  0.33870200970E+02  0.57563943280E+00  0.46257839581E+02  0.00000000000E+00 0. -1.
         -1    1    1    2    0  503 -0.24389554727E+02  0.54333788193E+02  0.20184921178E+03  0.21045216848E+03  0.00000000000E+00 0.  1.
<scales pt_clust_3="82.07391" pt_clust_4="53.12286" pt_clust_5="46.25426" pt_clust_6="14000.00000"></scales>
<clustering>
<clus scale="   46.254">  1  5  2 -1</clus>
<clus scale="   53.123">  2  4  1 -1</clus>
<clus scale="   82.074">  2  3  1 -1</clus>
<clus scale="   53.123">  2  3  1 -1</clus>
</clustering>
</event>
<event>
 6    0  0.2890820E+002  0.3329593E+03  0.7546771E-02  0.1069835E+00
         21   -1    0    0  505  502  0.00000000000E+00  0.00000000000E+00  0.13710873478E+04  0.13710873478E+04  0.00000000000E+00 0.  1.
          2   -1    0    0  503    0 -0.00000000000E+00 -0.00000000000E+00 -0.73011412592E+03  0.73011412592E+03  0.00000000000E+00 0. -1.
         21    1    1    2  503  504  0.40427044016E+02 -0.13820056106E+01  0.10895690618E+02  0.41892384766E+02  0.00000000000E+00 0.  1.
         21    1    1    2  504  502  0.33371167293E+02  0.31538798517E+03  0.12843173919E+04  0.13228962087E+04  0.00000000000E+00 0.  1.
         21    1    1    2  505  501  0.21772772524E+02 -0.29409100232E+02 -0.53244873758E+02  0.64606233301E+02  0.00000000000E+00 0.  1.
          2    1    1    2  501    0 -0.95570983832E+02 -0.28459687932E+03 -0.60099498684E+03  0.67180664694E+03  0.00000000000E+00 0. -1.
<scales pt_clust_3="40.45066" pt_clust_4="317.22817" pt_clust_5="35.30810" pt_clust_6="35.30810"></scales>
<clustering>
<clus scale="   35.308">  5  6 -1 -1</clus>
<clus scale="   40.451">  2  3  1 -1</clus>
<clus scale="  317.228">  1  4  2 -1</clus>
<clus scale="  317.228">  1  3  2 -1</clus>
</clustering>
</event>
<event>
 6    0  0.1631680E+002  0.8490717E+02  0.7546771E-02  0.1315675E+00
         21   -1    0    0  504  502  0.00000000000E+00  0.00000000000E+00  0.95631981179E+03  0.95631981179E+03  0.00000000000E+00 0. -1.
         -1   -1    0    0    0  501 -0.00000000000E+00 -0.00000000000E+00 -0.37256854655E+03  0.37256854655E+03  0.00000000000E+00 0. -1.
         21    1    1    2  503  501  0.35046571931E+02 -0.50330671616E+02 -0.89051586945E+02  0.10812781255E+03  0.00000000000E+00 0. -1.
         21    1    1    2  504  505 -0.22350127067E+02 -0.30157988445E+02  0.87847682098E+03  0.87927842999E+03  0.00000000000E+00 0. -1.
         21    1    1    2  505  503  0.43209192485E+02 -0.23452241197E+02  0.43580064385E+02  0.65698279613E+02  0.00000000000E+00 0. -1.
         -1    1    1    2    0  502 -0.55905637348E+02  0.10394090126E+03 -0.24925403319E+03  0.27578383619E+03  0.00000000000E+00 0. -1.
<scales pt_clust_3="14000.00000" pt_clust_4="37.53708" pt_clust_5="52.47614" pt_clust_6="84.90717"></scales>
<clustering>
<clus scale="   37.537">  1  4  2 -1</clus>
<clus scale="   52.476">  1  5  2 -1</clus>
<clus scale="   84.907">  1  6  2 -1</clus>
<clus scale="   37.537">  1  3  2 -1</clus>
</clustering>
</event>
<event>
 6    0  0.1631680E+002  0.8166424E+02  0.7546771E-02  0.1324394E+00
         -3   -1    0    0    0  501 -0.00000000000E+00  0.00000000000E+00  0.43304913077E+03  0.43304913077E+03  0.00000000000E+00 0. -1.
         21   -1    0    0  505  502  0.00000000000E+00 -0.00000000000E+00 -0.71993283138E+02  0.71993283138E+02  0.00000000000E+00 0.  1.
         21    1    1    2  503  501  0.53409092133E+02 -0.52500613682E+02  0.12320085255E+03  0.14417799981E+03  0.00000000000E+00 0.  1.
         21    1    1    2  504  502 -0.85247259402E+02 -0.62838454173E+02  0.35057978116E+02  0.11155639107E+03  0.00000000000E+00 0.  1.
         21    1    1    2  505  503  0.17742422577E+02  0.29051248611E+02  0.68265970940E+01  0.34718453777E+02  0.00000000000E+00 0.  1.
         -3    1    1    2    0  504  0.14095744692E+02  0.86287819245E+02  0.19597041987E+03  0.21458956925E+03  0.00000000000E+00 0. -1.
<scales pt_clust_3="73.74242" pt_clust_4="14000.00000" pt_clust_5="34.04069" pt_clust_6="81.66424"></scales>
<clustering>
<clus scale="   34.041">  2  5  1 -1</clus>
<clus scale="   73.742">  1  3  2 -1</clus>
<clus scale="   81.664">  1  6  2 -1</clus>
<clus scale="   34.041">  2  3  1 -1</clus>
</clustering>
</event>
<event>
 6    0  0.1631680E+002  0.1399440E+03  0.7546771E-02  0.1213404E+00
         21   -1    0    0  501  502  0.00000000000E+00  0.00000000000E+00  0.10906402303E+04  0.10906402303E+04  0.00000000000E+00 0.  1.
          2   -1    0    0  504    0 -0.00000000000E+00 -0.00000000000E+00 -0.24075053915E+04  0.24075053915E+04  0.00000000000E+00 0. -1.
         21    1    1    2  503  502 -0.12832848976E+03 -0.15986454985E+02  0.99689620250E+03  0.10052491266E+04  0.00000000000E+00 0.  1.
         21    1    1    2  504  505  0.37574802075E+02  0.40405371074E+02 -0.43531928582E+03  0.43880216541E+03  0.00000000000E+00 0. -1.
         21    1    1    2  505  503  0.21735435195E+03 -0.87479046161E+02 -0.76297023416E+02  0.24640765737E+03  0.00000000000E+00 0. -1.
          2    1    1    2  501    0 -0.12660066427E+03  0.63060130072E+02 -0.18021450545E+04  0.18076866724E+04  0.00000000000E+00 0. -1.
<scales pt_clust_3="129.23081" pt_clust_4="55.17662" pt_clust_5="14000.00000" pt_clust_6="139.94399"></scales>
<clustering>
<clus scale="   55.177">  2  4  1 -1</clus>
<clus scale="  129.231">  1  3  2 -1</clus>
<clus scale="  139.944">  2  6  1 -1</clus>
<clus scale="  129.231">  1  3  2 -1</clus>
</clustering>
</event>
<event>
 6    0  0.1631680E+002  0.1339615E+03  0.7546771E-02  0.1221693E+00
          3   -1    0    0  505    0 -0.00000000000E+00  0.00000000000E+00  0.23904798433E+03  0.23904798433E+03  0.00000000000E+00 0. -1.
         21   -1    0    0  504  502  0.00000000000E+00 -0.00000000000E+00 -0.15236509482E+03  0.15236509482E+03  0.00000000000E+00 0. -1.
         21    1    1    2  503  502  0.13263157536E+03  0.45895182858E+02 -0.62164201884E+01  0.14048539594E+03  0.00000000000E+00 0. -1.
         21    1    1    2  504  501 -0.32675745814E+02 -0.23637912248E+01 -0.18683477206E+02  0.37714243913E+02  0.00000000000E+00 0.  1.
         21    1    1    2  505  503 -0.42358284115E+02  0.24361637895E+02  0.11412266191E+03  0.12414385042E+03  0.00000000000E+00 0.  1.
          3    1    1    2  501    0 -0.57597545433E+02 -0.67893029529E+02 -0.25398750075E+01  0.89069588882E+02  0.00000000000E+00 0. -1.
<scales pt_clust_3="124.12601" pt_clust_4="30.56222" pt_clust_5="48.86424" pt_clust_6="30.56222"></scales>
<clustering>
<clus scale="   30.562">  4  6 -1 -1</clus>
<clus scale="   48.864">  1  5  2 -1</clus>
<clus scale="  124.126">  1  3  2 -1</clus>
<clus scale="  133.962">  2  3  1 -1</clus>
</clustering>
</event>
<event>
 6    0  0.1631680E+002  0.9371520E+02  0.7546771E-02  0.1294096E+00
          2   -1    0    0  503    0 -0.00000000000E+00  0.00000000000E+00  0.27388999223E+04  0.27388999223E+04  0.00000000000E+00 0.  1.
         21   -1    0    0  504  502  0.00000000000E+00 -0.00000000000E+00 -0.17600200459E+02  0.17600200459E+02  0.00000000000E+00 0.  1.
         21    1    1    2  503  505  0.44294148331E+02 -0.52461839994E+02  0.10672669945E+04  0.10694732600E+04  0.00000000000E+00 0.  1.
         21    1    1    2  504  501  0.52127514158E+02 -0.59431678817E+01  0.14305303931E+03  0.15237050578E+03  0.00000000000E+00 0. -1.
         21    1    1    2  505  502  0.63522074934E+01 -0.66188632345E+02  0.14937393577E+03  0.16350491821E+03  0.00000000000E+00 0.  1.
          2    1    1    2  501    0 -0.10277386998E+03  0.12459364022E+03  0.13616057523E+04  0.13711514388E+04  0.00000000000E+00 0.  1.
<scales pt_clust_3="71.97916" pt_clust_4="52.46522" pt_clust_5="14000.00000" pt_clust_6="93.71520"></scales>
<clustering>
<clus scale="   52.465">  2  4  1 -1</clus>
<clus scale="   71.979">  1  3  2 -1</clus>
<clus scale="   93.715">  1  6  2 -1</clus>
<clus scale="   52.465">  2  3  1 -1</clus>
</clustering>
</event>
<event>
 6    0  0.1631680E+002  0.1010922E+03  0.7546771E-02  0.1278016E+00
          2   -1    0    0  505    0 -0.00000000000E+00  0.00000000000E+00  0.51154765143E+03  0.51154765143E+03  0.00000000000E+00 0. -1.
         21   -1    0    0  503  502  0.00000000000E+00 -0.00000000000E+00 -0.11148186165E+03  0.11148186165E+03  0.00000000000E+00 0. -1.
         21    1    1    2  503  501 -0.62343428212E+02  0.91279860899E+02 -0.49642887786E+02  0.12117397557E+03  0.00000000000E+00 0. -1.
         21    1    1    2  504  502  0.48436452315E+02 -0.62815817616E+02  0.63815877815E+02  0.10180561437E+03  0.00000000000E+00 0. -1.
         21    1    1    2  505  504  0.56084418252E+02 -0.14919185420E+02  0.26542024651E+03  0.27169091137E+03  0.00000000000E+00 0. -1.
          2    1    1    2  501    0 -0.42177442354E+02 -0.13544857863E+02  0.12047255324E+03  0.12835901177E+03  0.00000000000E+00 0. -1.
<scales pt_clust_3="14000.00000" pt_clust_4="101.09223" pt_clust_5="36.20570" pt_clust_6="44.29898"></scales>
<clustering>
<clus scale="   44.299">  1  6  2 -1</clus>
<clus scale="   36.206">  1  5  2 -1</clus>
<clus scale="  101.092">  1  4  2 -1</clus>
<clus scale="  101.092">  2  3  1 -1</clus>
</clustering>
</event>
<event>
 6    0  0.1631680E+002  0.1472258E+03  0.7546771E-02  0.1203924E+00
         21   -1    0    0  505  502  0.00000000000E+00  0.00000000000E+00  0.10167271503E+03  0.10167271503E+03  0.00000000000E+00 0.  1.
         -2   -1    0    0    0  501 -0.00000000000E+00 -0.00000000000E+00 -0.75998630667E+03  0.75998630667E+03  0.00000000000E+00 0. -1.
         21    1    1    2  503  504  0.34418798928E+02 -0.14876574224E+03 -0.19015890867E+02  0.15387496187E+03  0.00000000000E+00 0.  1.
         21    1    1    2  504  501 -0.48703580299E+02  0.53769421446E+02 -0.22821463517E+03  0.23946838857E+03  0.00000000000E+00 0.  1.
         21    1    1    2  505  503 -0.35734299321E+02 -0.11430945586E+02  0.32111793793E+01  0.37655256445E+02  0.00000000000E+00 0. -1.
         -2    1    1    2    0  502  0.50019080692E+02  0.10642726638E+03 -0.41429424499E+03  0.43066041482E+03  0.00000000000E+00 0. -1.
<scales pt_clust_3="147.22584" pt_clust_4="73.66063" pt_clust_5="37.51808" pt_clust_6="14000.00000"></scales>
<clustering>
<clus scale="   37.518">  1  5  2 -1</clus>
<clus scale="   73.661">  2  4  1 -1</clus>
<clus scale="  147.226">  1  3  2 -1</clus>
<clus scale="   37.518">  1  3  2 -1</clus>
</clustering>
</event>
<event>
 6    0  0.1631680E+002  0.4196186E+03  0.7546771E-02  0.1037191E+00
         21   -1    0    0  501  502  0.00000000000E+00  0.00000000000E+00  0.21102487924E+04  0.21102487924E+04  0.00000000000E+00 0.  1.
          1   -1    0    0  504    0 -0.00000000000E+00 -0.00000000000E+00 -0.31048656238E+03  0.31048656238E+03  0.00000000000E+00 0. -1.
         21    1    1    2  503  505 -0.48970106759E+02  0.27150711538E+02  0.22680390652E+03  0.23361345104E+03  0.00000000000E+00 0.  1.
         21    1    1    2  504  503  0.39949435198E+02 -0.35811709487E+01 -0.15789956272E+03  0.16291425372E+03  0.00000000000E+00 0. -1.
         21    1    1    2  505  502 -0.13245250870E+03  0.34215735712E+03  0.15491714445E+04  0.15920262210E+04  0.00000000000E+00 0.  1.
          1    1    1    2  501    0  0.14147318026E+03 -0.36572689771E+03  0.18168644173E+03  0.43218142898E+03  0.00000000000E+00 0. -1.
<scales pt_clust_3="38.21470" pt_clust_4="40.10963" pt_clust_5="38.21470" pt_clust_6="408.05708"></scales>
<clustering>
<clus scale="   38.215">  3  5 -1 -1</clus>
<clus scale="   40.110">  2  4  1 -1</clus>
<clus scale="  408.057">  2  6  1 -1</clus>
<clus scale="  419.619">  1  3  2 -1</clus>
</clustering>
</event>
<event>
 6    0  0.1631680E+002  0.1118422E+03  0.7546771E-02  0.1257196E+00
          2   -1    0    0  502    0 -0.00000000000E+00  0.00000000000E+00  0.27654241827E+04  0.27654241827E+04  0.00000000000E+00 0. -1.
         21   -1    0    0  503  502  0.00000000000E+00 -0.00000000000E+00 -0.94304150408E+02  0.94304150408E+02  0.00000000000E+00 0. -1.
         21    1    1    2  503  505 -0.10953520518E+02  0.38976094901E+02 -0.68769557402E+02  0.79802052672E+02  0.00000000000E+00 0. -1.
         21    1    1    2  504  501 -0.89492462427E+02 -0.51549786998E+02  0.16401532882E+03  0.19382288167E+03  0.00000000000E+00 0. -1.
         21    1    1    2  505  504  0.87449996547E+01 -0.52845658759E+02  0.18555870088E+03  0.19313510851E+03  0.00000000000E+00 0.  1.
          2    1    1    2  501    0  0.91700983290E+02  0.65419350856E+02  0.23903155600E+04  0.23929682903E+04  0.00000000000E+00 0. -1.
<scales pt_clust_3="40.48599" pt_clust_4="14000.00000" pt_clust_5="45.95688" pt_clust_6="111.84220"></scales>
<clustering>
<clus scale="   40.486">  2  3  1 -1</clus>
<clus scale="   45.957">  2  5  1 -1</clus>
<clus scale="  111.842">  1  6  2 -1</clus>
<clus scale="   40.486">  2  3  1 -1</clus>
</clustering>
</event>
<event>
 6    0  0.1631680E+002  0.1013740E+03  0.7546771E-02  0.1277433E+00
         21   -1    0    0  501  502  0.00000000000E+00  0.00000000000E+00  0.42981384206E+02  0.42981384206E+02  0.00000000000E+00 0.  1.
          2   -1    0    0  504    0 -0.00000000000E+00 -0.00000000000E+00 -0.22071251863E+04  0.22071251863E+04  0.00000000000E+00 0.  1.
         21    1    1    2  503  502 -0.49231921837E+02 -0.10091370404E+03 -0.46344229286E+02  0.12147075936E+03  0.00000000000E+00 0.  1.
         21    1    1    2  504  505 -0.20381895147E+02  0.30546871701E+02 -0.79458103278E+03  0.79542916132E+03  0.00000000000E+00 0.  1.
         21    1    1    2  505  503  0.15407242299E+02  0.66150398047E+02 -0.26412075505E+03  0.27271419385E+03  0.00000000000E+00 0. -1.
          2    1    1    2  501    0  0.54206574685E+02  0.42164342910E+01 -0.10590977849E+04  0.10604924559E+04  0.00000000000E+00 0.  1.
<scales pt_clust_3="101.37399" pt_clust_4="36.72238" pt_clust_5="14000.00000" pt_clust_6="47.44118"></scales>
<clustering>
<clus scale="   36.722">  2  4  1 -1</clus>
<clus scale="   47.441">  2  6  1 -1</clus>
<clus scale="  101.374">  1  3  2 -1</clus>
<clus scale="  101.374">  1  3  2 -1</clus>
</clustering>
</event>
<event>
 6    0  0.1631680E+002  0.3453061E+03  0.7546771E-02  0.1064558E+00
         21   -1    0    0  504  502  0.00000000000E+00  0.00000000000E+00  0.39080074189E+03  0.39080074189E+03  0.00000000000E+00 0. -1.
          1   -1    0    0  505    0 -0.00000000000E+00 -0.00000000000E+00 -0.20676343001E+04  0.20676343001E+04  0.00000000000E+00 0.  1.
         21    1    1    2  503  502  0.58538399872E+02 -0.14457593090E+03 -0.61725251549E+03  0.63665501799E+03  0.00000000000E+00 0.  1.
         21    1    1    2  504  501 -0.20575294462E+02 -0.30947342446E+02  0.28950842614E+03  0.29188389738E+03  0.00000000000E+00 0. -1.
         21    1    1    2  505  503 -0.31897983585E+02 -0.17497309952E+03 -0.10620004790E+04  0.10767906409E+04  0.00000000000E+00 0.  1.
          1    1    1    2  501    0 -0.60651218255E+01  0.35049637287E+03 -0.28708898984E+03  0.45310548571E+03  0.00000000000E+00 0.  1.
<scales pt_clust_3="107.47521" pt_clust_4="37.16289" pt_clust_5="107.47521" pt_clust_6="325.65656"></scales>
<clustering>
<clus scale="   37.163">  1  4  2 -1</clus>
<clus scale="  107.475">  3  5 -1 -1</clus>
<clus scale="  325.657">  1  6  2 -1</clus>
<clus scale="   37.163">  1  3  2 -1</clus>
</clustering>
</event>
<event>
 6    0  0.1631680E+002  0.5954433E+02  0.7546771E-02  0.1399754E+00
         21   -1    0    0  505  502  0.00000000000E+00  0.00000000000E+00  0.14751745287E+03  0.14751745287E+03  0.00000000000E+00 0.  1.
          2   -1    0    0  503    0 -0.00000000000E+00 -0.00000000000E+00 -0.20312170265E+04  0.20312170265E+04  0.00000000000E+00 0. -1.
         21    1    1    2  503  504  0.43521229860E+02  0.22812063291E+02 -0.59588947434E+03  0.59791199462E+03  0.00000000000E+00 0. -1.
         21    1    1    2  504  502 -0.39076973405E+02 -0.22005829988E+02  0.11459806570E+03  0.12306089170E+03  0.00000000000E+00 0.  1.
         21    1    1    2  505  501  0.81410625749E+02 -0.17017436860E+02 -0.39531293060E+02  0.92086949526E+02  0.00000000000E+00 0. -1.
          2    1    1    2  501    0 -0.85854882204E+02  0.16211203557E+02 -0.13628768719E+04  0.13656746435E+04  0.00000000000E+00 0. -1.
<scales pt_clust_3="47.55730" pt_clust_4="44.84714" pt_clust_5="14000.00000" pt_clust_6="59.54433"></scales>
<clustering>
<clus scale="   44.847">  1  4  2 -1</clus>
<clus scale="   47.557">  2  3  1 -1</clus>
<clus scale="   59.544">  2  6  1 -1</clus>
<clus scale="   44.847">  1  3  2 -1</clus>
</clustering>
</event>
<event>
 6    0  0.1631680E+002  0.1015081E+03  0.7546771E-02  0.1277156E+00
         21   -1    0    0  505  502  0.00000000000E+00  0.00000000000E+00  0.56334360284E+02  0.56334360284E+02  0.00000000000E+00 0.  1.
          2   -1    0    0  503    0 -0.00000000000E+00 -0.00000000000E+00 -0.79456399657E+03  0.79456399657E+03  0.00000000000E+00 0. -1.
         21    1    1    2  503  504 -0.53625930752E+02  0.87930830844E+02 -0.14701808952E+03  0.17950456849E+03  0.00000000000E+00 0.  1.
         21    1    1    2  504  502 -0.34120469883E+02  0.21042796188E+01  0.25932389407E+01  0.34283514201E+02  0.00000000000E+00 0.  1.
         21    1    1    2  505  501 -0.47865545336E+01 -0.41687327033E+02 -0.88148700315E+01  0.42877106632E+02  0.00000000000E+00 0.  1.
          2    1    1    2  501    0  0.92532955169E+02 -0.48347783430E+02 -0.58498991568E+03  0.59423316753E+03  0.00000000000E+00 0. -1.
<scales pt_clust_3="101.50814" pt_clust_4="34.18530" pt_clust_5="45.43930" pt_clust_6="14000.00000"></scales>
<clustering>
<clus scale="   34.185">  1  4  2 -1</clus>
<clus scale="   45.439">  1  5  2 -1</clus>
<clus scale="  101.508">  1  3  2 -1</clus>
<clus scale="   34.185">  1  3  2 -1</clus>
</clustering>
</event>
<event>
 6    0  0.1631680E+002  0.1415714E+03  0.7546771E-02  0.1211230E+00
         -4   -1    0    0    0  501 -0.00000000000E+00  0.00000000000E+00  0.38793955301E+03  0.38793955301E+03  0.00000000000E+00 0. -1.
         21   -1    0    0  505  502  0.00000000000E+00 -0.00000000000E+00 -0.23408674172E+03  0.23408674172E+03  0.00000000000E+00 0.  1.
         21    1    1    2  503  502 -0.49596394875E+02 -0.58424040065E+02 -0.12966078645E+03  0.15061570431E+03  0.00000000000E+00 0.  1.
         21    1    1    2  504  503 -0.41945680083E+02 -0.46227938016E+02 -0.56605503302E+02  0.84265327003E+02  0.00000000000E+00 0.  1.
         21    1    1    2  505  501 -0.24025350884E+02  0.48074248040E+02  0.72996612144E+02  0.90646876363E+02  0.00000000000E+00 0. -1.
         -4    1    1    2    0  504  0.11556742584E+03  0.56577730041E+02  0.26712248890E+03  0.29649838706E+03  0.00000000000E+00 0. -1.
<scales pt_clust_3="30.49852" pt_clust_4="30.49852" pt_clust_5="53.74338" pt_clust_6="137.47905"></scales>
<clustering>
<clus scale="   30.499">  3  4 -1 -1</clus>
<clus scale="   53.743">  1  5  2 -1</clus>
<clus scale="  137.479">  1  6  2 -1</clus>
<clus scale="  141.571">  2  3  1 -1</clus>
</clustering>
</event>
<event>
 6    0  0.1631680E+002  0.1188255E+03  0.7546771E-02  0.1245047E+00
         -1   -1    0    0    0  501 -0.00000000000E+00  0.00000000000E+00  0.79723375473E+03  0.79723375473E+03  0.00000000000E+00 0. -1.
         21   -1    0    0  504  502  0.00000000000E+00 -0.00000000000E+00 -0.45662137273E+03  0.45662137273E+03  0.00000000000E+00 0. -1.
         21    1    1    2  503  502  0.42387883496E+02  0.38238508046E+02 -0.36665000896E+03  0.37106757502E+03  0.00000000000E+00 0. -1.
         21    1    1    2  504  505 -0.32746240453E+02  0.82802406987E+02 -0.48708010290E+02  0.10149396599E+03  0.00000000000E+00 0. -1.
         21    1    1    2  505  501  0.13830933131E+02  0.35972371780E+02  0.14990741825E+03  0.15478223506E+03  0.00000000000E+00 0. -1.
         -1    1    1    2    0  503 -0.23472576174E+02 -0.15701328681E+03  0.60606298299E+03  0.62651135139E+03  0.00000000000E+00 0. -1.
<scales pt_clust_3="57.20465" pt_clust_4="14000.00000" pt_clust_5="38.53967" pt_clust_6="118.82554"></scales>
<clustering>
<clus scale="   38.540">  1  5  2 -1</clus>
<clus scale="   57.205">  2  3  1 -1</clus>
<clus scale="  118.826">  1  6  2 -1</clus>
<clus scale="   57.205">  2  3  1 -1</clus>
</clustering>
</event>
<event>
 6    0  0.1631680E+002  0.8798182E+02  0.7546771E-02  0.1307814E+00
         21   -1    0    0  503  502  0.00000000000E+00  0.00000000000E+00  0.50110408761E+02  0.50110408761E+02  0.00000000000E+00 0. -1.
          2   -1    0    0  504    0 -0.00000000000E+00 -0.00000000000E+00 -0.21591011534E+04  0.21591011534E+04  0.00000000000E+00 0. -1.
         21    1    1    2  503  501  0.69470618772E+02 -0.26524277793E+02 -0.38750313093E+00  0.74362990416E+02  0.00000000000E+00 0. -1.
         21    1    1    2  504  505 -0.34136304950E+02 -0.78444735923E+02 -0.12283571308E+04  0.12313326540E+04  0.00000000000E+00 0. -1.
         21    1    1    2  505  502 -0.78586687013E+02  0.22360939407E+02 -0.18759035152E+03  0.20461187398E+03  0.00000000000E+00 0. -1.
          2    1    1    2  501    0  0.43252373191E+02  0.82608074308E+02 -0.69265575919E+03  0.69890404382E+03  0.00000000000E+00 0. -1.
<scales pt_clust_3="74.36198" pt_clust_4="87.98182" pt_clust_5="33.92569" pt_clust_6="14000.00000"></scales>
<clustering>
<clus scale="   74.362">  1  3  2 -1</clus>
<clus scale="   33.926">  1  5  2 -1</clus>
<clus scale="   87.982">  2  4  1 -1</clus>
<clus scale="   74.362">  1  3  2 -1</clus>
</clustering>
</event>
<event>
 6    0  0.4706637E+002  0.9086512E+02  0.7546771E-02  0.1300770E+00
          2   -1    0    0  503    0 -0.00000000000E+00  0.00000000000E+00  0.12335369723E+04  0.12335369723E+04  0.00000000000E+00 0. -1.
         21   -1    0    0  504  502  0.00000000000E+00 -0.00000000000E+00 -0.68343228412E+03  0.68343228412E+03  0.00000000000E+00 0. -1.
         21    1    1    2  503  505  0.23707915486E+02 -0.37800934222E+02  0.59933829957E+02  0.74719742090E+02  0.00000000000E+00 0.  1.
         21    1    1    2  504  501  0.80237114197E+02  0.13834945935E+02 -0.64696574836E+03  0.65206907592E+03  0.00000000000E+00 0. -1.
         21    1    1    2  505  502  0.34866181090E+01 -0.47726926179E+02  0.21854843272E+01  0.47903990753E+02  0.00000000000E+00 0. -1.
          2    1    1    2  501    0 -0.10743164779E+03  0.71692914465E+02  0.11349511223E+04  0.11422764476E+04  0.00000000000E+00 0. -1.
<scales pt_clust_3="44.62035" pt_clust_4="90.86512" pt_clust_5="48.70290" pt_clust_6="14000.00000"></scales>
<clustering>
<clus scale="   44.620">  1  3  2 -1</clus>
<clus scale="   48.703">  2  5  1 -1</clus>
<clus scale="   90.865">  2  4  1 -1</clus>
<clus scale="   48.703">  2  3  1 -1</clus>
</clustering>
</event>
<event>
 6    0  0.1631680E+002  0.1152468E+03  0.7546771E-02  0.1251151E+00
         21   -1    0    0  504  502  0.00000000000E+00  0.00000000000E+00  0.19171690082E+03  0.19171690082E+03  0.00000000000E+00 0. -1.
          2   -1    0    0  505    0 -0.00000000000E+00 -0.00000000000E+00 -0.10421221418E+04  0.10421221418E+04  0.00000000000E+00 0.  1.
         21    1    1    2  503  501 -0.28127774974E+02  0.40771822019E+02 -0.10687975616E+03  0.11779981100E+03  0.00000000000E+00 0. -1.
         21    1    1    2  504  503 -0.26126553284E+01  0.46417821533E+02 -0.50381100085E+02  0.68554324221E+02  0.00000000000E+00 0. -1.
         21    1    1    2  505  502  0.31497468783E+02  0.26967634726E+02  0.17093732282E+03  0.17589460536E+03  0.00000000000E+00 0. -1.
          2    1    1    2  501    0 -0.75703848018E+00 -0.11415727828E+03 -0.86408170757E+03  0.87159030206E+03  0.00000000000E+00 0.  1.
<scales pt_clust_3="36.88965" pt_clust_4="36.88965" pt_clust_5="41.46497" pt_clust_6="108.77475"></scales>
<clustering>
<clus scale="   36.890">  3  4 -1 -1</clus>
<clus scale="   41.465">  1  5  2 -1</clus>
<clus scale="  108.775">  2  6  1 -1</clus>
<clus scale="   41.465">  1  3  2 -1</clus>
</clustering>
</event>
<event>
 6    0  0.1631680E+002  0.6081371E+02  0.7546771E-02  0.1394448E+00
         -2   -1    0    0    0  501 -0.00000000000E+00  0.00000000000E+00  0.21711283695E+04  0.21711283695E+04  0.00000000000E+00 0. -1.
         21   -1    0    0  504  502  0.00000000000E+00 -0.00000000000E+00 -0.24126369553E+03  0.24126369553E+03  0.00000000000E+00 0. -1.
         21    1    1    2  503  505  0.72915268354E+02  0.80277718637E+02  0.54991705249E+02  0.12159455627E+03  0.00000000000E+00 0.  1.
         21    1    1    2  504  501 -0.43220200667E+02  0.11745312728E+02  0.10953051476E+04  0.10962204635E+04  0.00000000000E+00 0. -1.
         21    1    1    2  505  502 -0.45603124903E+02 -0.36842598655E+02 -0.20250808850E+03  0.21082349960E+03  0.00000000000E+00 0. -1.
         -2    1    1    2    0  503  0.15908057215E+02 -0.55180432710E+02  0.98207590961E+03  0.98375354570E+03  0.00000000000E+00 0. -1.
<scales pt_clust_3="14000.00000" pt_clust_4="44.78770" pt_clust_5="60.81371" pt_clust_6="50.32037"></scales>
<clustering>
<clus scale="   44.788">  1  4  2 -1</clus>
<clus scale="   50.320">  1  6  2 -1</clus>
<clus scale="   60.814">  2  5  1 -1</clus>
<clus scale="   60.814">  2  3  1 -1</clus>
</clustering>
</event>
<event>
 6    0  0.1631680E+002  0.1720542E+03  0.7546771E-02  0.1175722E+00
         21   -1    0    0  503  502  0.00000000000E+00  0.00000000000E+00  0.91776358646E+03  0.91776358646E+03  0.00000000000E+00 0.  1.
          2   -1    0    0  504    0 -0.00000000000E+00 -0.00000000000E+00 -0.28287668523E+03  0.28287668523E+03  0.00000000000E+00 0.  1.
         21    1    1    2  503  505 -0.20810958000E+02 -0.27163935302E+02  0.16922179542E+03  0.17264701387E+03  0.00000000000E+00 0. -1.
         21    1    1    2  504  502 -0.64047404596E+02  0.67014170896E+02  0.57794068295E+03  0.58532760242E+03  0.00000000000E+00 0.  1.
         21    1    1    2  505  501 -0.10500959764E+03 -0.17455987563E+02  0.10755674778E+03  0.15132805785E+03  0.00000000000E+00 0.  1.
          2    1    1    2  501    0  0.18986796024E+03 -0.22394248031E+02 -0.21983232492E+03  0.29133759755E+03  0.00000000000E+00 0.  1.
<scales pt_clust_3="34.21952" pt_clust_4="92.43324" pt_clust_5="14000.00000" pt_clust_6="172.05421"></scales>
<clustering>
<clus scale="   34.220">  1  3  2 -1</clus>
<clus scale="   92.433">  1  4  2 -1</clus>
<clus scale="  172.054">  2  6  1 -1</clus>
<clus scale="   34.220">  1  3  2 -1</clus>
</clustering>
</event>
<event>
 6    0  0.1631680E+002  0.8591126E+02  0.7546771E-02  0.1313067E+00
         21   -1    0    0  504  502  0.00000000000E+00  0.00000000000E+00  0.52719409030E+03  0.52719409030E+03  0.00000000000E+00 0. -1.
          1   -1    0    0  505    0 -0.00000000000E+00 -0.00000000000E+00 -0.88319482598E+02  0.88319482598E+02  0.00000000000E+00 0.  1.
         21    1    1    2  503  501  0.90396843239E+02  0.11504218240E+02  0.14311035015E+02  0.92242842693E+02  0.00000000000E+00 0.  1.
         21    1    1    2  504  503 -0.24643933194E+02 -0.31153541517E+02  0.12466686163E+03  0.13084224463E+03  0.00000000000E+00 0. -1.
         21    1    1    2  505  502  0.10427836533E+02 -0.33399854800E+02  0.29751582018E+03  0.29956627536E+03  0.00000000000E+00 0. -1.
          1    1    1    2  501    0 -0.76180746577E+02  0.53049178077E+02  0.23808908741E+01  0.92862210209E+02  0.00000000000E+00 0.  1.
<scales pt_clust_3="85.91126" pt_clust_4="53.25064" pt_clust_5="34.98986" pt_clust_6="14000.00000"></scales>
<clustering>
<clus scale="   34.990">  1  5  2 -1</clus>
<clus scale="   53.251">  1  4  2 -1</clus>
<clus scale="   85.911">  1  3  2 -1</clus>
<clus scale="   34.990">  1  3  2 -1</clus>
</clustering>
</event>
<event>
 6    0  0.1631680E+002  0.1235623E+03  0.7546771E-02  0.1237333E+00
          1   -1    0    0  503    0 -0.00000000000E+00  0.00000000000E+00  0.19619415795E+04  0.19619415795E+04  0.00000000000E+00 0.  1.
         21   -1    0    0  505  502  0.00000000000E+00 -0.00000000000E+00 -0.50144822073E+02  0.50144822073E+02  0.00000000000E+00 0.  1.
         21    1    1    2  503  504 -0.20506472837E+02  0.86545539187E+02  0.33929802069E+03  0.35076173199E+03  0.00000000000E+00 0.  1.
         21    1    1    2  504  502  0.73859414780E+02  0.96588333694E+02  0.87859993237E+02  0.15001299200E+03  0.00000000000E+00 0.  1.
         21    1    1    2  505  501 -0.56046436289E+02 -0.34418940390E+02  0.10651896643E+03  0.12518848464E+03  0.00000000000E+00 0. -1.
          1    1    1    2  501    0  0.26934943452E+01 -0.14871493249E+03  0.13781197771E+04  0.13861231929E+04  0.00000000000E+00 0.  1.
<scales pt_clust_3="123.56225" pt_clust_4="76.97647" pt_clust_5="65.77132" pt_clust_6="14000.00000"></scales>
<clustering>
<clus scale="   65.771">  2  5  1 -1</clus>
<clus scale="   76.976">  2  4  1 -1</clus>
<clus scale="  123.562">  2  3  1 -1</clus>
<clus scale="   65.771">  2  3  1 -1</clus>
</clustering>
</event>
<event>
 6    0  0.1631680E+002  0.9527595E+02  0.7546771E-02  0.1290556E+00
          1   -1    0    0  504    0 -0.00000000000E+00  0.00000000000E+00  0.19355942902E+04  0.19355942902E+04  0.00000000000E+00 0.  1.
         21   -1    0    0  505  502  0.00000000000E+00 -0.00000000000E+00 -0.17026475910E+03  0.17026475910E+03  0.00000000000E+00 0. -1.
         21    1    1    2  503  502 -0.13195297079E+03 -0.92992384304E+01 -0.74591666980E+02  0.15186171051E+03  0.00000000000E+00 0. -1.
         21    1    1    2  504  503  0.35351140021E+02  0.30657586444E+02  0.31535411258E+03  0.31880684909E+03  0.00000000000E+00 0. -1.
         21    1    1    2  505  501  0.50235154214E+02 -0.41606600824E+02 -0.35527484599E+02  0.74275716846E+02  0.00000000000E+00 0. -1.
          1    1    1    2  501    0  0.46366676556E+02  0.20248252811E+02  0.15600945701E+04  0.15609147729E+04  0.00000000000E+00 0.  1.
<scales pt_clust_3="14000.00000" pt_clust_4="46.79306" pt_clust_5="65.32206" pt_clust_6="95.27595"></scales>
<clustering>
<clus scale="   46.793">  1  4  2 -1</clus>
<clus scale="   65.322">  2  5  1 -1</clus>
<clus scale="   95.276">  1  6  2 -1</clus>
<clus scale="   65.322">  2  3  1 -1</clus>
</clustering>
</event>
<event>
 6    0  0.1631680E+002  0.6329184E+02  0.7546771E-02  0.1384515E+00
         21   -1    0    0  505  502  0.00000000000E+00  0.00000000000E+00  0.23991675311E+03  0.23991675311E+03  0.00000000000E+00 0.  1.
         -2   -1    0    0    0  501 -0.00000000000E+00 -0.00000000000E+00 -0.77147561576E+03  0.77147561576E+03  0.00000000000E+00 0. -1.
         21    1    1    2  503  501 -0.22834433525E+02 -0.62021786889E+02 -0.65714358242E+02  0.93201342708E+02  0.00000000000E+00 0.  1.
         21    1    1    2  504  502  0.41406269058E+02 -0.57273926930E+02  0.74085398310E+02  0.10238861297E+03  0.00000000000E+00 0.  1.
         21    1    1    2  505  503 -0.14300377807E+02  0.55887388688E+02  0.13033514234E+03  0.14253122587E+03  0.00000000000E+00 0.  1.
         -2    1    1    2    0  504 -0.42714577262E+01  0.63408325131E+02 -0.67026504506E+03  0.67327118732E+03  0.00000000000E+00 0. -1.
<scales pt_clust_3="63.29184" pt_clust_4="30.75621" pt_clust_5="57.68796" pt_clust_6="14000.00000"></scales>
<clustering>
<clus scale="   57.688">  1  5  2 -1</clus>
<clus scale="   30.756">  1  4  2 -1</clus>
<clus scale="   63.292">  1  3  2 -1</clus>
<clus scale="   57.688">  1  3  2 -1</clus>
</clustering>
</event>
<event>
 6    0  0.1631680E+002  0.6510545E+02  0.7546771E-02  0.1377575E+00
         21   -1    0    0  503  502  0.00000000000E+00  0.00000000000E+00  0.16112986170E+03  0.16112986170E+03  0.00000000000E+00 0. -1.
          2   -1    0    0  504    0 -0.00000000000E+00 -0.00000000000E+00 -0.10674733272E+04  0.10674733272E+04  0.00000000000E+00 0. -1.
         21    1    1    2  503  505 -0.54334917015E+02  0.29008669845E+00  0.10635475339E+03  0.11943073694E+03  0.00000000000E+00 0. -1.
         21    1    1    2  504  502  0.53191807668E+02 -0.32786672452E+02  0.11039615536E+02  0.63452402671E+02  0.00000000000E+00 0.  1.
         21    1    1    2  505  501 -0.41283261149E+02  0.78513998320E+02 -0.19056344328E+03  0.21019795788E+03  0.00000000000E+00 0.  1.
          2    1    1    2  501    0  0.42426370495E+02 -0.46017412566E+02 -0.83317439114E+03  0.83552209140E+03  0.00000000000E+00 0. -1.
<scales pt_clust_3="54.33569" pt_clust_4="34.44718" pt_clust_5="14000.00000" pt_clust_6="65.10545"></scales>
<clustering>
<clus scale="   54.336">  1  3  2 -1</clus>
<clus scale="   34.447">  1  4  2 -1</clus>
<clus scale="   65.105">  2  6  1 -1</clus>
<clus scale="   54.336">  1  3  2 -1</clus>
</clustering>
</event>
<event>
 6    0  0.1631680E+002  0.1181345E+03  0.7546771E-02  0.1246207E+00
         21   -1    0    0  503  502  0.00000000000E+00  0.00000000000E+00  0.12964141533E+04  0.12964141533E+04  0.00000000000E+00 0.  1.
          1   -1    0    0  504    0 -0.00000000000E+00 -0.00000000000E+00 -0.56864794930E+03  0.56864794930E+03  0.00000000000E+00 0. -1.
         21    1    1    2  503  501  0.33445106503E+02 -0.69999318281E+02  0.30964868043E+03  0.31921902356E+03  0.00000000000E+00 0.  1.
         21    1    1    2  504  505  0.74686622936E+01  0.55139385800E+02 -0.64293191178E+02  0.85027920207E+02  0.00000000000E+00 0. -1.
         21    1    1    2  505  502  0.65137406895E+01 -0.44432782505E+02  0.96814319314E+03  0.96918416382E+03  0.00000000000E+00 0.  1.
          1    1    1    2  501    0 -0.47427509486E+02  0.59292714987E+02 -0.48573247838E+03  0.49163099502E+03  0.00000000000E+00 0. -1.
<scales pt_clust_3="118.13455" pt_clust_4="54.27921" pt_clust_5="44.90769" pt_clust_6="14000.00000"></scales>
<clustering>
<clus scale="   44.908">  1  5  2 -1</clus>
<clus scale="   54.279">  2  4  1 -1</clus>
<clus scale="  118.135">  1  3  2 -1</clus>
<clus scale="   44.908">  1  3  2 -1</clus>
</clustering>
</event>
<event>
 6    0  0.1631680E+002  0.3510465E+03  0.7546771E-02  0.1062186E+00
          2   -1    0    0  504    0 -0.00000000000E+00  0.00000000000E+00  0.10347631482E+04  0.10347631482E+04  0.00000000000E+00 0. -1.
         21   -1    0    0  503  502  0.00000000000E+00 -0.00000000000E+00 -0.18654253709E+03  0.18654253709E+03  0.00000000000E+00 0. -1.
         21    1    1    2  503  501 -0.49061082495E+02  0.16553505103E+02 -0.20463017451E+02  0.55675339514E+02  0.00000000000E+00 0. -1.
         21    1    1    2  504  505  0.75349235519E+01  0.50374264936E+02  0.14698030351E+03  0.15555562111E+03  0.00000000000E+00 0.  1.
         21    1    1    2  505  502  0.36108326639E+03 -0.12352049785E+03  0.40935500169E+03  0.55965163814E+03  0.00000000000E+00 0. -1.
          2    1    1    2  501    0 -0.31955710745E+03  0.56592727810E+02  0.31234832331E+03  0.45042308648E+03  0.00000000000E+00 0. -1.
<scales pt_clust_3="51.96672" pt_clust_4="50.93468" pt_clust_5="351.04655" pt_clust_6="14000.00000"></scales>
<clustering>
<clus scale="   50.935">  1  4  2 -1</clus>
<clus scale="   51.967">  2  3  1 -1</clus>
<clus scale="  351.047">  2  5  1 -1</clus>
<clus scale="   51.967">  2  3  1 -1</clus>
</clustering>
</event>
<event>
 6    0  0.1631680E+002  0.1674856E+03  0.7546771E-02  0.1180496E+00
          2   -1    0    0  504    0 -0.00000000000E+00  0.00000000000E+00  0.34238839300E+04  0.34238839300E+04  0.00000000000E+00 0.  1.
         21   -1    0    0  503  502  0.00000000000E+00 -0.00000000000E+00 -0.23862136879E+02  0.23862136879E+02  0.00000000000E+00 0.  1.
         21    1    1    2  503  501 -0.11076874017E+03  0.54197711789E+02  0.52402755546E+03  0.53834188453E+03  0.00000000000E+00 0.  1.
         21    1    1    2  504  505 -0.87068662055E+02  0.66208686220E+01  0.12239800442E+04  0.12270908428E+04  0.00000000000E+00 0. -1.
         21    1    1    2  505  502 -0.36488673782E+02  0.10749047107E+02  0.56596668281E+02  0.68191995048E+02  0.00000000000E+00 0.  1.
          2    1    1    2  501    0  0.23432607601E+03 -0.71567627518E+02  0.15954175252E+04  0.16141213445E+04  0.00000000000E+00 0.  1.
<scales pt_clust_3="167.48562" pt_clust_4="90.52552" pt_clust_5="38.03900" pt_clust_6="14000.00000"></scales>
<clustering>
<clus scale="   38.039">  2  5  1 -1</clus>
<clus scale="   90.526">  1  4  2 -1</clus>
<clus scale="  167.486">  2  3  1 -1</clus>
<clus scale="   38.039">  2  3  1 -1</clus>
</clustering>
</event>
<event>
 6    0  0.1631680E+002  0.1194472E+03  0.7546771E-02  0.1244012E+00
         21   -1    0    0  501  502  0.00000000000E+00  0.00000000000E+00  0.88540972912E+03  0.88540972912E+03  0.00000000000E+00 0. -1.
          1   -1    0    0  504    0 -0.00000000000E+00 -0.00000000000E+00 -0.84283106148E+03  0.84283106148E+03  0.00000000000E+00 0.  1.
         21    1    1    2  503  505 -0.68803794694E+02  0.13538102700E+03  0.30967864675E+03  0.34490991417E+03  0.00000000000E+00 0. -1.
         21    1    1    2  504  503 -0.34687258385E+02 -0.37132279763E+01 -0.48031914270E+03  0.48158433612E+03  0.00000000000E+00 0.  1.
         21    1    1    2  505  502  0.52733352495E+02 -0.17987264709E+02  0.54475964518E+03  0.54760151495E+03  0.00000000000E+00 0. -1.
          1    1    1    2  501    0  0.50757700584E+02 -0.11368053432E+03 -0.33154048159E+03  0.35414502536E+03  0.00000000000E+00 0.  1.
<scales pt_clust_3="119.44720" pt_clust_4="34.88544" pt_clust_5="55.59251" pt_clust_6="14000.00000"></scales>
<clustering>
<clus scale="   34.885">  2  4  1 -1</clus>
<clus scale="   55.593">  1  5  2 -1</clus>
<clus scale="  119.447">  1  3  2 -1</clus>
<clus scale="   55.593">  1  3  2 -1</clus>
</clustering>
</event>
<event>
 6    0  0.1631680E+002  0.1710649E+03  0.7546771E-02  0.1176742E+00
          2   -1    0    0  503    0 -0.00000000000E+00  0.00000000000E+00  0.65790534306E+03  0.65790534306E+03  0.00000000000E+00 0.  1.
         21   -1    0    0  505  502  0.00000000000E+00 -0.00000000000E+00 -0.40653020167E+03  0.40653020167E+03  0.00000000000E+00 0.  1.
         21    1    1    2  503  504 -0.11888588563E+03  0.12302882382E+02  0.50119415554E+03  0.51524828604E+03  0.00000000000E+00 0.  1.
         21    1    1    2  504  502  0.14619104195E+03 -0.88295223778E+02 -0.18707588518E+03  0.25330861435E+03  0.00000000000E+00 0.  1.
         21    1    1    2  505  501 -0.65828739239E+01 -0.72682200509E+02 -0.11562011445E+03  0.13672617659E+03  0.00000000000E+00 0. -1.
          2    1    1    2  501    0 -0.20722282394E+02  0.14867454191E+03  0.52876985472E+02  0.15915246775E+03  0.00000000000E+00 0.  1.
<scales pt_clust_3="119.51137" pt_clust_4="14000.00000" pt_clust_5="72.97970" pt_clust_6="171.06494"></scales>
<clustering>
<clus scale="   72.980">  2  5  1 -1</clus>
<clus scale="  119.511">  1  3  2 -1</clus>
<clus scale="  171.065">  1  6  2 -1</clus>
<clus scale="   72.980">  2  3  1 -1</clus>
</clustering>
</event>
<event>
 6    0  0.1631680E+002  0.1242776E+03  0.7546771E-02  0.1236203E+00
         -1   -1    0    0    0  501 -0.00000000000E+00  0.00000000000E+00  0.65795838001E+03  0.65795838001E+03  0.00000000000E+00 0. -1.
         21   -1    0    0  504  502  0.00000000000E+00 -0.00000000000E+00 -0.44618362719E+03  0.44618362719E+03  0.00000000000E+00 0. -1.
         21    1    1    2  503  505 -0.11159989553E+03  0.76568706246E+02 -0.28224996560E+03  0.31302131963E+03  0.00000000000E+00 0. -1.
         21    1    1    2  504  501 -0.13804093630E+02  0.33757828811E+02  0.17691424099E+02  0.40535546050E+02  0.00000000000E+00 0.  1.
         21    1    1    2  505  502 -0.11134679447E+02 -0.60846458538E+02 -0.12097668551E+03  0.13587358477E+03  0.00000000000E+00 0. -1.
         -1    1    1    2    0  503  0.13653866861E+03 -0.49480076519E+02  0.59730997982E+03  0.61471155674E+03  0.00000000000E+00 0. -1.
<scales pt_clust_3="124.27765" pt_clust_4="36.47114" pt_clust_5="61.49343" pt_clust_6="14000.00000"></scales>
<clustering>
<clus scale="   36.471">  1  4  2 -1</clus>
<clus scale="   61.493">  2  5  1 -1</clus>
<clus scale="  124.278">  2  3  1 -1</clus>
<clus scale="   61.493">  2  3  1 -1</clus>
</clustering>
</event>
<event>
 6    0  0.1631680E+002  0.2267705E+03  0.7546771E-02  0.1128934E+00
         21   -1    0    0  505  502  0.00000000000E+00  0.00000000000E+00  0.58408554387E+03  0.58408554387E+03  0.00000000000E+00 0.  1.
          1   -1    0    0  503    0 -0.00000000000E+00 -0.00000000000E+00 -0.55438949586E+03  0.55438949586E+03  0.00000000000E+00 0.  1.
         21    1    1    2  503  504 -0.17840482758E+02  0.29647059554E+02 -0.32413785579E+03  0.32597941733E+03  0.00000000000E+00 0.  1.
         21    1    1    2  504  502 -0.10132973214E+02 -0.28856800203E+02  0.26827402193E+03  0.27001174587E+03  0.00000000000E+00 0.  1.
         21    1    1    2  505  501 -0.98581870334E+02  0.21166119455E+03  0.16137694989E+03  0.28383334263E+03  0.00000000000E+00 0.  1.
          1    1    1    2  501    0  0.12655532631E+03 -0.21245145390E+03 -0.75817068014E+02  0.25865053389E+03  0.00000000000E+00 0.  1.
<scales pt_clust_3="34.54408" pt_clust_4="30.58418" pt_clust_5="14000.00000" pt_clust_6="226.77050"></scales>
<clustering>
<clus scale="   30.584">  1  4  2 -1</clus>
<clus scale="   34.544">  2  3  1 -1</clus>
<clus scale="  226.771">  2  6  1 -1</clus>
<clus scale="   30.584">  1  3  2 -1</clus>
</clustering>
</event>
<event>
 6    0  0.1631680E+002  0.8616433E+02  0.7546771E-02  0.1312415E+00
          2   -1    0    0  505    0 -0.00000000000E+00  0.00000000000E+00  0.76057466209E+03  0.76057466209E+03  0.00000000000E+00 0. -1.
         21   -1    0    0  501  502  0.00000000000E+00 -0.00000000000E+00 -0.94133019163E+03  0.94133019163E+03  0.00000000000E+00 0.  1.
         21    1    1    2  503  504 -0.96922616942E+02  0.49630282958E+02  0.53728534636E+03  0.54820863006E+03  0.00000000000E+00 0. -1.
         21    1    1    2  504  502 -0.18805682387E+01 -0.33603210825E+02 -0.92054003590E+03  0.92115507381E+03  0.00000000000E+00 0.  1.
         21    1    1    2  505  503  0.16965098155E+02 -0.26770989669E+02  0.52174927832E+02  0.61046896215E+02  0.00000000000E+00 0. -1.
          2    1    1    2  501    0  0.81838087025E+02  0.10743917535E+02  0.15032423217E+03  0.17149425364E+03  0.00000000000E+00 0. -1.
<scales pt_clust_3="14000.00000" pt_clust_4="33.66705" pt_clust_5="31.69385" pt_clust_6="86.16433"></scales>
<clustering>
<clus scale="   31.694">  1  5  2 -1</clus>
<clus scale="   33.667">  2  4  1 -1</clus>
<clus scale="   86.164">  2  6  1 -1</clus>
<clus scale="   33.667">  2  3  1 -1</clus>
</clustering>
</event>
<event>
 6    0  0.1631680E+002  0.8529866E+02  0.7546771E-02  0.1314653E+00
          2   -1    0    0  504    0 -0.00000000000E+00  0.00000000000E+00  0.63652306785E+03  0.63652306785E+03  0.00000000000E+00 0. -1.
         21   -1    0    0  503  502  0.00000000000E+00 -0.00000000000E+00 -0.16312603023E+04  0.16312603023E+04  0.00000000000E+00 0. -1.
         21    1    1    2  503  501 -0.98395652742E+02 -0.55741956600E+02 -0.22425157935E+02  0.11528988643E+03  0.00000000000E+00 0. -1.
         21    1    1    2  504  505 -0.16771701586E+02  0.41647275121E+02  0.47347039027E+02  0.65249732595E+02  0.00000000000E+00 0. -1.
         21    1    1    2  505  502  0.30611051605E+02  0.21071877349E+02 -0.15498559137E+04  0.15503013945E+04  0.00000000000E+00 0. -1.
          2    1    1    2  501    0  0.84556302723E+02 -0.69771958695E+01  0.53019679815E+03  0.53694235665E+03  0.00000000000E+00 0. -1.
<scales pt_clust_3="85.29866" pt_clust_4="45.96617" pt_clust_5="37.16262" pt_clust_6="14000.00000"></scales>
<clustering>
<clus scale="   37.163">  2  5  1 -1</clus>
<clus scale="   45.966">  2  4  1 -1</clus>
<clus scale="   85.299">  2  3  1 -1</clus>
<clus scale="   37.163">  2  3  1 -1</clus>
</clustering>
</event>
<event>
 6    0  0.1631680E+002  0.9977085E+02  0.7546771E-02  0.1280779E+00
         21   -1    0    0  505  502  0.00000000000E+00  0.00000000000E+00  0.35532069616E+03  0.35532069616E+03  0.00000000000E+00 0.  1.
          1   -1    0    0  504    0 -0.00000000000E+00 -0.00000000000E+00 -0.14589109912E+03  0.14589109912E+03  0.00000000000E+00 0. -1.
         21    1    1    2  503  502 -0.38063825279E+02 -0.34990327505E+02  0.16060834315E+03  0.16872527286E+03  0.00000000000E+00 0.  1.
         21    1    1    2  504  503 -0.46586505127E+02 -0.51896177776E+02  0.64395943137E+02  0.94922880383E+02  0.00000000000E+00 0.  1.
         21    1    1    2  505  501  0.29625793142E+02 -0.74481747743E+01  0.84242628623E+02  0.89610174668E+02  0.00000000000E+00 0.  1.
          1    1    1    2  501    0  0.55024537264E+02  0.94334680055E+02 -0.99817317865E+02  0.14795346737E+03  0.00000000000E+00 0. -1.
<scales pt_clust_3="44.27764" pt_clust_4="14000.00000" pt_clust_5="30.54772" pt_clust_6="99.77085"></scales>
<clustering>
<clus scale="   30.548">  1  5  2 -1</clus>
<clus scale="   44.278">  1  3  2 -1</clus>
<clus scale="   99.771">  2  6  1 -1</clus>
<clus scale="   30.548">  1  3  2 -1</clus>
</clustering>
</event>
<event>
 6    0  0.1631680E+002  0.9642046E+02  0.7546771E-02  0.1288009E+00
         21   -1    0    0  503  502  0.00000000000E+00  0.00000000000E+00  0.12651134196E+04  0.12651134196E+04  0.00000000000E+00 0.  1.
          2   -1    0    0  505    0 -0.00000000000E+00 -0.00000000000E+00 -0.34024526764E+03  0.34024526764E+03  0.00000000000E+00 0. -1.
         21    1    1    2  503  501  0.67178257583E+02 -0.33839445016E+01  0.10985429618E+04  0.11006002945E+04  0.00000000000E+00 0.  1.
         21    1    1    2  504  502  0.30915689553E+02 -0.35561876074E+01  0.10508356563E+03  0.10959462622E+03  0.00000000000E+00 0. -1.
         21    1    1    2  505  504 -0.21237960516E+02  0.75141403892E+02  0.18839896903E+02  0.80325732247E+02  0.00000000000E+00 0.  1.
          2    1    1    2  501    0 -0.76855986620E+02 -0.68201271783E+02 -0.29759827232E+03  0.31483803430E+03  0.00000000000E+00 0. -1.
<scales pt_clust_3="14000.00000" pt_clust_4="31.11955" pt_clust_5="77.58822" pt_clust_6="96.42046"></scales>
<clustering>
<clus scale="   31.120">  1  4  2 -1</clus>
<clus scale="   77.588">  2  5  1 -1</clus>
<clus scale="   96.420">  2  6  1 -1</clus>
<clus scale="   31.120">  1  3  2 -1</clus>
</clustering>
</event>
<event>
 6    0  0.1631680E+002  0.2117007E+03  0.7546771E-02  0.1140226E+00
         21   -1    0    0  505  502  0.00000000000E+00  0.00000000000E+00  0.47668016307E+03  0.47668016307E+03  0.00000000000E+00 0.  1.
          1   -1    0    0  504    0 -0.00000000000E+00 -0.00000000000E+00 -0.79372638289E+03  0.79372638289E+03  0.00000000000E+00 0. -1.
         21    1    1    2  503  502  0.22069924067E+03  0.59451406354E+02 -0.35185687482E+03  0.41957822263E+03  0.00000000000E+00 0. -1.
         21    1    1    2  504  503 -0.42941003633E+01  0.46355261964E+02 -0.23898129054E+03  0.24347342122E+03  0.00000000000E+00 0. -1.
         21    1    1    2  505  501 -0.15495972957E+03 -0.14505416961E+03  0.40499962926E+03  0.45725040143E+03  0.00000000000E+00 0.  1.
          1    1    1    2  501    0 -0.61445410731E+02  0.39247501290E+02 -0.13120768371E+03  0.15010450067E+03  0.00000000000E+00 0. -1.
<scales pt_clust_3="211.70068" pt_clust_4="46.55373" pt_clust_5="14000.00000" pt_clust_6="80.72823"></scales>
<clustering>
<clus scale="   46.554">  2  4  1 -1</clus>
<clus scale="   80.728">  2  6  1 -1</clus>
<clus scale="  211.701">  2  3  1 -1</clus>
<clus scale="  211.701">  1  3  2 -1</clus>
</clustering>
</event>
<event>
 6    0  0.1631680E+002  0.7812562E+02  0.7546771E-02  0.1334456E+00
         21   -1    0    0  501  502  0.00000000000E+00  0.00000000000E+00  0.14698001993E+03  0.14698001993E+03  0.00000000000E+00 0. -1.
          2   -1    0    0  503    0 -0.00000000000E+00 -0.00000000000E+00 -0.24194947445E+04  0.24194947445E+04  0.00000000000E+00 0. -1.
         21    1    1    2  503  505 -0.27259383212E+02  0.32713366968E+02 -0.19205650222E+04  0.19210370228E+04  0.00000000000E+00 0. -1.
         21    1    1    2  504  502  0.33484672341E+02 -0.70741574386E+02  0.11906049010E+03  0.14248155646E+03  0.00000000000E+00 0. -1.
         21    1    1    2  505  504  0.69758931358E+02 -0.69665152951E+01 -0.10365885648E+03  0.12513991916E+03  0.00000000000E+00 0. -1.
          2    1    1    2  501    0 -0.75984220487E+02  0.44994722713E+02 -0.36735133604E+03  0.37781626610E+03  0.00000000000E+00 0. -1.
<scales pt_clust_3="42.58214" pt_clust_4="14000.00000" pt_clust_5="63.50796" pt_clust_6="78.12562"></scales>
<clustering>
<clus scale="   42.582">  2  3  1 -1</clus>
<clus scale="   63.508">  2  5  1 -1</clus>
<clus scale="   78.126">  2  6  1 -1</clus>
<clus scale="   78.126">  1  3  2 -1</clus>
</clustering>
</event>
<event>
 6    0  0.1631680E+002  0.6325234E+02  0.7546771E-02  0.1384669E+00
         21   -1    0    0  503  502  0.00000000000E+00  0.00000000000E+00  0.43428763686E+03  0.43428763686E+03  0.00000000000E+00 0. -1.
          2   -1    0    0  504    0 -0.00000000000E+00 -0.00000000000E+00 -0.12905688256E+04  0.12905688256E+04  0.00000000000E+00 0.  1.
         21    1    1    2  503  505  0.23876221912E+02 -0.39357138488E+02  0.28818479039E+03  0.29183819445E+03  0.00000000000E+00 0. -1.
         21    1    1    2  504  502  0.43464282784E+02  0.18687869092E+02 -0.72272628421E+02  0.86381208304E+02  0.00000000000E+00 0.  1.
         21    1    1    2  505  501 -0.62564256473E+02  0.86377594311E+02  0.11544566626E+03  0.15717212490E+03  0.00000000000E+00 0. -1.
          2    1    1    2  501    0 -0.47762482237E+01 -0.65708324914E+02 -0.11876390170E+04  0.11894649348E+04  0.00000000000E+00 0.  1.
<scales pt_clust_3="46.03323" pt_clust_4="47.67603" pt_clust_5="63.25234" pt_clust_6="14000.00000"></scales>
<clustering>
<clus scale="   46.033">  1  3  2 -1</clus>
<clus scale="   47.676">  2  4  1 -1</clus>
<clus scale="   63.252">  1  5  2 -1</clus>
<clus scale="   46.033">  1  3  2 -1</clus>
</clustering>
</event>
<event>
 6    0  0.1631680E+002  0.1017773E+03  0.7546771E-02  0.1276602E+00
         21   -1    0    0  503  502  0.00000000000E+00  0.00000000000E+00  0.18850362609E+03  0.18850362609E+03  0.00000000000E+00 0. -1.
          1   -1    0    0  504    0 -0.00000000000E+00 -0.00000000000E+00 -0.33545231004E+03  0.33545231004E+03  0.00000000000E+00 0. -1.
         21    1    1    2  503  505  0.38698407008E+02  0.16310871929E+02  0.90947531932E+02  0.10017517064E+03  0.00000000000E+00 0. -1.
         21    1    1    2  504  502 -0.47065553672E+02  0.59701511344E+00 -0.34743492953E+02  0.58503274028E+02  0.00000000000E+00 0.  1.
         21    1    1    2  505  501  0.54804879263E+02  0.75285472156E+02  0.39826101197E+02  0.10127978794E+03  0.00000000000E+00 0. -1.
          1    1    1    2  501    0 -0.46437732599E+02 -0.92193359198E+02 -0.24297882413E+03  0.26399770352E+03  0.00000000000E+00 0. -1.
<scales pt_clust_3="41.99537" pt_clust_4="42.20442" pt_clust_5="14000.00000" pt_clust_6="101.77733"></scales>
<clustering>
<clus scale="   41.995">  1  3  2 -1</clus>
<clus scale="   42.204">  1  4  2 -1</clus>
<clus scale="  101.777">  2  6  1 -1</clus>
<clus scale="   41.995">  1  3  2 -1</clus>
</clustering>
</event>
<event>
 6    0  0.1631680E+002  0.9541702E+02  0.7546771E-02  0.1290240E+00
         -1   -1    0    0    0  501 -0.00000000000E+00  0.00000000000E+00  0.71885588211E+03  0.71885588211E+03  0.00000000000E+00 0. -1.
         21   -1    0    0  505  502  0.00000000000E+00 -0.00000000000E+00 -0.87416807794E+02  0.87416807794E+02  0.00000000000E+00 0. -1.
         21    1    1    2  503  501 -0.20460605990E+02 -0.81954127020E+02  0.15618767610E+03  0.17756605954E+03  0.00000000000E+00 0. -1.
         21    1    1    2  504  503  0.91447992321E+01 -0.45810361769E+02  0.24115769518E+02  0.52571731357E+02  0.00000000000E+00 0. -1.
         21    1    1    2  505  504  0.31531517334E+02  0.26007714674E+02 -0.49881767027E+02  0.64488979599E+02  0.00000000000E+00 0. -1.
         -1    1    1    2    0  502 -0.20215710576E+02  0.10175677412E+03  0.50101739573E+03  0.51164591941E+03  0.00000000000E+00 0. -1.
<scales pt_clust_3="14000.00000" pt_clust_4="41.25800" pt_clust_5="40.87344" pt_clust_6="95.41702"></scales>
<clustering>
<clus scale="   40.873">  2  5  1 -1</clus>
<clus scale="   41.258">  2  4  1 -1</clus>
<clus scale="   95.417">  1  6  2 -1</clus>
<clus scale="   40.873">  2  3  1 -1</clus>
</clustering>
</event>
<event>
 6    0  0.1631680E+002  0.8234646E+02  0.7546771E-02  0.1322521E+00
         21   -1    0    0  501  502  0.00000000000E+00  0.00000000000E+00  0.11562168458E+03  0.11562168458E+03  0.00000000000E+00 0.  1.
          1   -1    0    0  504    0 -0.00000000000E+00 -0.00000000000E+00 -0.25541037318E+04  0.25541037318E+04  0.00000000000E+00 0. -1.
         21    1    1    2  503  505 -0.77374403206E+02 -0.53258179923E+02 -0.93801187549E+03  0.94270329932E+03  0.00000000000E+00 0. -1.
         21    1    1    2  504  503 -0.13427988525E+02  0.41339511868E+02 -0.25140137036E+03  0.25513117241E+03  0.00000000000E+00 0.  1.
         21    1    1    2  505  502  0.16267161706E+01  0.53319136932E+02  0.10313702615E+03  0.11611555767E+03  0.00000000000E+00 0.  1.
          1    1    1    2  501    0  0.89175675561E+02 -0.41400468876E+02 -0.13522058275E+04  0.13557753870E+04  0.00000000000E+00 0. -1.
<scales pt_clust_3="14000.00000" pt_clust_4="43.46569" pt_clust_5="53.45935" pt_clust_6="82.34646"></scales>
<clustering>
<clus scale="   43.466">  2  4  1 -1</clus>
<clus scale="   53.459">  1  5  2 -1</clus>
<clus scale="   82.346">  2  6  1 -1</clus>
<clus scale="   53.459">  1  3  2 -1</clus>
</clustering>
</event>
<event>
 6    0  0.1631680E+002  0.1031108E+03  0.7546771E-02  0.1273887E+00
         21   -1    0    0  504  502  0.00000000000E+00  0.00000000000E+00  0.41244842297E+03  0.41244842297E+03  0.00000000000E+00 0. -1.
          2   -1    0    0  505    0 -0.00000000000E+00 -0.00000000000E+00 -0.17468113716E+04  0.17468113716E+04  0.00000000000E+00 0.  1.
         21    1    1    2  503  502 -0.11028833010E+02 -0.42036556391E+02  0.91631923091E+02  0.10141556370E+03  0.00000000000E+00 0. -1.
         21    1    1    2  504  501 -0.85248382472E+02  0.44227037829E+01  0.29938320564E+03  0.31131519533E+03  0.00000000000E+00 0. -1.
         21    1    1    2  505  503 -0.64376684531E+02 -0.72863511115E+01 -0.16506027825E+03  0.17731989138E+03  0.00000000000E+00 0. -1.
          2    1    1    2  501    0  0.16065390001E+03  0.44900203720E+02 -0.15603177991E+04  0.15692091442E+04  0.00000000000E+00 0.  1.
<scales pt_clust_3="43.45926" pt_clust_4="14000.00000" pt_clust_5="65.09683" pt_clust_6="103.11076"></scales>
<clustering>
<clus scale="   43.459">  1  3  2 -1</clus>
<clus scale="   65.097">  2  5  1 -1</clus>
<clus scale="  103.111">  2  6  1 -1</clus>
<clus scale="   43.459">  1  3  2 -1</clus>
</clustering>
</event>
<event>
 6    0  0.1631680E+002  0.8928662E+02  0.7546771E-02  0.1304589E+00
         -1   -1    0    0    0  501 -0.00000000000E+00  0.00000000000E+00  0.25953056844E+02  0.25953056844E+02  0.00000000000E+00 0. -1.
         21   -1    0    0  505  502  0.00000000000E+00 -0.00000000000E+00 -0.12134489991E+04  0.12134489991E+04  0.00000000000E+00 0. -1.
         21    1    1    2  503  502 -0.38923957407E+02  0.49761005826E+02 -0.21958498502E+03  0.22849244585E+03  0.00000000000E+00 0. -1.
         21    1    1    2  504  501  0.31451913198E+02  0.10987998981E+02 -0.10411448437E+03  0.10931507133E+03  0.00000000000E+00 0.  1.
         21    1    1    2  505  504  0.48025194302E+02  0.44894753917E+02 -0.69665144624E+03  0.69974652251E+03  0.00000000000E+00 0. -1.
         -1    1    1    2    0  503 -0.40553150092E+02 -0.10564375872E+03 -0.16714502662E+03  0.20184801624E+03  0.00000000000E+00 0. -1.
<scales pt_clust_3="61.42638" pt_clust_4="33.31605" pt_clust_5="89.28662" pt_clust_6="14000.00000"></scales>
<clustering>
<clus scale="   33.316">  1  4  2 -1</clus>
<clus scale="   61.426">  2  3  1 -1</clus>
<clus scale="   89.287">  2  5  1 -1</clus>
<clus scale="   61.426">  2  3  1 -1</clus>
</clustering>
</event>
<event>
 6    0  0.1631680E+002  0.1197790E+03  0.7546771E-02  0.1243462E+00
         -2   -1    0    0    0  501 -0.00000000000E+00  0.00000000000E+00  0.24894900908E+03  0.24894900908E+03  0.00000000000E+00 0. -1.
         21   -1    0    0  505  502  0.00000000000E+00 -0.00000000000E+00 -0.48037353202E+03  0.48037353202E+03  0.00000000000E+00 0. -1.
         21    1    1    2  503  501  0.58988464180E+02  0.92704687505E+01 -0.19392147530E+01  0.59743962465E+02  0.00000000000E+00 0. -1.
         21    1    1    2  504  502  0.14890637590E+02  0.54110236212E+02 -0.39125297450E+03  0.39525756009E+03  0.00000000000E+00 0. -1.
         21    1    1    2  505  503  0.34026178238E+02 -0.20061627927E+02 -0.30311064135E+02  0.49789660870E+02  0.00000000000E+00 0. -1.
         -2    1    1    2    0  504 -0.10790528001E+03 -0.43319077035E+02  0.19207873045E+03  0.22453135767E+03  0.00000000000E+00 0. -1.
<scales pt_clust_3="38.05614" pt_clust_4="56.12173" pt_clust_5="38.05614" pt_clust_6="110.26170"></scales>
<clustering>
<clus scale="   38.056">  3  5 -1 -1</clus>
<clus scale="   56.122">  2  4  1 -1</clus>
<clus scale="  110.262">  1  6  2 -1</clus>
<clus scale="   56.122">  2  3  1 -1</clus>
</clustering>
</event>
<event>
 6    0  0.1631680E+002  0.1488375E+03  0.7546771E-02  0.1201909E+00
          2   -1    0    0  503    0 -0.00000000000E+00  0.00000000000E+00  0.43326620311E+04  0.43326620311E+04  0.00000000000E+00 0.  1.
         21   -1    0    0  505  502  0.00000000000E+00 -0.00000000000E+00 -0.77733461082E+03  0.77733461082E+03  0.00000000000E+00 0.  1.
         21    1    1    2  503  504  0.34094422383E+02 -0.23314976627E+02  0.21909903254E+04  0.21913796165E+04  0.00000000000E+00 0.  1.
         21    1    1    2  504  502  0.56974451902E+02  0.13817304539E+03 -0.65166080024E+03  0.66858034462E+03  0.00000000000E+00 0.  1.
         21    1    1    2  505  501  0.29486110367E+02 -0.17010643144E+02 -0.11165352485E+03  0.11672747019E+03  0.00000000000E+00 0. -1.
          2    1    1    2  501    0 -0.12055498465E+03 -0.97847425620E+02  0.21276514199E+04  0.21333092105E+04  0.00000000000E+00 0.  1.
<scales pt_clust_3="41.31393" pt_clust_4="14000.00000" pt_clust_5="34.04104" pt_clust_6="148.83754"></scales>
<clustering>
<clus scale="   34.041">  2  5  1 -1</clus>
<clus scale="   41.314">  1  3  2 -1</clus>
<clus scale="  148.838">  1  6  2 -1</clus>
<clus scale="   34.041">  2  3  1 -1</clus>
</clustering>
</event>
<event>
 6    0  0.1631680E+002  0.1149613E+03  0.7546771E-02  0.1251649E+00
          2   -1    0    0  504    0 -0.00000000000E+00  0.00000000000E+00  0.18057839687E+03  0.18057839687E+03  0.00000000000E+00 0. -1.
         21   -1    0    0  503  502  0.00000000000E+00 -0.00000000000E+00 -0.72471965404E+03  0.72471965404E+03  0.00000000000E+00 0. -1.
         21    1    1    2  503  501  0.14397187140E+03 -0.56696185344E+01 -0.11098210078E+03  0.18187102854E+03  0.00000000000E+00 0. -1.
         21    1    1    2  504  505  0.55968845757E+00 -0.36052941101E+02 -0.70242586040E+01  0.36735106126E+02  0.00000000000E+00 0. -1.
         21    1    1    2  505  502 -0.41077724095E+02 -0.15845388413E+02 -0.52840982276E+03  0.53024088539E+03  0.00000000000E+00 0. -1.
          2    1    1    2  501    0 -0.10345383576E+03  0.57567948048E+02  0.10227492497E+03  0.15645103085E+03  0.00000000000E+00 0. -1.
<scales pt_clust_3="14000.00000" pt_clust_4="36.05729" pt_clust_5="44.09709" pt_clust_6="114.96128"></scales>
<clustering>
<clus scale="   36.057">  1  4  2 -1</clus>
<clus scale="   44.097">  2  5  1 -1</clus>
<clus scale="  114.961">  1  6  2 -1</clus>
<clus scale="   44.097">  2  3  1 -1</clus>
</clustering>
</event>
<event>
 6    0  0.1631680E+002  0.8527833E+02  0.7546771E-02  0.1314706E+00
          2   -1    0    0  505    0 -0.00000000000E+00  0.00000000000E+00  0.13208286674E+04  0.13208286674E+04  0.00000000000E+00 0. -1.
         21   -1    0    0  504  502  0.00000000000E+00 -0.00000000000E+00 -0.50676454230E+02  0.50676454230E+02  0.00000000000E+00 0. -1.
         21    1    1    2  503  502 -0.35862189214E+02  0.17352912403E+01 -0.26599082903E+02  0.44683543527E+02  0.00000000000E+00 0. -1.
         21    1    1    2  504  501 -0.45672564027E+02  0.41936525557E+02  0.16605015505E+03  0.17724928568E+03  0.00000000000E+00 0. -1.
         21    1    1    2  505  503  0.42313830817E+02  0.44597636031E+02  0.12557700756E+03  0.13981771793E+03  0.00000000000E+00 0. -1.
          2    1    1    2  501    0  0.39220922424E+02 -0.88269452829E+02  0.10051241335E+04  0.10097545745E+04  0.00000000000E+00 0. -1.
<scales pt_clust_3="35.90415" pt_clust_4="14000.00000" pt_clust_5="52.00523" pt_clust_6="85.27833"></scales>
<clustering>
<clus scale="   35.904">  2  3  1 -1</clus>
<clus scale="   52.005">  2  5  1 -1</clus>
<clus scale="   85.278">  1  6  2 -1</clus>
<clus scale="   35.904">  2  3  1 -1</clus>
</clustering>
</event>
<event>
 6    0  0.1631680E+002  0.1829565E+03  0.7546771E-02  0.1164972E+00
         21   -1    0    0  503  502  0.00000000000E+00  0.00000000000E+00  0.56014320560E+02  0.56014320560E+02  0.00000000000E+00 0.  1.
          2   -1    0    0  505    0 -0.00000000000E+00 -0.00000000000E+00 -0.39610525376E+04  0.39610525376E+04  0.00000000000E+00 0.  1.
         21    1    1    2  503  501 -0.61630956485E+01  0.17257272868E+03 -0.14523390385E+03  0.22563735785E+03  0.00000000000E+00 0.  1.
         21    1    1    2  504  502  0.98554430843E+02 -0.24544208521E+03 -0.12261081284E+04  0.12543109406E+04  0.00000000000E+00 0.  1.
         21    1    1    2  505  504 -0.25007493357E+02  0.23516013763E+02 -0.31776203021E+03  0.31961083440E+03  0.00000000000E+00 0.  1.
          2    1    1    2  501    0 -0.67383841838E+02  0.49353342762E+02 -0.22159341546E+04  0.22175077254E+04  0.00000000000E+00 0.  1.
<scales pt_clust_3="182.95650" pt_clust_4="14000.00000" pt_clust_5="34.32751" pt_clust_6="104.29062"></scales>
<clustering>
<clus scale="   34.328">  2  5  1 -1</clus>
<clus scale="  104.291">  2  6  1 -1</clus>
<clus scale="  182.956">  1  3  2 -1</clus>
<clus scale="  182.956">  1  3  2 -1</clus>
</clustering>
</event>
<event>
 6    0  0.1631680E+002  0.7794887E+02  0.7546771E-02  0.1334975E+00
         21   -1    0    0  503  502  0.00000000000E+00  0.00000000000E+00  0.17288245824E+02  0.17288245824E+02  0.00000000000E+00 0. -1.
          2   -1    0    0  504    0 -0.00000000000E+00 -0.00000000000E+00 -0.20691782605E+04  0.20691782605E+04  0.00000000000E+00 0. -1.
         21    1    1    2  503  501  0.59869586395E+02 -0.55548813822E+01 -0.10268199347E+03  0.11899082261E+03  0.00000000000E+00 0. -1.
         21    1    1    2  504  505 -0.16118437592E+02 -0.35166432527E+02 -0.82209999459E+03  0.82300964946E+03  0.00000000000E+00 0. -1.
         21    1    1    2  505  502  0.21712282457E+01 -0.51632884966E+02 -0.10359820626E+03  0.11577243792E+03  0.00000000000E+00 0. -1.
          2    1    1    2  501    0 -0.45922377049E+02  0.92354198875E+02 -0.10235098204E+04  0.10286935964E+04  0.00000000000E+00 0. -1.
<scales pt_clust_3="77.94887" pt_clust_4="38.68439" pt_clust_5="54.73222" pt_clust_6="14000.00000"></scales>
<clustering>
<clus scale="   38.684">  2  4  1 -1</clus>
<clus scale="   54.732">  1  5  2 -1</clus>
<clus scale="   77.949">  1  3  2 -1</clus>
<clus scale="   54.732">  1  3  2 -1</clus>
</clustering>
</event>
<event>
 6    0  0.1631680E+002  0.1387127E+03  0.7546771E-02  0.1215072E+00
          2   -1    0    0  503    0 -0.00000000000E+00  0.00000000000E+00  0.70810928760E+03  0.70810928760E+03  0.00000000000E+00 0.  1.
         21   -1    0    0  501  502  0.00000000000E+00 -0.00000000000E+00 -0.29029007995E+03  0.29029007995E+03  0.00000000000E+00 0. -1.
         21    1    1    2  503  504  0.41087085153E+02  0.75637527751E+01  0.73293062085E+02  0.84363688114E+02  0.00000000000E+00 0.  1.
         21    1    1    2  504  505 -0.12792827595E+03 -0.14093293977E+03  0.54120829107E+01  0.19041278303E+03  0.00000000000E+00 0.  1.
         21    1    1    2  505  502  0.59871033294E+02  0.22713996978E+02 -0.18057860022E+03  0.19159618249E+03  0.00000000000E+00 0. -1.
          2    1    1    2  501    0  0.26970157498E+02  0.11065519002E+03  0.51969266288E+03  0.53202671392E+03  0.00000000000E+00 0.  1.
<scales pt_clust_3="41.77749" pt_clust_4="138.71267" pt_clust_5="64.39470" pt_clust_6="14000.00000"></scales>
<clustering>
<clus scale="   41.777">  1  3  2 -1</clus>
<clus scale="   64.395">  2  5  1 -1</clus>
<clus scale="  138.713">  2  4  1 -1</clus>
<clus scale="   64.395">  2  3  1 -1</clus>
</clustering>
</event>
<event>
 6    0  0.1631680E+002  0.1190015E+03  0.7546771E-02  0.1244753E+00
         21   -1    0    0  504  502  0.00000000000E+00  0.00000000000E+00  0.75340365227E+03  0.75340365227E+03  0.00000000000E+00 0. -1.
          2   -1    0    0  503    0 -0.00000000000E+00 -0.00000000000E+00 -0.73689435351E+03  0.73689435351E+03  0.00000000000E+00 0. -1.
         21    1    1    2  503  505 -0.22894083441E+02 -0.34466514784E+02 -0.81798809783E+02  0.91668560477E+02  0.00000000000E+00 0.  1.
         21    1    1    2  504  501 -0.91172077025E+02  0.58291895560E+02  0.28097476194E+03  0.30109319083E+03  0.00000000000E+00 0.  1.
         21    1    1    2  505  502  0.14502840439E+03  0.11845586595E+02  0.44495295675E+03  0.46814174106E+03  0.00000000000E+00 0. -1.
          2    1    1    2  501    0 -0.30962243920E+02 -0.35670967371E+02 -0.62761961015E+03  0.62939451341E+03  0.00000000000E+00 0. -1.
<scales pt_clust_3="41.37728" pt_clust_4="119.00147" pt_clust_5="14000.00000" pt_clust_6="87.05468"></scales>
<clustering>
<clus scale="   41.377">  2  3  1 -1</clus>
<clus scale="   87.055">  2  6  1 -1</clus>
<clus scale="  119.001">  1  4  2 -1</clus>
<clus scale="  119.001">  1  3  2 -1</clus>
</clustering>
</event>
<event>
 6    0  0.1631680E+002  0.1393483E+03  0.7546771E-02  0.1214209E+00
         21   -1    0    0  504  502  0.00000000000E+00  0.00000000000E+00  0.68719490225E+03  0.68719490225E+03  0.00000000000E+00 0. -1.
          2   -1    0    0  505    0 -0.00000000000E+00 -0.00000000000E+00 -0.13684680982E+04  0.13684680982E+04  0.00000000000E+00 0.  1.
         21    1    1    2  503  501  0.68464508196E+01  0.16230249126E+03  0.56865665468E+03  0.59140456836E+03  0.00000000000E+00 0. -1.
         21    1    1    2  504  503  0.22407384347E+02 -0.25873974456E+02  0.96157834175E+02  0.10206802879E+03  0.00000000000E+00 0.  1.
         21    1    1    2  505  502 -0.46554775152E+02 -0.12321560572E+02 -0.81891638892E+03  0.82033116482E+03  0.00000000000E+00 0.  1.
          2    1    1    2  501    0  0.17300939985E+02 -0.12410695624E+03 -0.52717129587E+03  0.54185923846E+03  0.00000000000E+00 0.  1.
<scales pt_clust_3="139.34826" pt_clust_4="34.22796" pt_clust_5="48.13966" pt_clust_6="14000.00000"></scales>
<clustering>
<clus scale="   34.228">  1  4  2 -1</clus>
<clus scale="   48.140">  2  5  1 -1</clus>
<clus scale="  139.348">  1  3  2 -1</clus>
<clus scale="   34.228">  1  3  2 -1</clus>
</clustering>
</event>
<event>
 6    0  0.1631680E+002  0.1154103E+03  0.7546771E-02  0.1250867E+00
         -1   -1    0    0    0  501 -0.00000000000E+00  0.00000000000E+00  0.79878412612E+03  0.79878412612E+03  0.00000000000E+00 0. -1.
         21   -1    0    0  503  502  0.00000000000E+00 -0.00000000000E+00 -0.75438865972E+03  0.75438865972E+03  0.00000000000E+00 0. -1.
         21    1    1    2  503  505 -0.14998442965E+03 -0.37097871204E+02 -0.40840273347E+03  0.43665131843E+03  0.00000000000E+00 0. -1.
         21    1    1    2  504  502  0.88632856363E+02  0.36407123859E+02 -0.30943016505E+03  0.32392636345E+03  0.00000000000E+00 0. -1.
         21    1    1    2  505  501 -0.45817311344E+01  0.36559678440E+02  0.12189029679E+02  0.38809467819E+02  0.00000000000E+00 0.  1.
         -1    1    1    2    0  504  0.65933304417E+02 -0.35868931096E+02  0.75003933524E+03  0.75378563614E+03  0.00000000000E+00 0. -1.
<scales pt_clust_3="14000.00000" pt_clust_4="115.41031" pt_clust_5="36.84566" pt_clust_6="61.47904"></scales>
<clustering>
<clus scale="   36.846">  1  5  2 -1</clus>
<clus scale="   61.479">  1  6  2 -1</clus>
<clus scale="  115.410">  2  4  1 -1</clus>
<clus scale="  115.410">  2  3  1 -1</clus>
</clustering>
</event>
<event>
 6    0  0.1631680E+002  0.1026261E+03  0.7546771E-02  0.1274868E+00
         21   -1    0    0  503  502  0.00000000000E+00  0.00000000000E+00  0.30406523060E+02  0.30406523060E+02  0.00000000000E+00 0. -1.
          2   -1    0    0  504    0 -0.00000000000E+00 -0.00000000000E+00 -0.21678253726E+04  0.21678253726E+04  0.00000000000E+00 0. -1.
         21    1    1    2  503  501  0.66617943718E+02 -0.71225468342E+02 -0.10898113128E+03  0.14624604180E+03  0.00000000000E+00 0. -1.
         21    1    1    2  504  505  0.43325598973E+02  0.42559302127E+01 -0.92340651470E+03  0.92443215644E+03  0.00000000000E+00 0.  1.
         21    1    1    2  505  502  0.28098313318E+02  0.50084236075E+02 -0.12325987093E+03  0.13598140202E+03  0.00000000000E+00 0. -1.
          2    1    1    2  501    0 -0.13804185601E+03  0.16885302055E+02 -0.98177133259E+03  0.99157229537E+03  0.00000000000E+00 0. -1.
<scales pt_clust_3="14000.00000" pt_clust_4="43.53413" pt_clust_5="60.13868" pt_clust_6="102.62614"></scales>
<clustering>
<clus scale="   43.534">  2  4  1 -1</clus>
<clus scale="   60.139">  1  5  2 -1</clus>
<clus scale="  102.626">  2  6  1 -1</clus>
<clus scale="   60.139">  1  3  2 -1</clus>
</clustering>
</event>
<event>
 6    0  0.1631680E+002  0.6906871E+02  0.7546771E-02  0.1363289E+00
         21   -1    0    0  501  502  0.00000000000E+00  0.00000000000E+00  0.40994220589E+03  0.40994220589E+03  0.00000000000E+00 0. -1.
          2   -1    0    0  505    0 -0.00000000000E+00 -0.00000000000E+00 -0.54576619307E+03  0.54576619307E+03  0.00000000000E+00 0.  1.
         21    1    1    2  503  504  0.26019679166E+02  0.63395680610E+02  0.77266473020E+02  0.10327702492E+03  0.00000000000E+00 0. -1.
         21    1    1    2  504  502  0.25476665126E+02 -0.18114442694E+02  0.30679625115E+03  0.30838471625E+03  0.00000000000E+00 0. -1.
         21    1    1    2  505  503  0.92058165217E+01  0.42855461441E+02 -0.78879356469E+02  0.90240182348E+02  0.00000000000E+00 0. -1.
          2    1    1    2  501    0 -0.60702160814E+02 -0.88136699358E+02 -0.44100735487E+03  0.45380647544E+03  0.00000000000E+00 0.  1.
<scales pt_clust_3="14000.00000" pt_clust_4="31.26009" pt_clust_5="43.17652" pt_clust_6="69.06871"></scales>
<clustering>
<clus scale="   31.260">  1  4  2 -1</clus>
<clus scale="   43.177">  2  5  1 -1</clus>
<clus scale="   69.069">  2  6  1 -1</clus>
<clus scale="   31.260">  1  3  2 -1</clus>
</clustering>
</event>
<event>
 6    0  0.1631680E+002  0.2505897E+03  0.7546771E-02  0.1112933E+00
         21   -1    0    0  501  502  0.00000000000E+00  0.00000000000E+00  0.78144512164E+02  0.78144512164E+02  0.00000000000E+00 0. -1.
          1   -1    0    0  503    0 -0.00000000000E+00 -0.00000000000E+00 -0.15219607589E+04  0.15219607589E+04  0.00000000000E+00 0. -1.
         21    1    1    2  503  505 -0.13807981967E+02  0.32480995658E+02 -0.14629982573E+03  0.15049689184E+03  0.00000000000E+00 0.  1.
         21    1    1    2  504  502 -0.37504714141E+02  0.33176203039E+01  0.14671610208E+02  0.40408740804E+02  0.00000000000E+00 0. -1.
         21    1    1    2  505  504  0.12915472785E+03  0.21326413070E+03 -0.55872710171E+03  0.61183209082E+03  0.00000000000E+00 0. -1.
          1    1    1    2  501    0 -0.77842031740E+02 -0.24906274667E+03 -0.75346092953E+03  0.79736754763E+03  0.00000000000E+00 0. -1.
<scales pt_clust_3="35.29413" pt_clust_4="37.80796" pt_clust_5="250.58971" pt_clust_6="14000.00000"></scales>
<clustering>
<clus scale="   35.294">  2  3  1 -1</clus>
<clus scale="   37.808">  1  4  2 -1</clus>
<clus scale="  250.590">  1  5  2 -1</clus>
<clus scale="   37.808">  1  3  2 -1</clus>
</clustering>
</event>
<event>
 6    0  0.1631680E+002  0.8767551E+02  0.7546771E-02  0.1308580E+00
         -3   -1    0    0    0  501 -0.00000000000E+00  0.00000000000E+00  0.20004394063E+04  0.20004394063E+04  0.00000000000E+00 0.  1.
         21   -1    0    0  504  502  0.00000000000E+00 -0.00000000000E+00 -0.52283803184E+03  0.52283803184E+03  0.00000000000E+00 0.  1.
         21    1    1    2  503  501  0.30124965492E+02 -0.12681894354E+02  0.12152003407E+04  0.12156398364E+04  0.00000000000E+00 0.  1.
         21    1    1    2  504  503 -0.40436733117E+02  0.33649421134E+02  0.11645857428E+01  0.52619095277E+02  0.00000000000E+00 0.  1.
         21    1    1    2  505  502  0.31795682239E+02 -0.12027291528E+03 -0.48561033764E+03  0.50129226962E+03  0.00000000000E+00 0.  1.
         -3    1    1    2    0  505 -0.21483914613E+02  0.99305388495E+02  0.74684678571E+03  0.75372623684E+03  0.00000000000E+00 0.  1.
<scales pt_clust_3="32.68553" pt_clust_4="51.53611" pt_clust_5="14000.00000" pt_clust_6="87.67551"></scales>
<clustering>
<clus scale="   32.686">  1  3  2 -1</clus>
<clus scale="   51.536">  2  4  1 -1</clus>
<clus scale="   87.676">  1  6  2 -1</clus>
<clus scale="   51.536">  2  3  1 -1</clus>
</clustering>
</event>
<event>
 6    0  0.1631680E+002  0.8234889E+02  0.7546771E-02  0.1322515E+00
         21   -1    0    0  505  502  0.00000000000E+00  0.00000000000E+00  0.16778075217E+03  0.16778075217E+03  0.00000000000E+00 0. -1.
          2   -1    0    0  504    0 -0.00000000000E+00 -0.00000000000E+00 -0.25782594857E+04  0.25782594857E+04  0.00000000000E+00 0.  1.
         21    1    1    2  503  502  0.72644759649E+02 -0.18625806711E+02  0.11103084141E+03  0.13398518397E+03  0.00000000000E+00 0. -1.
         21    1    1    2  504  503  0.26570098043E+02 -0.17618758975E+02 -0.37732811011E+03  0.37867254120E+03  0.00000000000E+00 0. -1.
         21    1    1    2  505  501  0.59974294738E+01  0.43139325992E+02  0.32378023193E+02  0.54270682631E+02  0.00000000000E+00 0. -1.
          2    1    1    2  501    0 -0.10521228717E+03 -0.68947603061E+01 -0.21765594880E+04  0.21791118301E+04  0.00000000000E+00 0.  1.
<scales pt_clust_3="82.34889" pt_clust_4="31.88088" pt_clust_5="43.48584" pt_clust_6="14000.00000"></scales>
<clustering>
<clus scale="   31.881">  2  4  1 -1</clus>
<clus scale="   43.486">  1  5  2 -1</clus>
<clus scale="   82.349">  1  3  2 -1</clus>
<clus scale="   43.486">  1  3  2 -1</clus>
</clustering>
</event>
<event>
 6    0  0.1631680E+002  0.3251943E+03  0.7546771E-02  0.1073283E+00
          2   -1    0    0  503    0 -0.00000000000E+00  0.00000000000E+00  0.23901450086E+04  0.23901450086E+04  0.00000000000E+00 0.  1.
         21   -1    0    0  501  502  0.00000000000E+00 -0.00000000000E+00 -0.21744191882E+03  0.21744191882E+03  0.00000000000E+00 0.  1.
         21    1    1    2  503  504 -0.43596601789E+02 -0.70273273792E+01  0.24547918270E+03  0.24941947830E+03  0.00000000000E+00 0.  1.
         21    1    1    2  504  505 -0.25072071749E+03 -0.10146100437E+03  0.20331910107E+03  0.33836942895E+03  0.00000000000E+00 0.  1.
         21    1    1    2  505  502 -0.84028658221E+02  0.94043258458E+02 -0.97530047201E+02  0.15942728741E+03  0.00000000000E+00 0.  1.
          2    1    1    2  501    0  0.37834597750E+03  0.14445073289E+02  0.18214348532E+04  0.18603707328E+04  0.00000000000E+00 0.  1.
<scales pt_clust_3="44.15934" pt_clust_4="325.19435" pt_clust_5="126.45984" pt_clust_6="14000.00000"></scales>
<clustering>
<clus scale="   44.159">  1  3  2 -1</clus>
<clus scale="  126.460">  2  5  1 -1</clus>
<clus scale="  325.194">  2  4  1 -1</clus>
<clus scale="  126.460">  2  3  1 -1</clus>
</clustering>
</event>
<event>
 6    0  0.1631680E+002  0.8085054E+02  0.7546771E-02  0.1326655E+00
         21   -1    0    0  503  502  0.00000000000E+00  0.00000000000E+00  0.94204779412E+03  0.94204779412E+03  0.00000000000E+00 0. -1.
          3   -1    0    0  504    0 -0.00000000000E+00 -0.00000000000E+00 -0.21635502571E+03  0.21635502571E+03  0.00000000000E+00 0. -1.
         21    1    1    2  503  501  0.12180926509E+02 -0.10798987003E+03  0.82192207191E+03  0.82907543643E+03  0.00000000000E+00 0. -1.
         21    1    1    2  504  505 -0.11310624039E+01 -0.32532154455E+02 -0.90240837301E+02  0.95932419403E+02  0.00000000000E+00 0. -1.
         21    1    1    2  505  502 -0.90919285498E+01  0.29488761579E+02  0.84619179338E+02  0.90070282202E+02  0.00000000000E+00 0.  1.
          3    1    1    2  501    0 -0.19579355552E+01  0.11103326291E+03 -0.90607645535E+02  0.14332468180E+03  0.00000000000E+00 0. -1.
<scales pt_clust_3="14000.00000" pt_clust_4="32.45475" pt_clust_5="30.85855" pt_clust_6="80.85054"></scales>
<clustering>
<clus scale="   30.859">  1  5  2 -1</clus>
<clus scale="   32.455">  2  4  1 -1</clus>
<clus scale="   80.851">  2  6  1 -1</clus>
<clus scale="   30.859">  1  3  2 -1</clus>
</clustering>
</event>
<event>
 6    0  0.1631680E+002  0.1085236E+03  0.7546771E-02  0.1263329E+00
         21   -1    0    0  505  502  0.00000000000E+00  0.00000000000E+00  0.12048702214E+04  0.12048702214E+04  0.00000000000E+00 0. -1.
          2   -1    0    0  503    0 -0.00000000000E+00 -0.00000000000E+00 -0.70300494857E+03  0.70300494857E+03  0.00000000000E+00 0. -1.
         21    1    1    2  503  504 -0.38400821011E+02  0.54771180416E+02 -0.30916265601E+03  0.31631638138E+03  0.00000000000E+00 0. -1.
         21    1    1    2  504  502 -0.47990423323E+02 -0.90998281673E+00  0.88397744372E+03  0.88527963368E+03  0.00000000000E+00 0. -1.
         21    1    1    2  505  501  0.15331795928E+03  0.23692037740E+02  0.29014200012E+03  0.32901381357E+03  0.00000000000E+00 0. -1.
          2    1    1    2  501    0 -0.66926714942E+02 -0.77553235339E+02 -0.36309151502E+03  0.37726534132E+03  0.00000000000E+00 0. -1.
<scales pt_clust_3="67.19261" pt_clust_4="47.99905" pt_clust_5="108.52363" pt_clust_6="14000.00000"></scales>
<clustering>
<clus scale="   47.999">  1  4  2 -1</clus>
<clus scale="   67.193">  2  3  1 -1</clus>
<clus scale="  108.524">  1  5  2 -1</clus>
<clus scale="   47.999">  1  3  2 -1</clus>
</clustering>
</event>
<event>
 6    0  0.1631680E+002  0.1168071E+03  0.7546771E-02  0.1248459E+00
          2   -1    0    0  504    0 -0.00000000000E+00  0.00000000000E+00  0.97348882151E+03  0.97348882151E+03  0.00000000000E+00 0. -1.
         21   -1    0    0  505  502  0.00000000000E+00 -0.00000000000E+00 -0.65296458468E+02  0.65296458468E+02  0.00000000000E+00 0. -1.
         21    1    1    2  503  502  0.10899307146E+03 -0.46938094638E+02  0.21452736745E+03  0.24516252923E+03  0.00000000000E+00 0. -1.
         21    1    1    2  504  503 -0.41687333394E+02  0.58556009693E+01  0.12202250485E+03  0.12907987263E+03  0.00000000000E+00 0. -1.
         21    1    1    2  505  501 -0.44821368547E+02  0.11890788358E+03  0.49855476564E+02  0.13650497573E+03  0.00000000000E+00 0. -1.
          2    1    1    2  501    0 -0.22484369517E+02 -0.77825389914E+02  0.52178701418E+03  0.52803790239E+03  0.00000000000E+00 0. -1.
<scales pt_clust_3="116.80713" pt_clust_4="42.09658" pt_clust_5="14000.00000" pt_clust_6="88.53085"></scales>
<clustering>
<clus scale="   42.097">  1  4  2 -1</clus>
<clus scale="   88.531">  1  6  2 -1</clus>
<clus scale="  116.807">  1  3  2 -1</clus>
<clus scale="  116.807">  2  3  1 -1</clus>
</clustering>
</event>
<event>
 6    0  0.1631680E+002  0.2030898E+03  0.7546771E-02  0.1147158E+00
         21   -1    0    0  501  502  0.00000000000E+00  0.00000000000E+00  0.87039145234E+02  0.87039145234E+02  0.00000000000E+00 0. -1.
          2   -1    0    0  503    0 -0.00000000000E+00 -0.00000000000E+00 -0.19427715962E+04  0.19427715962E+04  0.00000000000E+00 0.  1.
         21    1    1    2  503  504 -0.65878683217E+01 -0.41155781952E+02 -0.98007340216E+03  0.98095926114E+03  0.00000000000E+00 0. -1.
         21    1    1    2  504  505 -0.21587794613E+03 -0.73529638591E+02 -0.16691020925E+03  0.28261088678E+03  0.00000000000E+00 0. -1.
         21    1    1    2  505  502  0.54949619092E+02 -0.23363262792E+02 -0.72164436793E+02  0.93664340195E+02  0.00000000000E+00 0.  1.
          2    1    1    2  501    0  0.16751619536E+03  0.13804868333E+03 -0.63658440276E+03  0.67257625331E+03  0.00000000000E+00 0.  1.
<scales pt_clust_3="41.67971" pt_clust_4="14000.00000" pt_clust_5="60.67553" pt_clust_6="203.08984"></scales>
<clustering>
<clus scale="   41.680">  2  3  1 -1</clus>
<clus scale="   60.676">  1  5  2 -1</clus>
<clus scale="  203.090">  2  6  1 -1</clus>
<clus scale="   60.676">  1  3  2 -1</clus>
</clustering>
</event>
<event>
 6    0  0.1631680E+002  0.1877294E+03  0.7546771E-02  0.1160525E+00
          2   -1    0    0  505    0 -0.00000000000E+00  0.00000000000E+00  0.13935908700E+04  0.13935908700E+04  0.00000000000E+00 0. -1.
         21   -1    0    0  501  502  0.00000000000E+00 -0.00000000000E+00 -0.90951118615E+02  0.90951118615E+02  0.00000000000E+00 0. -1.
         21    1    1    2  503  502 -0.34617643234E+02 -0.31617763258E+02 -0.39871901026E+02  0.61545370808E+02  0.00000000000E+00 0. -1.
         21    1    1    2  504  503  0.62269129088E+02 -0.78549281992E+02  0.44080450294E+03  0.45205756707E+03  0.00000000000E+00 0. -1.
         21    1    1    2  505  504  0.10214621721E+02 -0.73716344928E+02  0.66340680860E+03  0.66756799781E+03  0.00000000000E+00 0. -1.
          2    1    1    2  501    0 -0.37866107574E+02  0.18388339018E+03  0.23830034084E+03  0.30337105289E+03  0.00000000000E+00 0. -1.
<scales pt_clust_3="46.88352" pt_clust_4="66.24347" pt_clust_5="66.24347" pt_clust_6="171.47088"></scales>
<clustering>
<clus scale="   46.884">  2  3  1 -1</clus>
<clus scale="   66.243">  4  5 -1 -1</clus>
<clus scale="  171.471">  2  6  1 -1</clus>
<clus scale="   46.884">  2  3  1 -1</clus>
</clustering>
</event>
<event>
 6    0  0.1631680E+002  0.7530028E+02  0.7546771E-02  0.1342944E+00
          4   -1    0    0  504    0 -0.00000000000E+00  0.00000000000E+00  0.22225563300E+03  0.22225563300E+03  0.00000000000E+00 0. -1.
         21   -1    0    0  501  502  0.00000000000E+00 -0.00000000000E+00 -0.22037000948E+03  0.22037000948E+03  0.00000000000E+00 0.  1.
         21    1    1    2  503  502  0.64201672374E+02 -0.22615202048E+02 -0.12729725193E+03  0.14435335967E+03  0.00000000000E+00 0.  1.
         21    1    1    2  504  505  0.25810593263E+02 -0.32275555052E+02  0.62717290649E+02  0.75108965676E+02  0.00000000000E+00 0. -1.
         21    1    1    2  505  503 -0.10326530334E+03 -0.30852172711E+02 -0.90314375856E+01  0.10815334623E+03  0.00000000000E+00 0. -1.
          4    1    1    2  501    0  0.13253037703E+02  0.85742929811E+02  0.75497022382E+02  0.11500997091E+03  0.00000000000E+00 0. -1.
<scales pt_clust_3="70.02919" pt_clust_4="41.32672" pt_clust_5="75.30028" pt_clust_6="14000.00000"></scales>
<clustering>
<clus scale="   41.327">  1  4  2 -1</clus>
<clus scale="   70.029">  2  3  1 -1</clus>
<clus scale="   75.300">  2  5  1 -1</clus>
<clus scale="   70.029">  2  3  1 -1</clus>
</clustering>
</event>
<event>
 6    0  0.1631680E+002  0.9352805E+02  0.7546771E-02  0.1294526E+00
         21   -1    0    0  505  502  0.00000000000E+00  0.00000000000E+00  0.86124526956E+02  0.86124526956E+02  0.00000000000E+00 0.  1.
          1   -1    0    0  504    0 -0.00000000000E+00 -0.00000000000E+00 -0.12208692092E+04  0.12208692092E+04  0.00000000000E+00 0.  1.
         21    1    1    2  503  502 -0.29164858308E+02 -0.30035751141E+02  0.14946820131E+02  0.44453827043E+02  0.00000000000E+00 0.  1.
         21    1    1    2  504  503 -0.22157621173E+02  0.29292719003E+02 -0.12011634183E+03  0.12560636583E+03  0.00000000000E+00 0.  1.
         21    1    1    2  505  501  0.11213326308E+03 -0.15646740760E+02 -0.80896356441E+01  0.11350828776E+03  0.00000000000E+00 0.  1.
          1    1    1    2  501    0 -0.60810783599E+02  0.16389772898E+02 -0.10214855249E+04  0.10234252555E+04  0.00000000000E+00 0.  1.
<scales pt_clust_3="41.79355" pt_clust_4="36.72906" pt_clust_5="93.52805" pt_clust_6="14000.00000"></scales>
<clustering>
<clus scale="   36.729">  2  4  1 -1</clus>
<clus scale="   41.794">  1  3  2 -1</clus>
<clus scale="   93.528">  1  5  2 -1</clus>
<clus scale="   41.794">  1  3  2 -1</clus>
</clustering>
</event>
<event>
 6    0  0.1631680E+002  0.9555258E+02  0.7546771E-02  0.1289936E+00
         21   -1    0    0  505  502  0.00000000000E+00  0.00000000000E+00  0.60627456156E+03  0.60627456156E+03  0.00000000000E+00 0. -1.
          1   -1    0    0  504    0 -0.00000000000E+00 -0.00000000000E+00 -0.75129036914E+03  0.75129036914E+03  0.00000000000E+00 0.  1.
         21    1    1    2  503  502  0.42385477174E+02 -0.42351713201E+00  0.54854591083E+03  0.55018117409E+03  0.00000000000E+00 0. -1.
         21    1    1    2  504  503 -0.11425980058E+02  0.50875640735E+02  0.12365258672E+02  0.53589023713E+02  0.00000000000E+00 0. -1.
         21    1    1    2  505  501 -0.81907783584E+02  0.35245651984E+02 -0.79435800829E+02  0.11942021374E+03  0.00000000000E+00 0. -1.
          1    1    1    2  501    0  0.50948286468E+02 -0.85697775587E+02 -0.62649117625E+03  0.63437451915E+03  0.00000000000E+00 0.  1.
<scales pt_clust_3="42.38759" pt_clust_4="52.30613" pt_clust_5="95.55258" pt_clust_6="14000.00000"></scales>
<clustering>
<clus scale="   42.388">  1  3  2 -1</clus>
<clus scale="   52.306">  1  4  2 -1</clus>
<clus scale="   95.553">  1  5  2 -1</clus>
<clus scale="   42.388">  1  3  2 -1</clus>
</clustering>
</event>
<event>
 6    0  0.1631680E+002  0.2268926E+03  0.7546771E-02  0.1128846E+00
          1   -1    0    0  505    0 -0.00000000000E+00  0.00000000000E+00  0.35020469958E+04  0.35020469958E+04  0.00000000000E+00 0.  1.
         21   -1    0    0  504  502  0.00000000000E+00 -0.00000000000E+00 -0.47204438493E+02  0.47204438493E+02  0.00000000000E+00 0. -1.
         21    1    1    2  503  502  0.79998527175E+02 -0.24882865146E+03  0.56774026434E+03  0.62501557572E+03  0.00000000000E+00 0. -1.
         21    1    1    2  504  501  0.75881257673E+01  0.19262353299E+03  0.70367346656E+03  0.72960109145E+03  0.00000000000E+00 0.  1.
         21    1    1    2  505  503  0.22164174371E+02 -0.27593129247E+02  0.12997998582E+04  0.13002816244E+04  0.00000000000E+00 0.  1.
          1    1    1    2  501    0 -0.10975082731E+03  0.83798247710E+02  0.88362896821E+03  0.89435314271E+03  0.00000000000E+00 0.  1.
<scales pt_clust_3="14000.00000" pt_clust_4="226.89258" pt_clust_5="35.39253" pt_clust_6="124.25954"></scales>
<clustering>
<clus scale="   35.393">  1  5  2 -1</clus>
<clus scale="  124.260">  1  6  2 -1</clus>
<clus scale="  226.893">  1  4  2 -1</clus>
<clus scale="  226.893">  2  3  1 -1</clus>
</clustering>
</event>
<event>
 6    0  0.1631680E+002  0.7162688E+02  0.7546771E-02  0.1354647E+00
         21   -1    0    0  503  502  0.00000000000E+00  0.00000000000E+00  0.13298992145E+03  0.13298992145E+03  0.00000000000E+00 0.  1.
         -4   -1    0    0    0  501 -0.00000000000E+00 -0.00000000000E+00 -0.25380040400E+03  0.25380040400E+03  0.00000000000E+00 0.  1.
         21    1    1    2  503  501  0.23465721121E+02  0.61551598005E+02  0.10533242385E+02  0.66709733022E+02  0.00000000000E+00 0.  1.
         21    1    1    2  504  502 -0.27482488804E+02 -0.68871728861E+02 -0.31315463442E+02  0.80493853665E+02  0.00000000000E+00 0.  1.
         21    1    1    2  505  504  0.41388593458E+02 -0.54383202246E+02  0.42051360315E+02  0.80242540210E+02  0.00000000000E+00 0.  1.
         -4    1    1    2    0  505 -0.37371825774E+02  0.61703333103E+02 -0.14207962181E+03  0.15934419855E+03  0.00000000000E+00 0.  1.
<scales pt_clust_3="65.87290" pt_clust_4="56.99099" pt_clust_5="14000.00000" pt_clust_6="71.62688"></scales>
<clustering>
<clus scale="   65.873">  1  3  2 -1</clus>
<clus scale="   56.991">  1  4  2 -1</clus>
<clus scale="   71.627">  2  6  1 -1</clus>
<clus scale="   65.873">  1  3  2 -1</clus>
</clustering>
</event>
<event>
 6    0  0.1631680E+002  0.9177230E+02  0.7546771E-02  0.1298616E+00
         21   -1    0    0  501  502  0.00000000000E+00  0.00000000000E+00  0.14733592403E+03  0.14733592403E+03  0.00000000000E+00 0.  1.
          1   -1    0    0  503    0 -0.00000000000E+00 -0.00000000000E+00 -0.40180152401E+04  0.40180152401E+04  0.00000000000E+00 0.  1.
         21    1    1    2  503  504 -0.48599094101E+02 -0.38676442953E+02 -0.27957632789E+04  0.27964531197E+04  0.00000000000E+00 0.  1.
         21    1    1    2  504  505  0.70829123239E+02 -0.29796240852E+02 -0.24893760794E+03  0.26052737536E+03  0.00000000000E+00 0. -1.
         21    1    1    2  505  502  0.32480156291E+02 -0.11357332714E+02  0.13663685213E+03  0.14090272857E+03  0.00000000000E+00 0.  1.
          1    1    1    2  501    0 -0.54710185430E+02  0.79830016519E+02 -0.96261528136E+03  0.96746794047E+03  0.00000000000E+00 0.  1.
<scales pt_clust_3="61.38334" pt_clust_4="91.77230" pt_clust_5="34.40857" pt_clust_6="14000.00000"></scales>
<clustering>
<clus scale="   34.409">  1  5  2 -1</clus>
<clus scale="   61.383">  2  3  1 -1</clus>
<clus scale="   91.772">  1  4  2 -1</clus>
<clus scale="   34.409">  1  3  2 -1</clus>
</clustering>
</event>
<event>
 6    0  0.1631680E+002  0.1636911E+03  0.7546771E-02  0.1184591E+00
          1   -1    0    0  502    0 -0.00000000000E+00  0.00000000000E+00  0.10269818633E+04  0.10269818633E+04  0.00000000000E+00 0.  1.
         21   -1    0    0  504  502  0.00000000000E+00 -0.00000000000E+00 -0.63099006144E+03  0.63099006144E+03  0.00000000000E+00 0. -1.
         21    1    1    2  503  505  0.67758085708E+02  0.14234272465E+03 -0.15044160246E+03  0.21791118647E+03  0.00000000000E+00 0. -1.
         21    1    1    2  504  503 -0.46221379359E+02  0.59778645118E+01 -0.43882966469E+03  0.44129766076E+03  0.00000000000E+00 0. -1.
         21    1    1    2  505  501 -0.34097185901E+02 -0.41453816124E+02  0.25252358172E+03  0.25816505627E+03  0.00000000000E+00 0. -1.
          1    1    1    2  501    0  0.12560479551E+02 -0.10686677304E+03  0.73273948729E+03  0.74059802123E+03  0.00000000000E+00 0.  1.
<scales pt_clust_3="149.91076" pt_clust_4="46.60634" pt_clust_5="46.42968" pt_clust_6="46.42968"></scales>
<clustering>
<clus scale="   46.430">  5  6 -1 -1</clus>
<clus scale="   46.606">  2  4  1 -1</clus>
<clus scale="  149.911">  2  3  1 -1</clus>
<clus scale="   46.606">  2  3  1 -1</clus>
</clustering>
</event>
<event>
 6    0  0.1631680E+002  0.1909005E+03  0.7546771E-02  0.1157652E+00
          2   -1    0    0  504    0 -0.00000000000E+00  0.00000000000E+00  0.11637559300E+04  0.11637559300E+04  0.00000000000E+00 0.  1.
         21   -1    0    0  505  502  0.00000000000E+00 -0.00000000000E+00 -0.83839099549E+02  0.83839099549E+02  0.00000000000E+00 0.  1.
         21    1    1    2  503  502  0.13088213460E+03  0.18259830480E+03  0.28299303296E+03  0.36132717968E+03  0.00000000000E+00 0.  1.
         21    1    1    2  504  503  0.36777917356E+02 -0.55074024263E+02  0.13586608353E+03  0.15114680284E+03  0.00000000000E+00 0.  1.
         21    1    1    2  505  501 -0.23414755617E+02 -0.32123505111E+02 -0.10938152119E+02  0.41228794950E+02  0.00000000000E+00 0.  1.
          2    1    1    2  501    0 -0.14424529634E+03 -0.95400775424E+02  0.67199586605E+03  0.69389225205E+03  0.00000000000E+00 0.  1.
<scales pt_clust_3="14000.00000" pt_clust_4="68.21772" pt_clust_5="39.75136" pt_clust_6="190.90054"></scales>
<clustering>
<clus scale="   39.751">  2  5  1 -1</clus>
<clus scale="   68.218">  1  4  2 -1</clus>
<clus scale="  190.901">  1  6  2 -1</clus>
<clus scale="   39.751">  2  3  1 -1</clus>
</clustering>
</event>
<event>
 6    0  0.1631680E+002  0.7952462E+02  0.7546771E-02  0.1330406E+00
         21   -1    0    0  505  502  0.00000000000E+00  0.00000000000E+00  0.16511224277E+03  0.16511224277E+03  0.00000000000E+00 0. -1.
          2   -1    0    0  503    0 -0.00000000000E+00 -0.00000000000E+00 -0.27258124909E+04  0.27258124909E+04  0.00000000000E+00 0.  1.
         21    1    1    2  503  502  0.17919219848E+02  0.31361483089E+02 -0.16568359210E+03  0.16957503871E+03  0.00000000000E+00 0. -1.
         21    1    1    2  504  501 -0.64341377872E+02 -0.83103719874E+02 -0.35473050386E+02  0.11092510296E+03  0.00000000000E+00 0. -1.
         21    1    1    2  505  504 -0.10990437545E+02  0.56907715435E+02  0.11839238981E+03  0.13181819206E+03  0.00000000000E+00 0. -1.
          2    1    1    2  501    0  0.57412595568E+02 -0.51654786501E+01 -0.24779359954E+04  0.24786063999E+04  0.00000000000E+00 0.  1.
<scales pt_clust_3="36.11982" pt_clust_4="14000.00000" pt_clust_5="58.03120" pt_clust_6="79.52462"></scales>
<clustering>
<clus scale="   36.120">  2  3  1 -1</clus>
<clus scale="   58.031">  1  5  2 -1</clus>
<clus scale="   79.525">  2  6  1 -1</clus>
<clus scale="   58.031">  1  3  2 -1</clus>
</clustering>
</event>
<event>
 6    0  0.1631680E+002  0.1368706E+03  0.7546771E-02  0.1217603E+00
          2   -1    0    0  503    0 -0.00000000000E+00  0.00000000000E+00  0.12982921500E+04  0.12982921500E+04  0.00000000000E+00 0. -1.
         21   -1    0    0  501  502  0.00000000000E+00 -0.00000000000E+00 -0.18588640748E+03  0.18588640748E+03  0.00000000000E+00 0.  1.
         21    1    1    2  503  505 -0.49074184607E+02  0.13196326559E+03  0.93134738941E+03  0.94192915807E+03  0.00000000000E+00 0.  1.
         21    1    1    2  504  502 -0.90162833634E+01  0.30882822815E+02 -0.82162316470E+02  0.88236547748E+02  0.00000000000E+00 0.  1.
         21    1    1    2  505  504 -0.14481043625E+02 -0.54518342737E+02 -0.73660442527E+02  0.92778290093E+02  0.00000000000E+00 0.  1.
          2    1    1    2  501    0  0.72571511595E+02 -0.10832774566E+03  0.33688111208E+03  0.36123456154E+03  0.00000000000E+00 0. -1.
<scales pt_clust_3="14000.00000" pt_clust_4="32.17207" pt_clust_5="36.35476" pt_clust_6="136.87057"></scales>
<clustering>
<clus scale="   32.172">  2  4  1 -1</clus>
<clus scale="   36.355">  2  5  1 -1</clus>
<clus scale="  136.871">  2  6  1 -1</clus>
<clus scale="   32.172">  2  3  1 -1</clus>
</clustering>
</event>
<event>
 6    0  0.1631680E+002  0.1111500E+03  0.7546771E-02  0.1258455E+00
         21   -1    0    0  504  502  0.00000000000E+00  0.00000000000E+00  0.46856442414E+03  0.46856442414E+03  0.00000000000E+00 0. -1.
         -1   -1    0    0    0  501 -0.00000000000E+00 -0.00000000000E+00 -0.11790980908E+04  0.11790980908E+04  0.00000000000E+00 0. -1.
         21    1    1    2  503  501  0.77384066521E+02 -0.72602139207E+02 -0.75065978917E+03  0.75812234069E+03  0.00000000000E+00 0.  1.
         21    1    1    2  504  505 -0.27901334325E+02  0.20793019795E+02  0.40248705117E+02  0.53205191410E+02  0.00000000000E+00 0.  1.
         21    1    1    2  505  503  0.64617365634E+02 -0.12010204171E+03  0.38005047611E+03  0.40377997568E+03  0.00000000000E+00 0. -1.
         -1    1    1    2    0  502 -0.11410009783E+03  0.17191116112E+03 -0.38017305872E+03  0.43255500716E+03  0.00000000000E+00 0. -1.
<scales pt_clust_3="105.80433" pt_clust_4="34.79704" pt_clust_5="14000.00000" pt_clust_6="111.15000"></scales>
<clustering>
<clus scale="   34.797">  1  4  2 -1</clus>
<clus scale="  105.804">  2  3  1 -1</clus>
<clus scale="  111.150">  2  6  1 -1</clus>
<clus scale="   34.797">  1  3  2 -1</clus>
</clustering>
</event>
<event>
 6    0  0.1631680E+002  0.1506768E+03  0.7546771E-02  0.1199644E+00
         -1   -1    0    0    0  501 -0.00000000000E+00  0.00000000000E+00  0.37453125756E+02  0.37453125756E+02  0.00000000000E+00 0. -1.
         21   -1    0    0  504  502  0.00000000000E+00 -0.00000000000E+00 -0.17464831964E+04  0.17464831964E+04  0.00000000000E+00 0. -1.
         21    1    1    2  503  501  0.26098737760E+02 -0.22469763393E+02 -0.76989571875E+02  0.84341143916E+02  0.00000000000E+00 0. -1.
         21    1    1    2  504  505 -0.10572954936E+02  0.33023358197E+02 -0.34787698178E+03  0.34960080666E+03  0.00000000000E+00 0. -1.
         21    1    1    2  505  503  0.10352379625E+03  0.90546735774E+02 -0.10998011156E+04  0.11083674398E+04  0.00000000000E+00 0. -1.
         -1    1    1    2    0  502 -0.11904957908E+03 -0.10110033058E+03 -0.18436240146E+03  0.24162693184E+03  0.00000000000E+00 0. -1.
<scales pt_clust_3="34.43885" pt_clust_4="33.92860" pt_clust_5="150.67677" pt_clust_6="14000.00000"></scales>
<clustering>
<clus scale="   34.439">  1  3  2 -1</clus>
<clus scale="   33.929">  2  4  1 -1</clus>
<clus scale="  150.677">  2  5  1 -1</clus>
<clus scale="   33.929">  2  3  1 -1</clus>
</clustering>
</event>
<event>
 6    0  0.1631680E+002  0.1557411E+03  0.7546771E-02  0.1193591E+00
         21   -1    0    0  501  502  0.00000000000E+00  0.00000000000E+00  0.21733812325E+03  0.21733812325E+03  0.00000000000E+00 0. -1.
          2   -1    0    0  505    0 -0.00000000000E+00 -0.00000000000E+00 -0.66727896125E+03  0.66727896125E+03  0.00000000000E+00 0.  1.
         21    1    1    2  503  504 -0.54034269457E+02  0.16916381414E+02  0.33962679749E+02  0.66025221330E+02  0.00000000000E+00 0.  1.
         21    1    1    2  504  502 -0.34702762773E+02 -0.26173068876E+00  0.14060742936E+03  0.14482679116E+03  0.00000000000E+00 0. -1.
         21    1    1    2  505  503 -0.50100876416E+02  0.23744425061E+02 -0.32317478211E+02  0.64174098646E+02  0.00000000000E+00 0.  1.
          2    1    1    2  501    0  0.13883790865E+03 -0.40399075785E+02 -0.59219346890E+03  0.60959097336E+03  0.00000000000E+00 0.  1.
<scales pt_clust_3="59.17281" pt_clust_4="34.70375" pt_clust_5="59.17281" pt_clust_6="140.72518"></scales>
<clustering>
<clus scale="   34.704">  1  4  2 -1</clus>
<clus scale="   59.173">  3  5 -1 -1</clus>
<clus scale="  140.725">  2  6  1 -1</clus>
<clus scale="   34.704">  1  3  2 -1</clus>
</clustering>
</event>
<event>
 6    0  0.1631680E+002  0.8869121E+02  0.7546771E-02  0.1306052E+00
          2   -1    0    0  504    0 -0.00000000000E+00  0.00000000000E+00  0.28801722941E+04  0.28801722941E+04  0.00000000000E+00 0.  1.
         21   -1    0    0  503  502  0.00000000000E+00 -0.00000000000E+00 -0.25999078934E+03  0.25999078934E+03  0.00000000000E+00 0. -1.
         21    1    1    2  503  501  0.68676111692E+02 -0.42952525811E+02 -0.18941242465E+03  0.20600581157E+03  0.00000000000E+00 0. -1.
         21    1    1    2  504  505  0.84154362247E+01  0.64372157006E+02  0.21021025482E+03  0.22000669398E+03  0.00000000000E+00 0. -1.
         21    1    1    2  505  502 -0.14789294247E+03  0.12109806545E+02  0.40157548017E+02  0.15372572494E+03  0.00000000000E+00 0. -1.
          2    1    1    2  501    0  0.70801394553E+02 -0.33529437741E+02  0.25592261265E+04  0.25604248529E+04  0.00000000000E+00 0.  1.
<scales pt_clust_3="80.91818" pt_clust_4="64.91991" pt_clust_5="88.69121" pt_clust_6="14000.00000"></scales>
<clustering>
<clus scale="   64.920">  1  4  2 -1</clus>
<clus scale="   80.918">  2  3  1 -1</clus>
<clus scale="   88.691">  2  5  1 -1</clus>
<clus scale="   80.918">  2  3  1 -1</clus>
</clustering>
</event>
<event>
 6    0  0.1631680E+002  0.1015970E+03  0.7546771E-02  0.1276973E+00
          4   -1    0    0  504    0 -0.00000000000E+00  0.00000000000E+00  0.58981889458E+03  0.58981889458E+03  0.00000000000E+00 0. -1.
         21   -1    0    0  503  502  0.00000000000E+00 -0.00000000000E+00 -0.58051888547E+03  0.58051888547E+03  0.00000000000E+00 0.  1.
         21    1    1    2  503  505  0.33021004166E+02 -0.19776708964E+02 -0.40029803034E+03  0.40214427514E+03  0.00000000000E+00 0.  1.
         21    1    1    2  504  502  0.54214973373E+02 -0.11571781162E+02  0.20186656569E+03  0.20934010557E+03  0.00000000000E+00 0. -1.
         21    1    1    2  505  501  0.66336173271E+02  0.43551596630E+02 -0.14981273615E+03  0.16953195972E+03  0.00000000000E+00 0.  1.
          4    1    1    2  501    0 -0.15357215081E+03 -0.12203106504E+02  0.35754420991E+03  0.38932143962E+03  0.00000000000E+00 0. -1.
<scales pt_clust_3="38.49032" pt_clust_4="56.19585" pt_clust_5="14000.00000" pt_clust_6="101.59702"></scales>
<clustering>
<clus scale="   38.490">  2  3  1 -1</clus>
<clus scale="   56.196">  1  4  2 -1</clus>
<clus scale="  101.597">  1  6  2 -1</clus>
<clus scale="   38.490">  2  3  1 -1</clus>
</clustering>
</event>
<event>
 6    0  0.1631680E+002  0.1552945E+03  0.7546771E-02  0.1194114E+00
         21   -1    0    0  501  502  0.00000000000E+00  0.00000000000E+00  0.31376824292E+03  0.31376824292E+03  0.00000000000E+00 0. -1.
          2   -1    0    0  505    0 -0.00000000000E+00 -0.00000000000E+00 -0.15570770836E+04  0.15570770836E+04  0.00000000000E+00 0. -1.
         21    1    1    2  503  502  0.63695649020E+02  0.21854443689E+02  0.10106830297E+03  0.12144774299E+03  0.00000000000E+00 0.  1.
         21    1    1    2  504  503 -0.14437505668E+03 -0.15412185574E+03  0.13455268354E+03  0.25040392979E+03  0.00000000000E+00 0. -1.
         21    1    1    2  505  504  0.95008993503E+02 -0.12577846839E+02 -0.70640892674E+03  0.71288041273E+03  0.00000000000E+00 0.  1.
          2    1    1    2  501    0 -0.14329585839E+02  0.14484525889E+03 -0.77252090050E+03  0.78611324105E+03  0.00000000000E+00 0. -1.
<scales pt_clust_3="67.34057" pt_clust_4="155.29455" pt_clust_5="96.80224" pt_clust_6="14000.00000"></scales>
<clustering>
<clus scale="   67.341">  1  3  2 -1</clus>
<clus scale="   96.802">  2  5  1 -1</clus>
<clus scale="  155.295">  1  4  2 -1</clus>
<clus scale="   67.341">  1  3  2 -1</clus>
</clustering>
</event>
<event>
 6    0  0.1631680E+002  0.1006105E+03  0.7546771E-02  0.1279017E+00
          1   -1    0    0  505    0 -0.00000000000E+00  0.00000000000E+00  0.55216477414E+03  0.55216477414E+03  0.00000000000E+00 0. -1.
         21   -1    0    0  501  502  0.00000000000E+00 -0.00000000000E+00 -0.31400501120E+03  0.31400501120E+03  0.00000000000E+00 0.  1.
         21    1    1    2  503  502  0.70165316351E+02  0.33601336337E+02 -0.24445246997E+03  0.25653310020E+03  0.00000000000E+00 0.  1.
         21    1    1    2  504  503 -0.71928079005E+02 -0.53258249134E+02  0.47834860595E+01  0.89626845248E+02  0.00000000000E+00 0.  1.
         21    1    1    2  505  504 -0.12458314866E+02 -0.91588330926E+02  0.23539475507E+03  0.25289191898E+03  0.00000000000E+00 0.  1.
          1    1    1    2  501    0  0.14221077521E+02  0.11124524372E+03  0.24243399179E+03  0.26711792091E+03  0.00000000000E+00 0. -1.
<scales pt_clust_3="77.79602" pt_clust_4="39.72020" pt_clust_5="14000.00000" pt_clust_6="100.61051"></scales>
<clustering>
<clus scale="   77.796">  2  3  1 -1</clus>
<clus scale="   39.720">  2  4  1 -1</clus>
<clus scale="  100.611">  2  6  1 -1</clus>
<clus scale="   77.796">  2  3  1 -1</clus>
</clustering>
</event>
<event>
 6    0  0.1631680E+002  0.1365839E+03  0.7546771E-02  0.1218001E+00
          2   -1    0    0  504    0 -0.00000000000E+00  0.00000000000E+00  0.11523299365E+04  0.11523299365E+04  0.00000000000E+00 0. -1.
         21   -1    0    0  503  502  0.00000000000E+00 -0.00000000000E+00 -0.63594899986E+02  0.63594899986E+02  0.00000000000E+00 0. -1.
         21    1    1    2  503  501 -0.84231168675E+02  0.37197242107E+02  0.69012996621E+02  0.11507092725E+03  0.00000000000E+00 0. -1.
         21    1    1    2  504  505  0.46141160246E+02 -0.32813029671E+02  0.16099159028E+03  0.17065753346E+03  0.00000000000E+00 0.  1.
         21    1    1    2  505  502  0.18167214191E+02 -0.15139954904E+03  0.18219800089E+03  0.23758784197E+03  0.00000000000E+00 0. -1.
          2    1    1    2  501    0  0.19922794238E+02  0.14701533661E+03  0.67653244870E+03  0.69260853378E+03  0.00000000000E+00 0. -1.
<scales pt_clust_3="86.91052" pt_clust_4="56.61892" pt_clust_5="136.58390" pt_clust_6="14000.00000"></scales>
<clustering>
<clus scale="   56.619">  1  4  2 -1</clus>
<clus scale="   86.911">  2  3  1 -1</clus>
<clus scale="  136.584">  2  5  1 -1</clus>
<clus scale="   86.911">  2  3  1 -1</clus>
</clustering>
</event>
<event>
 6    0  0.1631680E+002  0.7300130E+02  0.7546771E-02  0.1350174E+00
         21   -1    0    0  504  502  0.00000000000E+00  0.00000000000E+00  0.58683533939E+03  0.58683533939E+03  0.00000000000E+00 0. -1.
          2   -1    0    0  503    0 -0.00000000000E+00 -0.00000000000E+00 -0.23550484008E+04  0.23550484008E+04  0.00000000000E+00 0. -1.
         21    1    1    2  503  502  0.29989896237E+02 -0.37835593157E+02  0.46514408668E+03  0.46764296997E+03  0.00000000000E+00 0. -1.
         21    1    1    2  504  505 -0.85190844757E+02 -0.13968064939E+02  0.94904635797E+02  0.12829449234E+03  0.00000000000E+00 0. -1.
         21    1    1    2  505  501  0.73711160032E+02 -0.16671780745E+02 -0.16457678147E+03  0.18109886909E+03  0.00000000000E+00 0. -1.
          2    1    1    2  501    0 -0.18510211513E+02  0.68475438842E+02 -0.21636850024E+04  0.21648474088E+04  0.00000000000E+00 0. -1.
<scales pt_clust_3="48.27966" pt_clust_4="73.00130" pt_clust_5="14000.00000" pt_clust_6="70.71921"></scales>
<clustering>
<clus scale="   48.280">  1  3  2 -1</clus>
<clus scale="   70.719">  2  6  1 -1</clus>
<clus scale="   73.001">  1  4  2 -1</clus>
<clus scale="   48.280">  1  3  2 -1</clus>
</clustering>
</event>
<event>
 6    0  0.1631680E+002  0.8181112E+02  0.7546771E-02  0.1323989E+00
          2   -1    0    0  505    0 -0.00000000000E+00  0.00000000000E+00  0.16414524242E+04  0.16414524242E+04  0.00000000000E+00 0. -1.
         21   -1    0    0  503  502  0.00000000000E+00 -0.00000000000E+00 -0.44912701791E+02  0.44912701791E+02  0.00000000000E+00 0.  1.
         21    1    1    2  503  504  0.84578677872E+02 -0.15448141875E+02  0.36713042947E+02  0.93488209740E+02  0.00000000000E+00 0. -1.
         21    1    1    2  504  501 -0.76107170751E+02 -0.37001775384E+02  0.11925176953E+03  0.14622727980E+03  0.00000000000E+00 0.  1.
         21    1    1    2  505  502  0.40319753232E+02  0.15698426470E+02  0.20260429271E+03  0.20717292902E+03  0.00000000000E+00 0.  1.
          2    1    1    2  501    0 -0.48791260353E+02  0.36751490788E+02  0.12379706173E+04  0.12394767075E+04  0.00000000000E+00 0. -1.
<scales pt_clust_3="81.81112" pt_clust_4="14000.00000" pt_clust_5="43.26804" pt_clust_6="52.20689"></scales>
<clustering>
<clus scale="   43.268">  1  5  2 -1</clus>
<clus scale="   52.207">  1  6  2 -1</clus>
<clus scale="   81.811">  2  3  1 -1</clus>
<clus scale="   81.811">  2  3  1 -1</clus>
</clustering>
</event>
<event>
 6    0  0.1631680E+002  0.7760570E+02  0.7546771E-02  0.1335987E+00
         21   -1    0    0  504  502  0.00000000000E+00  0.00000000000E+00  0.53293761291E+02  0.53293761291E+02  0.00000000000E+00 0. -1.
          2   -1    0    0  503    0 -0.00000000000E+00 -0.00000000000E+00 -0.79767703147E+03  0.79767703147E+03  0.00000000000E+00 0. -1.
         21    1    1    2  503  505  0.10229841520E+02  0.51461131630E+02 -0.32210034464E+03  0.32634572120E+03  0.00000000000E+00 0. -1.
         21    1    1    2  504  501 -0.59632747091E+02 -0.23892223891E+02 -0.96745930576E+02  0.11613215735E+03  0.00000000000E+00 0. -1.
         21    1    1    2  505  502  0.77019060191E+02  0.31783875229E+02 -0.73517003792E+01  0.83643277409E+02  0.00000000000E+00 0. -1.
          2    1    1    2  501    0 -0.27616154620E+02 -0.59352782968E+02 -0.31818529458E+03  0.32484963680E+03  0.00000000000E+00 0. -1.
<scales pt_clust_3="52.46806" pt_clust_4="77.60570" pt_clust_5="14000.00000" pt_clust_6="31.98237"></scales>
<clustering>
<clus scale="   52.468">  2  3  1 -1</clus>
<clus scale="   31.982">  2  6  1 -1</clus>
<clus scale="   77.606">  2  4  1 -1</clus>
<clus scale="   77.606">  1  3  2 -1</clus>
</clustering>
</event>
<event>
 6    0  0.1631680E+002  0.1647026E+03  0.7546771E-02  0.1183488E+00
         21   -1    0    0  504  502  0.00000000000E+00  0.00000000000E+00  0.46132119523E+03  0.46132119523E+03  0.00000000000E+00 0.  1.
          1   -1    0    0  503    0 -0.00000000000E+00 -0.00000000000E+00 -0.14374027138E+04  0.14374027138E+04  0.00000000000E+00 0. -1.
         21    1    1    2  503  502  0.38961734958E+02  0.58536514111E+02 -0.37013422766E+03  0.37675441173E+03  0.00000000000E+00 0. -1.
         21    1    1    2  504  505 -0.77582011860E+02  0.15754630219E+02  0.23896779438E+03  0.25173951555E+03  0.00000000000E+00 0.  1.
         21    1    1    2  505  501 -0.36057257395E+02  0.10741842352E+03  0.18761511737E+03  0.21917635773E+03  0.00000000000E+00 0.  1.
          1    1    1    2  501    0  0.74677534297E+02 -0.18170956785E+03 -0.10325302026E+04  0.10510536240E+04  0.00000000000E+00 0. -1.
<scales pt_clust_3="70.31743" pt_clust_4="79.00722" pt_clust_5="14000.00000" pt_clust_6="164.70258"></scales>
<clustering>
<clus scale="   70.317">  2  3  1 -1</clus>
<clus scale="   79.007">  1  4  2 -1</clus>
<clus scale="  164.703">  2  6  1 -1</clus>
<clus scale="   79.007">  1  3  2 -1</clus>
</clustering>
</event>
<event>
 6    0  0.1631680E+002  0.6738776E+02  0.7546771E-02  0.1369208E+00
         -3   -1    0    0    0  501 -0.00000000000E+00  0.00000000000E+00  0.13575459152E+04  0.13575459152E+04  0.00000000000E+00 0.  1.
         21   -1    0    0  505  502  0.00000000000E+00 -0.00000000000E+00 -0.46629124531E+02  0.46629124531E+02  0.00000000000E+00 0. -1.
         21    1    1    2  503  502 -0.28556937864E+02  0.69443831773E+02  0.46072809202E+01  0.75227465124E+02  0.00000000000E+00 0. -1.
         21    1    1    2  504  503 -0.16111694235E+02 -0.54525038832E+02  0.98700031087E+02  0.11390462101E+03  0.00000000000E+00 0. -1.
         21    1    1    2  505  501 -0.36434726573E+02 -0.22537797883E+02  0.22359250757E+03  0.22765994614E+03  0.00000000000E+00 0.  1.
         -3    1    1    2    0  504  0.81103358672E+02  0.76190049416E+01  0.98401697107E+03  0.98738300744E+03  0.00000000000E+00 0.  1.
<scales pt_clust_3="14000.00000" pt_clust_4="67.38776" pt_clust_5="42.84205" pt_clust_6="50.81426"></scales>
<clustering>
<clus scale="   42.842">  1  5  2 -1</clus>
<clus scale="   50.814">  1  6  2 -1</clus>
<clus scale="   67.388">  1  4  2 -1</clus>
<clus scale="   67.388">  2  3  1 -1</clus>
</clustering>
</event>
<event>
 6    0  0.1631680E+002  0.8555886E+02  0.7546771E-02  0.1313977E+00
          2   -1    0    0  503    0 -0.00000000000E+00  0.00000000000E+00  0.29359990476E+04  0.29359990476E+04  0.00000000000E+00 0.  1.
         21   -1    0    0  505  502  0.00000000000E+00 -0.00000000000E+00 -0.25248269674E+03  0.25248269674E+03  0.00000000000E+00 0. -1.
         21    1    1    2  503  504  0.13858378902E+02 -0.27219040594E+02  0.13532688896E+03  0.13873102649E+03  0.00000000000E+00 0. -1.
         21    1    1    2  504  502 -0.60045145803E+02 -0.43784972722E+02 -0.12024708589E+03  0.14135736640E+03  0.00000000000E+00 0. -1.
         21    1    1    2  505  501  0.82844277130E+02  0.82076409999E+02 -0.91476342287E+02  0.14821481886E+03  0.00000000000E+00 0. -1.
          2    1    1    2  501    0 -0.36657510228E+02 -0.11072396683E+02  0.27599128901E+04  0.27601785326E+04  0.00000000000E+00 0.  1.
<scales pt_clust_3="30.54392" pt_clust_4="85.55886" pt_clust_5="14000.00000" pt_clust_6="44.33976"></scales>
<clustering>
<clus scale="   30.544">  1  3  2 -1</clus>
<clus scale="   44.340">  1  6  2 -1</clus>
<clus scale="   85.559">  2  4  1 -1</clus>
<clus scale="   85.559">  2  3  1 -1</clus>
</clustering>
</event>
<event>
 6    0  0.1631680E+002  0.1424845E+03  0.7546771E-02  0.1210025E+00
         21   -1    0    0  504  502  0.00000000000E+00  0.00000000000E+00  0.58774599794E+03  0.58774599794E+03  0.00000000000E+00 0. -1.
          3   -1    0    0  505    0 -0.00000000000E+00 -0.00000000000E+00 -0.58642686389E+03  0.58642686389E+03  0.00000000000E+00 0.  1.
         21    1    1    2  503  502 -0.36338803791E+02  0.80839337813E+01  0.47563822839E+03  0.47709284521E+03  0.00000000000E+00 0. -1.
         21    1    1    2  504  501 -0.82344930104E+02 -0.13206654303E+03 -0.50157363465E+02  0.16351764556E+03  0.00000000000E+00 0.  1.
         21    1    1    2  505  503  0.89874286177E+02 -0.14448591901E+02 -0.49680377900E+01  0.91163756632E+02  0.00000000000E+00 0.  1.
          3    1    1    2  501    0  0.28809447718E+02  0.13843120115E+03 -0.41919369308E+03  0.44239861443E+03  0.00000000000E+00 0.  1.
<scales pt_clust_3="37.22712" pt_clust_4="14000.00000" pt_clust_5="76.65379" pt_clust_6="142.48446"></scales>
<clustering>
<clus scale="   37.227">  1  3  2 -1</clus>
<clus scale="   76.654">  1  5  2 -1</clus>
<clus scale="  142.484">  2  6  1 -1</clus>
<clus scale="   37.227">  1  3  2 -1</clus>
</clustering>
</event>
<event>
 6    0  0.1631680E+002  0.1069713E+03  0.7546771E-02  0.1266284E+00
          2   -1    0    0  505    0 -0.00000000000E+00  0.00000000000E+00  0.27692163876E+04  0.27692163876E+04  0.00000000000E+00 0. -1.
         21   -1    0    0  504  502  0.00000000000E+00 -0.00000000000E+00 -0.25704687184E+02  0.25704687184E+02  0.00000000000E+00 0.  1.
         21    1    1    2  503  502 -0.64306090888E+02 -0.25794731106E+02  0.39418815559E+03  0.40023111259E+03  0.00000000000E+00 0. -1.
         21    1    1    2  504  501  0.88036715562E+02  0.68466531271E+02  0.13206901319E+03  0.17285934582E+03  0.00000000000E+00 0.  1.
         21    1    1    2  505  503  0.25490994286E+02  0.25574076511E+02  0.13547967098E+04  0.13552778125E+04  0.00000000000E+00 0. -1.
          2    1    1    2  501    0 -0.49221618960E+02 -0.68245876676E+02  0.86245782182E+03  0.86655280386E+03  0.00000000000E+00 0. -1.
<scales pt_clust_3="60.10064" pt_clust_4="106.97132" pt_clust_5="36.10851" pt_clust_6="14000.00000"></scales>
<clustering>
<clus scale="   36.109">  1  5  2 -1</clus>
<clus scale="   60.101">  1  3  2 -1</clus>
<clus scale="  106.971">  2  4  1 -1</clus>
<clus scale="  106.971">  2  3  1 -1</clus>
</clustering>
</event>
<event>
 6    0  0.1631680E+002  0.8624473E+02  0.7546771E-02  0.1312209E+00
          2   -1    0    0  505    0 -0.00000000000E+00  0.00000000000E+00  0.21645571015E+04  0.21645571015E+04  0.00000000000E+00 0. -1.
         21   -1    0    0  504  502  0.00000000000E+00 -0.00000000000E+00 -0.10691230629E+03  0.10691230629E+03  0.00000000000E+00 0. -1.
         21    1    1    2  503  502 -0.13759040693E+02 -0.34347085578E+02 -0.85239991419E+02  0.92924106805E+02  0.00000000000E+00 0. -1.
         21    1    1    2  504  501  0.20537893694E+02  0.57077238542E+02  0.20063960495E+03  0.20960884359E+03  0.00000000000E+00 0. -1.
         21    1    1    2  505  503 -0.41738187853E+02  0.57641312449E+02  0.90553813004E+02  0.11517200300E+03  0.00000000000E+00 0. -1.
          2    1    1    2  501    0  0.34959334852E+02 -0.80371465413E+02  0.18516913686E+04  0.18537644543E+04  0.00000000000E+00 0. -1.
<scales pt_clust_3="37.00045" pt_clust_4="51.36055" pt_clust_5="86.24473" pt_clust_6="14000.00000"></scales>
<clustering>
<clus scale="   37.000">  2  3  1 -1</clus>
<clus scale="   51.361">  2  4  1 -1</clus>
<clus scale="   86.245">  2  5  1 -1</clus>
<clus scale="   37.000">  2  3  1 -1</clus>
</clustering>
</event>
<event>
 6    0  0.1631680E+002  0.7731790E+02  0.7546771E-02  0.1336840E+00
         21   -1    0    0  503  502  0.00000000000E+00  0.00000000000E+00  0.19570142766E+03  0.19570142766E+03  0.00000000000E+00 0.  1.
          1   -1    0    0  505    0 -0.00000000000E+00 -0.00000000000E+00 -0.46342312233E+04  0.46342312233E+04  0.00000000000E+00 0. -1.
         21    1    1    2  503  501  0.36640061560E+02 -0.29475667479E+02 -0.70058334335E+02  0.84377006905E+02  0.00000000000E+00 0.  1.
         21    1    1    2  504  502 -0.69727930307E+02 -0.39794401937E+02  0.17875854533E+03  0.19595968009E+03  0.00000000000E+00 0.  1.
         21    1    1    2  505  504 -0.32633215764E+02 -0.19182099454E+01 -0.23540374075E+04  0.23542643697E+04  0.00000000000E+00 0. -1.
          1    1    1    2  501    0  0.65721084511E+02  0.71188279361E+02 -0.21931925991E+04  0.21953315942E+04  0.00000000000E+00 0. -1.
<scales pt_clust_3="46.21015" pt_clust_4="14000.00000" pt_clust_5="32.68954" pt_clust_6="77.31790"></scales>
<clustering>
<clus scale="   32.690">  2  5  1 -1</clus>
<clus scale="   46.210">  1  3  2 -1</clus>
<clus scale="   77.318">  2  6  1 -1</clus>
<clus scale="   46.210">  1  3  2 -1</clus>
</clustering>
</event>
<event>
 6    0  0.1631680E+002  0.1090003E+03  0.7546771E-02  0.1262432E+00
         21   -1    0    0  503  502  0.00000000000E+00  0.00000000000E+00  0.20082274063E+03  0.20082274063E+03  0.00000000000E+00 0.  1.
          2   -1    0    0  504    0 -0.00000000000E+00 -0.00000000000E+00 -0.10577691216E+04  0.10577691216E+04  0.00000000000E+00 0. -1.
         21    1    1    2  503  501 -0.36813834094E+02  0.91977000987E+02  0.49281500425E+02  0.11065122401E+03  0.00000000000E+00 0.  1.
         21    1    1    2  504  505 -0.28999554134E+02  0.83399479143E+01 -0.46586597353E+02  0.55505314377E+02  0.00000000000E+00 0. -1.
         21    1    1    2  505  502 -0.33752591401E+02 -0.82755038041E+01  0.10897119280E+03  0.11437850432E+03  0.00000000000E+00 0.  1.
          2    1    1    2  501    0  0.99565979630E+02 -0.92041445097E+02 -0.96861247685E+03  0.97805681953E+03  0.00000000000E+00 0. -1.
<scales pt_clust_3="109.00035" pt_clust_4="30.17497" pt_clust_5="34.82262" pt_clust_6="14000.00000"></scales>
<clustering>
<clus scale="   30.175">  2  4  1 -1</clus>
<clus scale="   34.823">  1  5  2 -1</clus>
<clus scale="  109.000">  1  3  2 -1</clus>
<clus scale="   34.823">  1  3  2 -1</clus>
</clustering>
</event>
<event>
 6    0  0.1631680E+002  0.1475774E+03  0.7546771E-02  0.1203482E+00
         -2   -1    0    0    0  501 -0.00000000000E+00  0.00000000000E+00  0.15424924168E+03  0.15424924168E+03  0.00000000000E+00 0. -1.
         21   -1    0    0  503  502  0.00000000000E+00 -0.00000000000E+00 -0.67366337006E+03  0.67366337006E+03  0.00000000000E+00 0. -1.
         21    1    1    2  503  505 -0.57816394359E+02  0.15971076169E+03 -0.44159650118E+03  0.47313606152E+03  0.00000000000E+00 0. -1.
         21    1    1    2  504  502  0.68608319226E+02 -0.10114127527E+03 -0.17040862801E+03  0.20970398073E+03  0.00000000000E+00 0. -1.
         21    1    1    2  505  501  0.30850661658E+02  0.52143397579E+01  0.10306078257E+02  0.32941886905E+02  0.00000000000E+00 0. -1.
         -2    1    1    2    0  504 -0.41642586525E+02 -0.63783826183E+02  0.82284922562E+02  0.11213068258E+03  0.00000000000E+00 0. -1.
<scales pt_clust_3="14000.00000" pt_clust_4="147.57739" pt_clust_5="31.28822" pt_clust_6="62.90946"></scales>
<clustering>
<clus scale="   31.288">  1  5  2 -1</clus>
<clus scale="   62.909">  1  6  2 -1</clus>
<clus scale="  147.577">  1  4  2 -1</clus>
<clus scale="  147.577">  2  3  1 -1</clus>
</clustering>
</event>
<event>
 6    0  0.1905346E+002  0.1130932E+03  0.7546771E-02  0.1254947E+00
          2   -1    0    0  504    0 -0.00000000000E+00  0.00000000000E+00  0.34107572965E+04  0.34107572965E+04  0.00000000000E+00 0.  1.
         21   -1    0    0  503  502  0.00000000000E+00 -0.00000000000E+00 -0.41461495507E+03  0.41461495507E+03  0.00000000000E+00 0. -1.
         21    1    1    2  503  501  0.38526632567E+02 -0.14715436120E+03 -0.37840383708E+03  0.40783350936E+03  0.00000000000E+00 0. -1.
         21    1    1    2  504  505 -0.38891893672E+02  0.21635002843E+02  0.25347335884E+03  0.25735072641E+03  0.00000000000E+00 0. -1.
         21    1    1    2  505  502 -0.26326826512E+02  0.34689994469E+02  0.63295566009E+01  0.44006372234E+02  0.00000000000E+00 0. -1.
          2    1    1    2  501    0  0.26692087617E+02  0.90829363886E+02  0.31147432631E+04  0.31161816436E+04  0.00000000000E+00 0.  1.
<scales pt_clust_3="14000.00000" pt_clust_4="44.69991" pt_clust_5="43.54879" pt_clust_6="113.09320"></scales>
<clustering>
<clus scale="   43.549">  2  5  1 -1</clus>
<clus scale="   44.700">  1  4  2 -1</clus>
<clus scale="  113.093">  1  6  2 -1</clus>
<clus scale="   43.549">  2  3  1 -1</clus>
</clustering>
</event>
<event>
 6    0  0.1631680E+002  0.8396084E+02  0.7546771E-02  0.1318173E+00
         21   -1    0    0  503  502  0.00000000000E+00  0.00000000000E+00  0.39101326434E+03  0.39101326434E+03  0.00000000000E+00 0. -1.
          2   -1    0    0  504    0 -0.00000000000E+00 -0.00000000000E+00 -0.42920829310E+03  0.42920829310E+03  0.00000000000E+00 0.  1.
         21    1    1    2  503  501 -0.13844453236E+00  0.37526516732E+02  0.68074616850E+01  0.38139220751E+02  0.00000000000E+00 0. -1.
         21    1    1    2  504  505 -0.11269402869E+02 -0.31129299647E+02 -0.14046298058E+02  0.35962914602E+02  0.00000000000E+00 0.  1.
         21    1    1    2  505  502 -0.82801532666E+02 -0.42851201579E+02  0.34471672708E+03  0.35710214395E+03  0.00000000000E+00 0. -1.
          2    1    1    2  501    0  0.94209380068E+02  0.36453984495E+02 -0.37567291946E+03  0.38901727814E+03  0.00000000000E+00 0.  1.
<scales pt_clust_3="36.32458" pt_clust_4="33.10639" pt_clust_5="14000.00000" pt_clust_6="83.96084"></scales>
<clustering>
<clus scale="   33.106">  2  4  1 -1</clus>
<clus scale="   36.325">  1  3  2 -1</clus>
<clus scale="   83.961">  2  6  1 -1</clus>
<clus scale="   36.325">  1  3  2 -1</clus>
</clustering>
</event>
<event>
 6    0  0.1631680E+002  0.1543337E+03  0.7546771E-02  0.1195247E+00
         -4   -1    0    0    0  501 -0.00000000000E+00  0.00000000000E+00  0.11660076045E+04  0.11660076045E+04  0.00000000000E+00 0. -1.
         21   -1    0    0  504  502  0.00000000000E+00 -0.00000000000E+00 -0.20268777913E+03  0.20268777913E+03  0.00000000000E+00 0.  1.
         21    1    1    2  503  502  0.10081394463E+03  0.97959626742E+02 -0.69130121327E+02  0.15664773722E+03  0.00000000000E+00 0.  1.
         21    1    1    2  504  505  0.35047891609E+02 -0.12944829023E+02 -0.65260358166E+02  0.75198654594E+02  0.00000000000E+00 0.  1.
         21    1    1    2  505  501  0.74583339153E+00 -0.87763333924E+02  0.11489609681E+03  0.14458240595E+03  0.00000000000E+00 0. -1.
         -4    1    1    2    0  503 -0.13660766963E+03  0.27485362058E+01  0.98281420801E+03  0.99226658582E+03  0.00000000000E+00 0. -1.
<scales pt_clust_3="154.33372" pt_clust_4="37.36206" pt_clust_5="89.33624" pt_clust_6="14000.00000"></scales>
<clustering>
<clus scale="   37.362">  2  4  1 -1</clus>
<clus scale="   89.336">  1  5  2 -1</clus>
<clus scale="  154.334">  2  3  1 -1</clus>
<clus scale="   37.362">  2  3  1 -1</clus>
</clustering>
</event>
<event>
 6    0  0.1631680E+002  0.1162478E+03  0.7546771E-02  0.1249418E+00
         21   -1    0    0  504  502  0.00000000000E+00  0.00000000000E+00  0.70261185445E+03  0.70261185445E+03  0.00000000000E+00 0.  1.
          2   -1    0    0  505    0 -0.00000000000E+00 -0.00000000000E+00 -0.45298084727E+03  0.45298084727E+03  0.00000000000E+00 0. -1.
         21    1    1    2  503  502  0.62438286871E+02 -0.21852856864E+02 -0.10544750087E+03  0.12447996811E+03  0.00000000000E+00 0. -1.
         21    1    1    2  504  501  0.35882956510E+02 -0.36847376041E+02  0.67239584277E+03  0.67436005596E+03  0.00000000000E+00 0.  1.
         21    1    1    2  505  503  0.25427388018E+02  0.19697052386E+02 -0.47581402134E+02  0.57432706389E+02  0.00000000000E+00 0. -1.
          2    1    1    2  501    0 -0.12374863140E+03  0.39003180520E+02 -0.26973593260E+03  0.29931997126E+03  0.00000000000E+00 0. -1.
<scales pt_clust_3="30.78640" pt_clust_4="51.43263" pt_clust_5="30.78640" pt_clust_6="107.53701"></scales>
<clustering>
<clus scale="   30.786">  3  5 -1 -1</clus>
<clus scale="   51.433">  1  4  2 -1</clus>
<clus scale="  107.537">  1  6  2 -1</clus>
<clus scale="   51.433">  1  3  2 -1</clus>
</clustering>
</event>
<event>
 6    0  0.2577327E+002  0.3928370E+03  0.7546771E-02  0.1046289E+00
         21   -1    0    0  501  502  0.00000000000E+00  0.00000000000E+00  0.55441061446E+03  0.55441061446E+03  0.00000000000E+00 0.  1.
          2   -1    0    0  505    0 -0.00000000000E+00 -0.00000000000E+00 -0.25520297081E+04  0.25520297081E+04  0.00000000000E+00 0.  1.
         21    1    1    2  503  504  0.45680700146E+02 -0.36610297211E+02 -0.17512113703E+03  0.18464683280E+03  0.00000000000E+00 0.  1.
         21    1    1    2  504  502 -0.36708898328E+02 -0.10748384572E+02  0.40042829224E+03  0.40225102637E+03  0.00000000000E+00 0.  1.
         21    1    1    2  505  503  0.15873209527E+03 -0.27823504096E+03 -0.21130182824E+04  0.21371609386E+04  0.00000000000E+00 0.  1.
          2    1    1    2  501    0 -0.16770389709E+03  0.32559372274E+03 -0.10990796653E+03  0.38238152478E+03  0.00000000000E+00 0.  1.
<scales pt_clust_3="50.87528" pt_clust_4="38.25011" pt_clust_5="50.87528" pt_clust_6="374.19746"></scales>
<clustering>
<clus scale="   38.250">  1  4  2 -1</clus>
<clus scale="   50.875">  3  5 -1 -1</clus>
<clus scale="  374.197">  1  6  2 -1</clus>
<clus scale="   38.250">  1  3  2 -1</clus>
</clustering>
</event>
<event>
 6    0  0.1631680E+002  0.2312937E+03  0.7546771E-02  0.1125733E+00
         -1   -1    0    0    0  501 -0.00000000000E+00  0.00000000000E+00  0.12012930099E+04  0.12012930099E+04  0.00000000000E+00 0.  1.
         21   -1    0    0  504  502  0.00000000000E+00 -0.00000000000E+00 -0.55374260966E+02  0.55374260966E+02  0.00000000000E+00 0.  1.
         21    1    1    2  503  501 -0.40235736439E+02  0.26903135770E+01  0.17633153790E+03  0.18088383989E+03  0.00000000000E+00 0. -1.
         21    1    1    2  504  503 -0.62764154481E+02 -0.20968163104E+03  0.36567658543E+03  0.42617495306E+03  0.00000000000E+00 0.  1.
         21    1    1    2  505  502  0.39869910443E+02  0.26608423722E+02  0.10863284217E+03  0.11873799884E+03  0.00000000000E+00 0.  1.
         -1    1    1    2    0  505  0.63129980477E+02  0.18038289374E+03  0.49527778343E+03  0.53087047907E+03  0.00000000000E+00 0.  1.
<scales pt_clust_3="40.32558" pt_clust_4="222.86324" pt_clust_5="30.98882" pt_clust_6="30.98882"></scales>
<clustering>
<clus scale="   30.989">  5  6 -1 -1</clus>
<clus scale="   40.326">  1  3  2 -1</clus>
<clus scale="  222.863">  2  4  1 -1</clus>
<clus scale="  222.863">  2  3  1 -1</clus>
</clustering>
</event>
<event>
 6    0  0.1631680E+002  0.1343947E+03  0.7546771E-02  0.1221077E+00
          2   -1    0    0  504    0 -0.00000000000E+00  0.00000000000E+00  0.22328388143E+04  0.22328388143E+04  0.00000000000E+00 0.  1.
         21   -1    0    0  505  502  0.00000000000E+00 -0.00000000000E+00 -0.12296570108E+03  0.12296570108E+03  0.00000000000E+00 0.  1.
         21    1    1    2  503  502  0.58970758267E+02  0.87245747658E+02  0.72856101793E+02  0.12805226426E+03  0.00000000000E+00 0.  1.
         21    1    1    2  504  503  0.32935832793E+02  0.24927392838E+02  0.27886443666E+03  0.28190693150E+03  0.00000000000E+00 0. -1.
         21    1    1    2  505  501 -0.33553854161E+02  0.48145991229E+02 -0.80319412306E+02  0.99474145353E+02  0.00000000000E+00 0.  1.
          2    1    1    2  501    0 -0.58352736899E+02 -0.16031913173E+03  0.18384719871E+04  0.18463711743E+04  0.00000000000E+00 0.  1.
<scales pt_clust_3="14000.00000" pt_clust_4="41.30550" pt_clust_5="58.69302" pt_clust_6="134.39465"></scales>
<clustering>
<clus scale="   41.305">  1  4  2 -1</clus>
<clus scale="   58.693">  2  5  1 -1</clus>
<clus scale="  134.395">  1  6  2 -1</clus>
<clus scale="   58.693">  2  3  1 -1</clus>
</clustering>
</event>
<event>
 6    0  0.1631680E+002  0.8883399E+02  0.7546771E-02  0.1305700E+00
         21   -1    0    0  504  502  0.00000000000E+00  0.00000000000E+00  0.21868979817E+03  0.21868979817E+03  0.00000000000E+00 0. -1.
         -2   -1    0    0    0  501 -0.00000000000E+00 -0.00000000000E+00 -0.46696601825E+03  0.46696601825E+03  0.00000000000E+00 0.  1.
         21    1    1    2  503  502  0.54528162988E+02 -0.89536498513E+02  0.12018926205E+03  0.15948530916E+03  0.00000000000E+00 0. -1.
         21    1    1    2  504  501  0.32475133632E+02  0.94785548323E+02 -0.17541151665E+03  0.20201023402E+03  0.00000000000E+00 0. -1.
         21    1    1    2  505  503 -0.53149872664E+02  0.49777517274E+02  0.39469371949E+02  0.82828385908E+02  0.00000000000E+00 0. -1.
         -2    1    1    2    0  505 -0.33853423956E+02 -0.55026567085E+02 -0.23252333743E+03  0.24133188734E+03  0.00000000000E+00 0.  1.
<scales pt_clust_3="14000.00000" pt_clust_4="49.86710" pt_clust_5="88.83399" pt_clust_6="64.60633"></scales>
<clustering>
<clus scale="   64.606">  2  6  1 -1</clus>
<clus scale="   49.867">  2  4  1 -1</clus>
<clus scale="   88.834">  2  5  1 -1</clus>
<clus scale="   88.834">  1  3  2 -1</clus>
</clustering>
</event>
<event>
 6    0  0.1631680E+002  0.9028876E+02  0.7546771E-02  0.1302154E+00
         21   -1    0    0  504  502  0.00000000000E+00  0.00000000000E+00  0.49247433786E+03  0.49247433786E+03  0.00000000000E+00 0.  1.
          2   -1    0    0  505    0 -0.00000000000E+00 -0.00000000000E+00 -0.25489894360E+04  0.25489894360E+04  0.00000000000E+00 0.  1.
         21    1    1    2  503  502  0.15870295620E+02 -0.96151288675E+02  0.44728776365E+03  0.45778082103E+03  0.00000000000E+00 0.  1.
         21    1    1    2  504  501 -0.61393410210E+01  0.30261996164E+02  0.27276524612E+02  0.41200591196E+02  0.00000000000E+00 0. -1.
         21    1    1    2  505  503 -0.75562332358E+02 -0.62774300558E+01 -0.30579313370E+03  0.31505319045E+03  0.00000000000E+00 0.  1.
          2    1    1    2  501    0  0.65831377759E+02  0.72166722567E+02 -0.22252862527E+04  0.22274291712E+04  0.00000000000E+00 0.  1.
<scales pt_clust_3="66.98763" pt_clust_4="30.87847" pt_clust_5="14000.00000" pt_clust_6="90.28876"></scales>
<clustering>
<clus scale="   30.878">  1  4  2 -1</clus>
<clus scale="   66.988">  1  3  2 -1</clus>
<clus scale="   90.289">  2  6  1 -1</clus>
<clus scale="   30.878">  1  3  2 -1</clus>
</clustering>
</event>
<event>
 6    0  0.1631680E+002  0.8965032E+02  0.7546771E-02  0.1303701E+00
          2   -1    0    0  504    0 -0.00000000000E+00  0.00000000000E+00  0.12944776806E+04  0.12944776806E+04  0.00000000000E+00 0. -1.
         21   -1    0    0  501  502  0.00000000000E+00 -0.00000000000E+00 -0.18015800335E+03  0.18015800335E+03  0.00000000000E+00 0. -1.
         21    1    1    2  503  505  0.10128165562E+03  0.76140528226E+02  0.10241318901E+02  0.12712292640E+03  0.00000000000E+00 0. -1.
         21    1    1    2  504  503 -0.29569114276E+02  0.56561115491E+02  0.25005783961E+03  0.25807443782E+03  0.00000000000E+00 0.  1.
         21    1    1    2  505  502 -0.60201598005E+02 -0.55603863913E+02 -0.10166296326E+03  0.13058093346E+03  0.00000000000E+00 0. -1.
          2    1    1    2  501    0 -0.11510943336E+02 -0.77097779804E+02  0.95568348199E+03  0.95885738628E+03  0.00000000000E+00 0. -1.
<scales pt_clust_3="14000.00000" pt_clust_4="63.82392" pt_clust_5="89.65032" pt_clust_6="46.11776"></scales>
<clustering>
<clus scale="   63.824">  1  4  2 -1</clus>
<clus scale="   46.118">  1  6  2 -1</clus>
<clus scale="   89.650">  2  5  1 -1</clus>
<clus scale="   89.650">  2  3  1 -1</clus>
</clustering>
</event>
<event>
 6    0  0.1631680E+002  0.1050981E+03  0.7546771E-02  0.1269926E+00
         21   -1    0    0  505  502  0.00000000000E+00  0.00000000000E+00  0.82228373755E+03  0.82228373755E+03  0.00000000000E+00 0. -1.
          2   -1    0    0  503    0 -0.00000000000E+00 -0.00000000000E+00 -0.77682785456E+03  0.77682785456E+03  0.00000000000E+00 0. -1.
         21    1    1    2  503  504  0.25869840501E+02  0.66024761260E+02 -0.77148471033E+02  0.10478742448E+03  0.00000000000E+00 0. -1.
         21    1    1    2  504  502 -0.28953263320E+02 -0.90189617323E+02  0.48367048209E+03  0.49285859410E+03  0.00000000000E+00 0. -1.
         21    1    1    2  505  501  0.87641515809E+02  0.12346530279E+03  0.29552082044E+03  0.33205010405E+03  0.00000000000E+00 0. -1.
          2    1    1    2  501    0 -0.84558092989E+02 -0.99300446728E+02 -0.65658694852E+03  0.66941546948E+03  0.00000000000E+00 0. -1.
<scales pt_clust_3="70.91204" pt_clust_4="105.09813" pt_clust_5="14000.00000" pt_clust_6="69.31679"></scales>
<clustering>
<clus scale="   70.912">  2  3  1 -1</clus>
<clus scale="   69.317">  2  6  1 -1</clus>
<clus scale="  105.098">  1  4  2 -1</clus>
<clus scale="  105.098">  1  3  2 -1</clus>
</clustering>
</event>
<event>
 6    0  0.1631680E+002  0.1329902E+03  0.7546771E-02  0.1223085E+00
         21   -1    0    0  504  502  0.00000000000E+00  0.00000000000E+00  0.57203008473E+03  0.57203008473E+03  0.00000000000E+00 0. -1.
          1   -1    0    0  503    0 -0.00000000000E+00 -0.00000000000E+00 -0.54342689285E+03  0.54342689285E+03  0.00000000000E+00 0. -1.
         21    1    1    2  503  505 -0.16086250128E+01  0.35744476010E+02 -0.17634647323E+02  0.39890299897E+02  0.00000000000E+00 0. -1.
         21    1    1    2  504  501 -0.17190702711E+02 -0.10652935061E+03 -0.37106389394E+02  0.11410918865E+03  0.00000000000E+00 0. -1.
         21    1    1    2  505  502 -0.63462889329E+02 -0.29615158477E+02  0.51036416975E+03  0.51514675743E+03  0.00000000000E+00 0. -1.
          1    1    1    2  501    0  0.82262217053E+02  0.10040003308E+03 -0.42701994115E+03  0.44631073160E+03  0.00000000000E+00 0. -1.
<scales pt_clust_3="35.78065" pt_clust_4="14000.00000" pt_clust_5="69.96953" pt_clust_6="132.99021"></scales>
<clustering>
<clus scale="   35.781">  2  3  1 -1</clus>
<clus scale="   69.970">  1  5  2 -1</clus>
<clus scale="  132.990">  2  6  1 -1</clus>
<clus scale="   69.970">  1  3  2 -1</clus>
</clustering>
</event>
<event>
 6    0  0.1631680E+002  0.1462889E+03  0.7546771E-02  0.1205109E+00
          2   -1    0    0  505    0 -0.00000000000E+00  0.00000000000E+00  0.46714537308E+03  0.46714537308E+03  0.00000000000E+00 0.  1.
         21   -1    0    0  503  502  0.00000000000E+00 -0.00000000000E+00 -0.51137715298E+03  0.51137715298E+03  0.00000000000E+00 0. -1.
         21    1    1    2  503  504  0.91288768436E+01  0.58954404843E+02 -0.17969587802E+02  0.62304609209E+02  0.00000000000E+00 0. -1.
         21    1    1    2  504  501  0.68590498730E+02  0.39049932183E+02 -0.18820278360E+02  0.81140351226E+02  0.00000000000E+00 0. -1.
         21    1    1    2  505  502  0.37027515166E+02 -0.26242062346E+02 -0.40890499218E+03  0.41141581805E+03  0.00000000000E+00 0. -1.
          2    1    1    2  501    0 -0.11474689074E+03 -0.71762274680E+02  0.40146307844E+03  0.42366174757E+03  0.00000000000E+00 0.  1.
<scales pt_clust_3="46.18254" pt_clust_4="46.18254" pt_clust_5="45.38373" pt_clust_6="133.50139"></scales>
<clustering>
<clus scale="   45.384">  2  5  1 -1</clus>
<clus scale="   46.183">  3  4 -1 -1</clus>
<clus scale="  133.501">  1  6  2 -1</clus>
<clus scale="   45.384">  2  3  1 -1</clus>
</clustering>
</event>
<event>
 6    0  0.1631680E+002  0.1896979E+03  0.7546771E-02  0.1158734E+00
         21   -1    0    0  505  502  0.00000000000E+00  0.00000000000E+00  0.26580323839E+03  0.26580323839E+03  0.00000000000E+00 0. -1.
          4   -1    0    0  504    0 -0.00000000000E+00 -0.00000000000E+00 -0.30585014335E+03  0.30585014335E+03  0.00000000000E+00 0. -1.
         21    1    1    2  503  502 -0.11262678348E+03 -0.13906673572E+03  0.90642585958E+02  0.20060016882E+03  0.00000000000E+00 0. -1.
         21    1    1    2  504  503 -0.55745487436E+01 -0.39197558276E+02 -0.37142000534E+02  0.54286760561E+02  0.00000000000E+00 0.  1.
         21    1    1    2  505  501 -0.44327277594E+02  0.39462874972E+02  0.33474915675E+02  0.68138065862E+02  0.00000000000E+00 0. -1.
          4    1    1    2  501    0  0.16252860982E+03  0.13880141903E+03 -0.12702240605E+03  0.24862838650E+03  0.00000000000E+00 0. -1.
<scales pt_clust_3="14000.00000" pt_clust_4="39.59197" pt_clust_5="57.93093" pt_clust_6="189.69786"></scales>
<clustering>
<clus scale="   39.592">  2  4  1 -1</clus>
<clus scale="   57.931">  1  5  2 -1</clus>
<clus scale="  189.698">  2  6  1 -1</clus>
<clus scale="   57.931">  1  3  2 -1</clus>
</clustering>
</event>
<event>
 6    0  0.1631680E+002  0.1410544E+03  0.7546771E-02  0.1211917E+00
         21   -1    0    0  503  502  0.00000000000E+00  0.00000000000E+00  0.11268110967E+03  0.11268110967E+03  0.00000000000E+00 0. -1.
          2   -1    0    0  504    0 -0.00000000000E+00 -0.00000000000E+00 -0.12050116301E+04  0.12050116301E+04  0.00000000000E+00 0. -1.
         21    1    1    2  503  501 -0.71873139964E+02 -0.10620017796E+03  0.53660300786E+02  0.13900954617E+03  0.00000000000E+00 0. -1.
         21    1    1    2  504  505  0.37686317539E+02 -0.10600391594E+01 -0.11547131771E+03  0.12147019151E+03  0.00000000000E+00 0. -1.
         21    1    1    2  505  502  0.18888996371E+02 -0.26954817501E+02 -0.21778032666E+02  0.39466936506E+02  0.00000000000E+00 0. -1.
          2    1    1    2  501    0  0.15297826054E+02  0.13421503462E+03 -0.10087414708E+04  0.10177460656E+04  0.00000000000E+00 0. -1.
<scales pt_clust_3="141.05436" pt_clust_4="38.27613" pt_clust_5="32.91438" pt_clust_6="14000.00000"></scales>
<clustering>
<clus scale="   32.914">  1  5  2 -1</clus>
<clus scale="   38.276">  2  4  1 -1</clus>
<clus scale="  141.054">  1  3  2 -1</clus>
<clus scale="   32.914">  1  3  2 -1</clus>
</clustering>
</event>
<event>
 6    0  0.1631680E+002  0.1017023E+03  0.7546771E-02  0.1276756E+00
         21   -1    0    0  505  502  0.00000000000E+00  0.00000000000E+00  0.13057948356E+03  0.13057948356E+03  0.00000000000E+00 0. -1.
          2   -1    0    0  503    0 -0.00000000000E+00 -0.00000000000E+00 -0.14611321107E+04  0.14611321107E+04  0.00000000000E+00 0. -1.
         21    1    1    2  503  504 -0.62383181433E+02 -0.15706646395E+02 -0.83858011070E+03  0.84104397158E+03  0.00000000000E+00 0. -1.
         21    1    1    2  504  502 -0.46999896881E+00  0.36349505831E+02  0.41345222645E+01  0.36586906777E+02  0.00000000000E+00 0. -1.
         21    1    1    2  505  501 -0.79363759513E+02  0.25511748353E+02  0.82010573599E+02  0.11694096720E+03  0.00000000000E+00 0. -1.
          2    1    1    2  501    0  0.14221693991E+03 -0.46154607789E+02 -0.57811761230E+03  0.59713974869E+03  0.00000000000E+00 0. -1.
<scales pt_clust_3="64.23720" pt_clust_4="36.35254" pt_clust_5="101.70231" pt_clust_6="14000.00000"></scales>
<clustering>
<clus scale="   36.353">  1  4  2 -1</clus>
<clus scale="   64.237">  2  3  1 -1</clus>
<clus scale="  101.702">  1  5  2 -1</clus>
<clus scale="   36.353">  1  3  2 -1</clus>
</clustering>
</event>
<event>
 6    0  0.1631680E+002  0.8474848E+02  0.7546771E-02  0.1316092E+00
          2   -1    0    0  503    0 -0.00000000000E+00  0.00000000000E+00  0.47442643241E+03  0.47442643241E+03  0.00000000000E+00 0.  1.
         21   -1    0    0  504  502  0.00000000000E+00 -0.00000000000E+00 -0.32007323760E+03  0.32007323760E+03  0.00000000000E+00 0. -1.
         21    1    1    2  503  502  0.14536491593E+02 -0.52828042226E+02  0.57046316995E+02  0.79097369842E+02  0.00000000000E+00 0.  1.
         21    1    1    2  504  505  0.81568939627E+02  0.26603282167E+02 -0.28927568806E+03  0.30173108928E+03  0.00000000000E+00 0. -1.
         21    1    1    2  505  501 -0.75534900217E+02  0.48128616368E+02  0.14645647283E+03  0.17167231372E+03  0.00000000000E+00 0.  1.
          2    1    1    2  501    0 -0.20570531003E+02 -0.21903856309E+02  0.24012609305E+03  0.24199889716E+03  0.00000000000E+00 0.  1.
<scales pt_clust_3="59.82943" pt_clust_4="14000.00000" pt_clust_5="84.74848" pt_clust_6="30.04872"></scales>
<clustering>
<clus scale="   30.049">  1  6  2 -1</clus>
<clus scale="   59.829">  1  3  2 -1</clus>
<clus scale="   84.748">  1  5  2 -1</clus>
<clus scale="   84.748">  2  3  1 -1</clus>
</clustering>
</event>
<event>
 6    0  0.1631680E+002  0.9853726E+02  0.7546771E-02  0.1283402E+00
         21   -1    0    0  505  502  0.00000000000E+00  0.00000000000E+00  0.21514598727E+04  0.21514598727E+04  0.00000000000E+00 0. -1.
         -1   -1    0    0    0  501 -0.00000000000E+00 -0.00000000000E+00 -0.68743937794E+03  0.68743937794E+03  0.00000000000E+00 0. -1.
         21    1    1    2  503  501  0.20260387252E+02  0.30882663234E+02 -0.55722472553E+02  0.66852196130E+02  0.00000000000E+00 0.  1.
         21    1    1    2  504  502  0.94458893083E+02 -0.13675884533E+02  0.19304745684E+04  0.19328325255E+04  0.00000000000E+00 0. -1.
         21    1    1    2  505  503  0.16059653744E+01  0.35314194732E+02  0.20620534652E+03  0.20921356651E+03  0.00000000000E+00 0. -1.
         -1    1    1    2    0  504 -0.11632524571E+03 -0.52520973433E+02 -0.61693694762E+03  0.63000096252E+03  0.00000000000E+00 0. -1.
<scales pt_clust_3="37.02247" pt_clust_4="14000.00000" pt_clust_5="35.35069" pt_clust_6="98.53726"></scales>
<clustering>
<clus scale="   35.351">  1  5  2 -1</clus>
<clus scale="   37.022">  2  3  1 -1</clus>
<clus scale="   98.537">  2  6  1 -1</clus>
<clus scale="   35.351">  1  3  2 -1</clus>
</clustering>
</event>
<event>
 6    0  0.1631680E+002  0.7868465E+02  0.7546771E-02  0.1332826E+00
          1   -1    0    0  505    0 -0.00000000000E+00  0.00000000000E+00  0.20525131421E+04  0.20525131421E+04  0.00000000000E+00 0. -1.
         21   -1    0    0  504  502  0.00000000000E+00 -0.00000000000E+00 -0.56118006264E+02  0.56118006264E+02  0.00000000000E+00 0.  1.
         21    1    1    2  503  502  0.23259422075E+02 -0.28473822595E+02 -0.40130603695E+02  0.54426323056E+02  0.00000000000E+00 0.  1.
         21    1    1    2  504  501 -0.42277808716E+02 -0.42538463279E+01  0.14398135886E+03  0.15012041839E+03  0.00000000000E+00 0.  1.
         21    1    1    2  505  503  0.69212056220E+01  0.10511384434E+03  0.57991489324E+03  0.58940487507E+03  0.00000000000E+00 0.  1.
          1    1    1    2  501    0  0.12097181019E+02 -0.72386175413E+02  0.13126294874E+04  0.13146795318E+04  0.00000000000E+00 0. -1.
<scales pt_clust_3="36.76628" pt_clust_4="37.00926" pt_clust_5="78.68465" pt_clust_6="14000.00000"></scales>
<clustering>
<clus scale="   36.766">  2  3  1 -1</clus>
<clus scale="   37.009">  2  4  1 -1</clus>
<clus scale="   78.685">  2  5  1 -1</clus>
<clus scale="   36.766">  2  3  1 -1</clus>
</clustering>
</event>
<event>
 6    0  0.1631680E+002  0.7489787E+02  0.7546771E-02  0.1344188E+00
          2   -1    0    0  505    0 -0.00000000000E+00  0.00000000000E+00  0.23559181148E+04  0.23559181148E+04  0.00000000000E+00 0. -1.
         21   -1    0    0  503  502  0.00000000000E+00 -0.00000000000E+00 -0.24632403996E+02  0.24632403996E+02  0.00000000000E+00 0. -1.
         21    1    1    2  503  501 -0.50520102652E+01  0.10000452193E+03  0.13656368234E+03  0.16934009138E+03  0.00000000000E+00 0. -1.
         21    1    1    2  504  502  0.18815868576E+02 -0.30383836291E+02  0.51702559277E+02  0.62851961416E+02  0.00000000000E+00 0. -1.
         21    1    1    2  505  504  0.42422623792E+02 -0.23660018671E+01  0.27299505995E+03  0.27628170357E+03  0.00000000000E+00 0.  1.
          2    1    1    2  501    0 -0.56186482103E+02 -0.67254683773E+02  0.18700244093E+04  0.18720767625E+04  0.00000000000E+00 0. -1.
<scales pt_clust_3="14000.00000" pt_clust_4="35.73814" pt_clust_5="44.32640" pt_clust_6="74.89787"></scales>
<clustering>
<clus scale="   35.738">  2  4  1 -1</clus>
<clus scale="   44.326">  1  5  2 -1</clus>
<clus scale="   74.898">  1  6  2 -1</clus>
<clus scale="   35.738">  2  3  1 -1</clus>
</clustering>
</event>
<event>
 6    0  0.1631680E+002  0.7657729E+02  0.7546771E-02  0.1339055E+00
          2   -1    0    0  505    0 -0.00000000000E+00  0.00000000000E+00  0.13414606412E+04  0.13414606412E+04  0.00000000000E+00 0. -1.
         21   -1    0    0  501  502  0.00000000000E+00 -0.00000000000E+00 -0.60735453586E+02  0.60735453586E+02  0.00000000000E+00 0. -1.
         21    1    1    2  503  502 -0.82461774714E+02  0.44698819205E+01  0.20397618000E+02  0.85064604587E+02  0.00000000000E+00 0. -1.
         21    1    1    2  504  503  0.67097372257E+02  0.36210123199E+02  0.31484627879E+02  0.82489467077E+02  0.00000000000E+00 0. -1.
         21    1    1    2  505  504  0.29015934858E+02  0.18707889095E+02  0.14368374469E+03  0.14777323194E+03  0.00000000000E+00 0. -1.
          2    1    1    2  501    0 -0.13651532400E+02 -0.59387894215E+02  0.10851591970E+04  0.10868687912E+04  0.00000000000E+00 0. -1.
<scales pt_clust_3="14000.00000" pt_clust_4="76.57729" pt_clust_5="34.52404" pt_clust_6="44.25847"></scales>
<clustering>
<clus scale="   34.524">  1  5  2 -1</clus>
<clus scale="   44.258">  1  6  2 -1</clus>
<clus scale="   76.577">  1  4  2 -1</clus>
<clus scale="   76.577">  2  3  1 -1</clus>
</clustering>
</event>
<event>
 6    0  0.1631680E+002  0.7235213E+02  0.7546771E-02  0.1352272E+00
          2   -1    0    0  505    0 -0.00000000000E+00  0.00000000000E+00  0.47652526491E+03  0.47652526491E+03  0.00000000000E+00 0.  1.
         21   -1    0    0  504  502  0.00000000000E+00 -0.00000000000E+00 -0.12291999062E+03  0.12291999062E+03  0.00000000000E+00 0. -1.
         21    1    1    2  503  501 -0.13271249572E+02 -0.71364650888E+02  0.27870224924E+02  0.77754671235E+02  0.00000000000E+00 0. -1.
         21    1    1    2  504  503 -0.36384052134E+02  0.39146097780E+02 -0.61349851243E+02  0.81363508213E+02  0.00000000000E+00 0. -1.
         21    1    1    2  505  502 -0.45056696302E+02 -0.11254848396E+02  0.30267651672E+03  0.30621863312E+03  0.00000000000E+00 0. -1.
          2    1    1    2  501    0  0.94711998009E+02  0.43473401505E+02  0.84408383885E+02  0.13410844297E+03  0.00000000000E+00 0.  1.
<scales pt_clust_3="72.35213" pt_clust_4="54.79902" pt_clust_5="46.44112" pt_clust_6="14000.00000"></scales>
<clustering>
<clus scale="   46.441">  1  5  2 -1</clus>
<clus scale="   54.799">  2  4  1 -1</clus>
<clus scale="   72.352">  2  3  1 -1</clus>
<clus scale="   54.799">  2  3  1 -1</clus>
</clustering>
</event>
<event>
 6    0  0.1631680E+002  0.8637808E+02  0.7546771E-02  0.1311868E+00
         21   -1    0    0  501  502  0.00000000000E+00  0.00000000000E+00  0.68116893656E+02  0.68116893656E+02  0.00000000000E+00 0.  1.
          2   -1    0    0  505    0 -0.00000000000E+00 -0.00000000000E+00 -0.89448791159E+03  0.89448791159E+03  0.00000000000E+00 0.  1.
         21    1    1    2  503  504 -0.42175511167E+01 -0.52385945730E+02 -0.96323427393E+01  0.53430862561E+02  0.00000000000E+00 0.  1.
         21    1    1    2  504  502 -0.48420288509E+02  0.31599569987E+01  0.18615448767E+02  0.51971574927E+02  0.00000000000E+00 0.  1.
         21    1    1    2  505  503 -0.66080542460E+02  0.94187109539E+01 -0.26673682965E+03  0.27496160914E+03  0.00000000000E+00 0.  1.
          2    1    1    2  501    0  0.11871838209E+03  0.39807277777E+02 -0.56861729431E+03  0.58224075862E+03  0.00000000000E+00 0.  1.
<scales pt_clust_3="62.14307" pt_clust_4="48.52329" pt_clust_5="14000.00000" pt_clust_6="86.37808"></scales>
<clustering>
<clus scale="   48.523">  1  4  2 -1</clus>
<clus scale="   62.143">  1  3  2 -1</clus>
<clus scale="   86.378">  1  6  2 -1</clus>
<clus scale="   48.523">  1  3  2 -1</clus>
</clustering>
</event>
<event>
 6    0  0.1631680E+002  0.9717351E+02  0.7546771E-02  0.1286354E+00
          2   -1    0    0  504    0 -0.00000000000E+00  0.00000000000E+00  0.31936164568E+03  0.31936164568E+03  0.00000000000E+00 0. -1.
         21   -1    0    0  505  502  0.00000000000E+00 -0.00000000000E+00 -0.43684931476E+03  0.43684931476E+03  0.00000000000E+00 0.  1.
         21    1    1    2  503  502 -0.32650434944E+02 -0.25660114999E+02 -0.28757867197E+03  0.29056149948E+03  0.00000000000E+00 0.  1.
         21    1    1    2  504  503 -0.24182464019E+02 -0.18282028265E+02  0.21380300338E+02  0.37096379420E+02  0.00000000000E+00 0.  1.
         21    1    1    2  505  501  0.62860392740E+02 -0.67769095739E+02 -0.11178432104E+03  0.14505107288E+03  0.00000000000E+00 0.  1.
          2    1    1    2  501    0 -0.60274937768E+01  0.11171123900E+03  0.26049502359E+03  0.28350200866E+03  0.00000000000E+00 0. -1.
<scales pt_clust_3="41.68282" pt_clust_4="30.31541" pt_clust_5="14000.00000" pt_clust_6="97.17351"></scales>
<clustering>
<clus scale="   30.315">  1  4  2 -1</clus>
<clus scale="   41.683">  2  3  1 -1</clus>
<clus scale="   97.174">  1  6  2 -1</clus>
<clus scale="   41.683">  2  3  1 -1</clus>
</clustering>
</event>
<event>
 6    0  0.1631680E+002  0.6938350E+02  0.7546771E-02  0.1362202E+00
         21   -1    0    0  505  502  0.00000000000E+00  0.00000000000E+00  0.35779360125E+03  0.35779360125E+03  0.00000000000E+00 0.  1.
         -2   -1    0    0    0  501 -0.00000000000E+00 -0.00000000000E+00 -0.37377100078E+03  0.37377100078E+03  0.00000000000E+00 0.  1.
         21    1    1    2  503  501  0.79156834249E+02 -0.38588854878E+02 -0.23861737564E+03  0.25434849338E+03  0.00000000000E+00 0.  1.
         21    1    1    2  504  502 -0.33909132028E+02  0.66404946068E+02  0.21850257810E+03  0.23087404084E+03  0.00000000000E+00 0.  1.
         21    1    1    2  505  503  0.88582719100E+01 -0.38393135918E+02  0.11552417563E+03  0.12205874415E+03  0.00000000000E+00 0.  1.
         -2    1    1    2    0  504 -0.54105974130E+02  0.10577044727E+02 -0.11138677762E+03  0.12428332366E+03  0.00000000000E+00 0.  1.
<scales pt_clust_3="69.38350" pt_clust_4="39.66326" pt_clust_5="39.40180" pt_clust_6="14000.00000"></scales>
<clustering>
<clus scale="   39.402">  1  5  2 -1</clus>
<clus scale="   39.663">  1  4  2 -1</clus>
<clus scale="   69.384">  1  3  2 -1</clus>
<clus scale="   39.402">  1  3  2 -1</clus>
</clustering>
</event>
<event>
 6    0  0.1631680E+002  0.1104870E+03  0.7546771E-02  0.1259671E+00
          1   -1    0    0  504    0 -0.00000000000E+00  0.00000000000E+00  0.43036837299E+03  0.43036837299E+03  0.00000000000E+00 0. -1.
         21   -1    0    0  503  502  0.00000000000E+00 -0.00000000000E+00 -0.17030600458E+03  0.17030600458E+03  0.00000000000E+00 0. -1.
         21    1    1    2  503  501 -0.11168179994E+03  0.72051529903E+02 -0.88870698387E+02  0.15988198282E+03  0.00000000000E+00 0. -1.
         21    1    1    2  504  505  0.10672825768E+03  0.34368346128E+02  0.22885759721E+03  0.25484878654E+03  0.00000000000E+00 0. -1.
         21    1    1    2  505  502  0.24140183067E+01 -0.51648216745E+02 -0.23943396350E+01  0.51760010043E+02  0.00000000000E+00 0. -1.
          1    1    1    2  501    0  0.25395239542E+01 -0.54771659285E+02  0.12246980922E+03  0.13418359815E+03  0.00000000000E+00 0. -1.
<scales pt_clust_3="110.48702" pt_clust_4="14000.00000" pt_clust_5="51.70460" pt_clust_6="56.94480"></scales>
<clustering>
<clus scale="   51.705">  2  5  1 -1</clus>
<clus scale="   56.945">  1  6  2 -1</clus>
<clus scale="  110.487">  2  3  1 -1</clus>
<clus scale="   51.705">  2  3  1 -1</clus>
</clustering>
</event>
<event>
 6    0  0.1631680E+002  0.1455950E+03  0.7546771E-02  0.1205993E+00
         21   -1    0    0  504  502  0.00000000000E+00  0.00000000000E+00  0.13619540936E+03  0.13619540936E+03  0.00000000000E+00 0.  1.
          2   -1    0    0  505    0 -0.00000000000E+00 -0.00000000000E+00 -0.70651317055E+03  0.70651317055E+03  0.00000000000E+00 0.  1.
         21    1    1    2  503  502  0.47711601834E+02  0.90700060676E+01  0.59748874437E+02  0.76997337331E+02  0.00000000000E+00 0.  1.
         21    1    1    2  504  501  0.23806394865E+02 -0.26035600548E+02 -0.30052008343E+02  0.46343501570E+02  0.00000000000E+00 0.  1.
         21    1    1    2  505  503  0.60342979455E+02  0.48977022738E+02  0.23552379799E+02  0.81207995419E+02  0.00000000000E+00 0.  1.
          2    1    1    2  501    0 -0.13186097615E+03 -0.32011428257E+02 -0.62356700709E+03  0.63815974560E+03  0.00000000000E+00 0.  1.
<scales pt_clust_3="48.06697" pt_clust_4="35.27885" pt_clust_5="48.06697" pt_clust_6="134.73429"></scales>
<clustering>
<clus scale="   35.279">  1  4  2 -1</clus>
<clus scale="   48.067">  3  5 -1 -1</clus>
<clus scale="  134.734">  2  6  1 -1</clus>
<clus scale="   35.279">  1  3  2 -1</clus>
</clustering>
</event>
<event>
 6    0  0.1631680E+002  0.1023884E+03  0.7546771E-02  0.1275352E+00
         21   -1    0    0  503  502  0.00000000000E+00  0.00000000000E+00  0.26270890571E+02  0.26270890571E+02  0.00000000000E+00 0. -1.
         -1   -1    0    0    0  501 -0.00000000000E+00 -0.00000000000E+00 -0.31740637190E+04  0.31740637190E+04  0.00000000000E+00 0.  1.
         21    1    1    2  503  504  0.38980570150E+02  0.26953890830E+02 -0.12780443238E+02  0.49084995767E+02  0.00000000000E+00 0. -1.
         21    1    1    2  504  501  0.20843700747E+02  0.73199514749E+02 -0.83071752619E+03  0.83419676165E+03  0.00000000000E+00 0. -1.
         21    1    1    2  505  502  0.34744447563E+02  0.65842210217E+01 -0.72078503305E+02  0.80285984092E+02  0.00000000000E+00 0. -1.
         -1    1    1    2    0  505 -0.94568718460E+02 -0.10673762660E+03 -0.22322163557E+04  0.22367668681E+04  0.00000000000E+00 0.  1.
<scales pt_clust_3="74.78860" pt_clust_4="14000.00000" pt_clust_5="35.36281" pt_clust_6="102.38843"></scales>
<clustering>
<clus scale="   35.363">  1  5  2 -1</clus>
<clus scale="   74.789">  1  3  2 -1</clus>
<clus scale="  102.388">  1  6  2 -1</clus>
<clus scale="   35.363">  1  3  2 -1</clus>
</clustering>
</event>
<event>
 6    0  0.1631680E+002  0.2659893E+03  0.7546771E-02  0.1103597E+00
         21   -1    0    0  505  502  0.00000000000E+00  0.00000000000E+00  0.74947811378E+03  0.74947811378E+03  0.00000000000E+00 0. -1.
          1   -1    0    0  504    0 -0.00000000000E+00 -0.00000000000E+00 -0.18335037930E+03  0.18335037930E+03  0.00000000000E+00 0. -1.
         21    1    1    2  503  501 -0.94288213353E+02 -0.22301096539E+02 -0.16125485639E+02  0.98222387322E+02  0.00000000000E+00 0. -1.
         21    1    1    2  504  502  0.77016786986E+02 -0.97211612882E+02  0.99682484634E+02  0.15911719234E+03  0.00000000000E+00 0. -1.
         21    1    1    2  505  503  0.17666532907E+03  0.20197616177E+02  0.45134329443E+03  0.48510756706E+03  0.00000000000E+00 0. -1.
          1    1    1    2  501    0 -0.15939390270E+03  0.99315093244E+02  0.31227441051E+02  0.19038134635E+03  0.00000000000E+00 0. -1.
<scales pt_clust_3="81.19396" pt_clust_4="124.02291" pt_clust_5="240.77388" pt_clust_6="81.19396"></scales>
<clustering>
<clus scale="   81.194">  3  6 -1 -1</clus>
<clus scale="  124.023">  1  4  2 -1</clus>
<clus scale="  240.774">  1  5  2 -1</clus>
<clus scale="  124.023">  1  3  2 -1</clus>
</clustering>
</event>
<event>
 6    0  0.1631680E+002  0.1085094E+03  0.7546771E-02  0.1263355E+00
         21   -1    0    0  504  502  0.00000000000E+00  0.00000000000E+00  0.45223007446E+02  0.45223007446E+02  0.00000000000E+00 0. -1.
          2   -1    0    0  503    0 -0.00000000000E+00 -0.00000000000E+00 -0.12586191908E+04  0.12586191908E+04  0.00000000000E+00 0.  1.
         21    1    1    2  503  505  0.14890107157E+02 -0.26950776883E+02 -0.27208569028E+03  0.27382235577E+03  0.00000000000E+00 0. -1.
         21    1    1    2  504  501  0.12486637521E+03  0.41238250554E+02 -0.20475143310E+03  0.24334205211E+03  0.00000000000E+00 0. -1.
         21    1    1    2  505  502 -0.26600283901E+02 -0.18362444310E+02  0.82112473324E+01  0.33349348530E+02  0.00000000000E+00 0. -1.
          2    1    1    2  501    0 -0.11315619846E+03  0.40749706386E+01 -0.74477030727E+03  0.75332844180E+03  0.00000000000E+00 0.  1.
<scales pt_clust_3="30.79058" pt_clust_4="14000.00000" pt_clust_5="32.36400" pt_clust_6="108.50938"></scales>
<clustering>
<clus scale="   30.791">  2  3  1 -1</clus>
<clus scale="   32.364">  1  5  2 -1</clus>
<clus scale="  108.509">  2  6  1 -1</clus>
<clus scale="   32.364">  1  3  2 -1</clus>
</clustering>
</event>
<event>
 6    0  0.1631680E+002  0.7002694E+02  0.7546771E-02  0.1360001E+00
          2   -1    0    0  503    0 -0.00000000000E+00  0.00000000000E+00  0.68357657847E+03  0.68357657847E+03  0.00000000000E+00 0. -1.
         21   -1    0    0  505  502  0.00000000000E+00 -0.00000000000E+00 -0.40552382592E+03  0.40552382592E+03  0.00000000000E+00 0.  1.
         21    1    1    2  503  504 -0.10696554855E+02 -0.35779517289E+02  0.35549809189E+02  0.51559471260E+02  0.00000000000E+00 0. -1.
         21    1    1    2  504  502 -0.34427653123E+02  0.18183860166E+02  0.14963600722E+03  0.15461840358E+03  0.00000000000E+00 0. -1.
         21    1    1    2  505  501 -0.69228099784E+02  0.85414006277E+01 -0.38510874132E+03  0.39137479220E+03  0.00000000000E+00 0.  1.
          2    1    1    2  501    0  0.11435230776E+03  0.90542564957E+01  0.47797567747E+03  0.49154773736E+03  0.00000000000E+00 0. -1.
<scales pt_clust_3="37.34421" pt_clust_4="38.21624" pt_clust_5="14000.00000" pt_clust_6="70.02694"></scales>
<clustering>
<clus scale="   37.344">  1  3  2 -1</clus>
<clus scale="   38.216">  1  4  2 -1</clus>
<clus scale="   70.027">  1  6  2 -1</clus>
<clus scale="   70.027">  2  3  1 -1</clus>
</clustering>
</event>
<event>
 6    0  0.1631680E+002  0.1046586E+03  0.7546771E-02  0.1270794E+00
         21   -1    0    0  504  502  0.00000000000E+00  0.00000000000E+00  0.32929418426E+03  0.32929418426E+03  0.00000000000E+00 0.  1.
          1   -1    0    0  505    0 -0.00000000000E+00 -0.00000000000E+00 -0.68765014120E+03  0.68765014120E+03  0.00000000000E+00 0.  1.
         21    1    1    2  503  502  0.39462567713E+02  0.84253098341E+02 -0.17138370364E+03  0.19500834009E+03  0.00000000000E+00 0.  1.
         21    1    1    2  504  501 -0.58540773636E+02  0.13943247423E+01  0.23486133506E+03  0.24205126115E+03  0.00000000000E+00 0.  1.
         21    1    1    2  505  503  0.36288921506E+02  0.17994763190E+01 -0.47481396666E+03  0.47620208618E+03  0.00000000000E+00 0.  1.
          1    1    1    2  501    0 -0.17210715584E+02 -0.87446899402E+02  0.52980378306E+02  0.10368263804E+03  0.00000000000E+00 0.  1.
<scales pt_clust_3="14000.00000" pt_clust_4="57.94334" pt_clust_5="36.33351" pt_clust_6="104.65856"></scales>
<clustering>
<clus scale="   36.334">  2  5  1 -1</clus>
<clus scale="   57.943">  1  4  2 -1</clus>
<clus scale="  104.659">  1  6  2 -1</clus>
<clus scale="   57.943">  1  3  2 -1</clus>
</clustering>
</event>
<event>
 6    0  0.1631680E+002  0.1448133E+03  0.7546771E-02  0.1206995E+00
         21   -1    0    0  503  502  0.00000000000E+00  0.00000000000E+00  0.12206662340E+04  0.12206662340E+04  0.00000000000E+00 0.  1.
          2   -1    0    0  504    0 -0.00000000000E+00 -0.00000000000E+00 -0.10051692666E+04  0.10051692666E+04  0.00000000000E+00 0.  1.
         21    1    1    2  503  501  0.27010830665E+02 -0.58528387415E+02  0.19795766490E+03  0.20818836231E+03  0.00000000000E+00 0.  1.
         21    1    1    2  504  505 -0.29728668628E+02 -0.12270241145E+02 -0.15713637183E+03  0.16039386493E+03  0.00000000000E+00 0.  1.
         21    1    1    2  505  502  0.38961640508E+02 -0.70989559071E+02  0.10079638605E+04  0.10112114868E+04  0.00000000000E+00 0.  1.
          2    1    1    2  501    0 -0.36243802544E+02  0.14178818763E+03 -0.83328818620E+03  0.84604178658E+03  0.00000000000E+00 0.  1.
<scales pt_clust_3="64.45285" pt_clust_4="32.16135" pt_clust_5="144.81330" pt_clust_6="14000.00000"></scales>
<clustering>
<clus scale="   32.161">  2  4  1 -1</clus>
<clus scale="   64.453">  1  3  2 -1</clus>
<clus scale="  144.813">  1  5  2 -1</clus>
<clus scale="   64.453">  1  3  2 -1</clus>
</clustering>
</event>
<event>
 6    0  0.1631680E+002  0.1148882E+03  0.7546771E-02  0.1251776E+00
          1   -1    0    0  504    0 -0.00000000000E+00  0.00000000000E+00  0.22328274235E+04  0.22328274235E+04  0.00000000000E+00 0. -1.
         21   -1    0    0  503  502  0.00000000000E+00 -0.00000000000E+00 -0.12942541830E+02  0.12942541830E+02  0.00000000000E+00 0. -1.
         21    1    1    2  503  501 -0.37586168469E+02  0.41670594856E+01  0.30521483217E+03  0.30754865993E+03  0.00000000000E+00 0. -1.
         21    1    1    2  504  505  0.22214502264E+02 -0.42194746051E+02  0.70793481542E+03  0.70953899370E+03  0.00000000000E+00 0. -1.
         21    1    1    2  505  502  0.79666044239E+02 -0.50705124227E+02  0.28009603260E+03  0.29558666361E+03  0.00000000000E+00 0. -1.
          1    1    1    2  501    0 -0.64294378033E+02  0.88732810792E+02  0.92663920150E+03  0.93309564811E+03  0.00000000000E+00 0. -1.
<scales pt_clust_3="30.66023" pt_clust_4="47.68523" pt_clust_5="102.34939" pt_clust_6="30.66023"></scales>
<clustering>
<clus scale="   30.660">  3  6 -1 -1</clus>
<clus scale="   47.685">  1  4  2 -1</clus>
<clus scale="  102.349">  2  5  1 -1</clus>
<clus scale="  102.349">  2  3  1 -1</clus>
</clustering>
</event>
<event>
 6    0  0.1631680E+002  0.2235108E+03  0.7546771E-02  0.1131292E+00
         -2   -1    0    0    0  501 -0.00000000000E+00  0.00000000000E+00  0.83183969833E+02  0.83183969833E+02  0.00000000000E+00 0. -1.
         21   -1    0    0  505  502  0.00000000000E+00 -0.00000000000E+00 -0.11789329863E+04  0.11789329863E+04  0.00000000000E+00 0. -1.
         21    1    1    2  503  501 -0.30070667400E+02 -0.16775156914E+02  0.17128197776E+01  0.34475856464E+02  0.00000000000E+00 0. -1.
         21    1    1    2  504  503 -0.15686500065E+03 -0.79280297253E+02 -0.67145798082E+03  0.69408055294E+03  0.00000000000E+00 0. -1.
         21    1    1    2  505  504 -0.36260038157E+02  0.16495366311E+02 -0.20734046756E+03  0.21113255781E+03  0.00000000000E+00 0. -1.
         -2    1    1    2    0  502  0.22319570621E+03  0.79560087856E+02 -0.21866338786E+03  0.32242798892E+03  0.00000000000E+00 0. -1.
<scales pt_clust_3="34.43328" pt_clust_4="36.18602" pt_clust_5="36.18602" pt_clust_6="209.93385"></scales>
<clustering>
<clus scale="   34.433">  1  3  2 -1</clus>
<clus scale="   36.186">  4  5 -1 -1</clus>
<clus scale="  209.934">  1  6  2 -1</clus>
<clus scale="  223.511">  2  3  1 -1</clus>
</clustering>
</event>
<event>
 6    0  0.1631680E+002  0.1410000E+03  0.7546771E-02  0.1211990E+00
         21   -1    0    0  503  502  0.00000000000E+00  0.00000000000E+00  0.27320793892E+03  0.27320793892E+03  0.00000000000E+00 0.  1.
          2   -1    0    0  504    0 -0.00000000000E+00 -0.00000000000E+00 -0.57921353960E+03  0.57921353960E+03  0.00000000000E+00 0.  1.
         21    1    1    2  503  501 -0.10746708798E+03  0.10064476293E+03  0.15459728039E+03  0.21349206639E+03  0.00000000000E+00 0.  1.
         21    1    1    2  504  505  0.18278783593E+02 -0.35383150674E+02 -0.37619966831E+03  0.37830182622E+03  0.00000000000E+00 0.  1.
         21    1    1    2  505  502  0.23720518840E+02  0.21230135271E+02  0.67115128102E+02  0.74282044115E+02  0.00000000000E+00 0.  1.
          2    1    1    2  501    0  0.65467785552E+02 -0.86491747526E+02 -0.15151834086E+03  0.18634554181E+03  0.00000000000E+00 0.  1.
<scales pt_clust_3="14000.00000" pt_clust_4="39.78457" pt_clust_5="31.83366" pt_clust_6="141.00000"></scales>
<clustering>
<clus scale="   31.834">  1  5  2 -1</clus>
<clus scale="   39.785">  2  4  1 -1</clus>
<clus scale="  141.000">  2  6  1 -1</clus>
<clus scale="   31.834">  1  3  2 -1</clus>
</clustering>
</event>
<event>
 6    0  0.1631680E+002  0.9678805E+02  0.7546771E-02  0.1287199E+00
         21   -1    0    0  501  502  0.00000000000E+00  0.00000000000E+00  0.18625542450E+03  0.18625542450E+03  0.00000000000E+00 0.  1.
          2   -1    0    0  504    0 -0.00000000000E+00 -0.00000000000E+00 -0.83243503318E+03  0.83243503318E+03  0.00000000000E+00 0. -1.
         21    1    1    2  503  505  0.24679243374E+02 -0.74043921980E+02  0.92009579672E+02  0.12065376160E+03  0.00000000000E+00 0.  1.
         21    1    1    2  504  503  0.10317923573E+02 -0.28511122374E+02 -0.54538766042E+02  0.62400485954E+02  0.00000000000E+00 0. -1.
         21    1    1    2  505  502 -0.22186787911E+02 -0.23481756498E+02  0.66994046736E+02  0.74376399107E+02  0.00000000000E+00 0.  1.
          2    1    1    2  501    0 -0.12810379036E+02  0.12603680085E+03 -0.75064446905E+03  0.76125981103E+03  0.00000000000E+00 0. -1.
<scales pt_clust_3="96.78805" pt_clust_4="30.32068" pt_clust_5="32.37082" pt_clust_6="14000.00000"></scales>
<clustering>
<clus scale="   30.321">  2  4  1 -1</clus>
<clus scale="   32.371">  1  5  2 -1</clus>
<clus scale="   96.788">  1  3  2 -1</clus>
<clus scale="   32.371">  1  3  2 -1</clus>
</clustering>
</event>
<event>
 6    0  0.1631680E+002  0.1451287E+03  0.7546771E-02  0.1206590E+00
         -2   -1    0    0    0  501 -0.00000000000E+00  0.00000000000E+00  0.21058106965E+03  0.21058106965E+03  0.00000000000E+00 0. -1.
         21   -1    0    0  503  502  0.00000000000E+00 -0.00000000000E+00 -0.81731788829E+03  0.81731788829E+03  0.00000000000E+00 0.  1.
         21    1    1    2  503  504  0.42634033157E+02 -0.89477813094E+02 -0.12857925098E+03  0.16234704679E+03  0.00000000000E+00 0.  1.
         21    1    1    2  504  501 -0.53588910452E+02 -0.45016577724E+02  0.50662236740E+01  0.70170721926E+02  0.00000000000E+00 0.  1.
         21    1    1    2  505  502 -0.10778967064E+02  0.18657415370E+03 -0.61992904241E+03  0.64748599876E+03  0.00000000000E+00 0.  1.
         -2    1    1    2    0  505  0.21733844359E+02 -0.52079762886E+02  0.13670525107E+03  0.14789519047E+03  0.00000000000E+00 0. -1.
<scales pt_clust_3="14000.00000" pt_clust_4="84.64548" pt_clust_5="145.12868" pt_clust_6="56.43281"></scales>
<clustering>
<clus scale="   56.433">  1  6  2 -1</clus>
<clus scale="   84.645">  1  4  2 -1</clus>
<clus scale="  145.129">  2  5  1 -1</clus>
<clus scale="  145.129">  2  3  1 -1</clus>
</clustering>
</event>
<event>
 6    0  0.1631680E+002  0.9714955E+02  0.7546771E-02  0.1286407E+00
         21   -1    0    0  503  502  0.00000000000E+00  0.00000000000E+00  0.26764550526E+02  0.26764550526E+02  0.00000000000E+00 0. -1.
          2   -1    0    0  505    0 -0.00000000000E+00 -0.00000000000E+00 -0.17091525478E+04  0.17091525478E+04  0.00000000000E+00 0. -1.
         21    1    1    2  503  504 -0.55274680117E+02  0.84858599398E+02 -0.14482481101E+03  0.17672152681E+03  0.00000000000E+00 0. -1.
         21    1    1    2  504  501  0.26570158003E+02 -0.89554071213E+02 -0.23024931451E+03  0.24847666248E+03  0.00000000000E+00 0. -1.
         21    1    1    2  505  502 -0.31157948057E+02  0.13304220055E+02 -0.44743161750E+03  0.44871246065E+03  0.00000000000E+00 0. -1.
          2    1    1    2  501    0  0.59862470172E+02 -0.86087482404E+01 -0.85988225424E+03  0.86200644838E+03  0.00000000000E+00 0. -1.
<scales pt_clust_3="97.14955" pt_clust_4="14000.00000" pt_clust_5="33.87949" pt_clust_6="38.59374"></scales>
<clustering>
<clus scale="   33.879">  2  5  1 -1</clus>
<clus scale="   38.594">  2  6  1 -1</clus>
<clus scale="   97.150">  1  3  2 -1</clus>
<clus scale="   97.150">  1  3  2 -1</clus>
</clustering>
</event>
<event>
 6    0  0.1631680E+002  0.1293996E+03  0.7546771E-02  0.1228349E+00
         21   -1    0    0  504  502  0.00000000000E+00  0.00000000000E+00  0.11742700530E+03  0.11742700530E+03  0.00000000000E+00 0.  1.
          2   -1    0    0  505    0 -0.00000000000E+00 -0.00000000000E+00 -0.12836874812E+04  0.12836874812E+04  0.00000000000E+00 0. -1.
         21    1    1    2  503  501  0.13286085619E+02 -0.32698791370E+02 -0.13054543955E+03  0.13523255087E+03  0.00000000000E+00 0.  1.
         21    1    1    2  504  503 -0.11062075683E+03  0.31764017938E+01  0.76244624700E+02  0.13438855668E+03  0.00000000000E+00 0.  1.
         21    1    1    2  505  502 -0.28827497419E+02  0.69812176118E+02 -0.34363429177E+03  0.35183702338E+03  0.00000000000E+00 0. -1.
          2    1    1    2  501    0  0.12616216863E+03 -0.40289786541E+02 -0.76832536932E+03  0.77965635560E+03  0.00000000000E+00 0. -1.
<scales pt_clust_3="33.77233" pt_clust_4="111.64419" pt_clust_5="75.52989" pt_clust_6="33.77233"></scales>
<clustering>
<clus scale="   33.772">  3  6 -1 -1</clus>
<clus scale="   75.530">  2  5  1 -1</clus>
<clus scale="  111.644">  1  4  2 -1</clus>
<clus scale="  111.644">  1  3  2 -1</clus>
</clustering>
</event>
<event>
 6    0  0.1631680E+002  0.1544035E+03  0.7546771E-02  0.1195164E+00
         -1   -1    0    0    0  501 -0.00000000000E+00  0.00000000000E+00  0.26961625358E+03  0.26961625358E+03  0.00000000000E+00 0. -1.
         21   -1    0    0  503  502  0.00000000000E+00 -0.00000000000E+00 -0.30901337466E+03  0.30901337466E+03  0.00000000000E+00 0. -1.
         21    1    1    2  503  505  0.69007682470E+02 -0.28039727571E+01 -0.16827897525E+03  0.18190034639E+03  0.00000000000E+00 0. -1.
         21    1    1    2  504  502  0.20198405100E+02 -0.22306574197E+02 -0.23662836232E+02  0.38281701105E+02  0.00000000000E+00 0. -1.
         21    1    1    2  505  501  0.81080228860E+02 -0.85321960219E+02  0.30389204139E+02  0.12156209992E+03  0.00000000000E+00 0. -1.
         -1    1    1    2    0  504 -0.17028631643E+03  0.11043250717E+03  0.12215548627E+03  0.23688548083E+03  0.00000000000E+00 0. -1.
<scales pt_clust_3="83.44628" pt_clust_4="30.09250" pt_clust_5="154.40348" pt_clust_6="14000.00000"></scales>
<clustering>
<clus scale="   30.093">  2  4  1 -1</clus>
<clus scale="   83.446">  2  3  1 -1</clus>
<clus scale="  154.403">  1  5  2 -1</clus>
<clus scale="   30.093">  2  3  1 -1</clus>
</clustering>
</event>
<event>
 6    0  0.1631680E+002  0.1126854E+03  0.7546771E-02  0.1255676E+00
          1   -1    0    0  505    0 -0.00000000000E+00  0.00000000000E+00  0.22652880021E+04  0.22652880021E+04  0.00000000000E+00 0. -1.
         21   -1    0    0  503  502  0.00000000000E+00 -0.00000000000E+00 -0.10821411363E+02  0.10821411363E+02  0.00000000000E+00 0. -1.
         21    1    1    2  503  501  0.26345813629E+02  0.43987571697E+02  0.31493143886E+03  0.31907807751E+03  0.00000000000E+00 0. -1.
         21    1    1    2  504  502 -0.22887735326E+02 -0.86583693757E+02  0.35304799781E+03  0.36422997297E+03  0.00000000000E+00 0. -1.
         21    1    1    2  505  504 -0.14663244350E+02 -0.48039025010E+02  0.53035649072E+03  0.53272954293E+03  0.00000000000E+00 0. -1.
          1    1    1    2  501    0  0.11205166047E+02  0.90635147071E+02  0.10561306633E+04  0.10600718200E+04  0.00000000000E+00 0. -1.
<scales pt_clust_3="39.00509" pt_clust_4="99.94093" pt_clust_5="50.22707" pt_clust_6="39.00509"></scales>
<clustering>
<clus scale="   39.005">  3  6 -1 -1</clus>
<clus scale="   50.227">  1  5  2 -1</clus>
<clus scale="   99.941">  2  4  1 -1</clus>
<clus scale="   99.941">  2  3  1 -1</clus>
</clustering>
</event>
<event>
 6    0  0.1631680E+002  0.1407533E+03  0.7546771E-02  0.1212319E+00
         21   -1    0    0  505  502  0.00000000000E+00  0.00000000000E+00  0.18328012613E+04  0.18328012613E+04  0.00000000000E+00 0. -1.
          2   -1    0    0  504    0 -0.00000000000E+00 -0.00000000000E+00 -0.17716382228E+03  0.17716382228E+03  0.00000000000E+00 0. -1.
         21    1    1    2  503  501  0.44621114955E+02 -0.23845675229E+02 -0.34437231867E+02  0.61201168825E+02  0.00000000000E+00 0.  1.
         21    1    1    2  504  502  0.23744005570E+02  0.33434235104E+02 -0.12107706670E+02  0.42757717880E+02  0.00000000000E+00 0.  1.
         21    1    1    2  505  503 -0.13225657613E+03 -0.19094247951E+02  0.17911136601E+04  0.17960914608E+04  0.00000000000E+00 0. -1.
          2    1    1    2  501    0  0.63891455610E+02  0.95056880761E+01 -0.88931282500E+02  0.10991473610E+03  0.00000000000E+00 0. -1.
<scales pt_clust_3="40.36499" pt_clust_4="41.00763" pt_clust_5="133.15868" pt_clust_6="40.36499"></scales>
<clustering>
<clus scale="   40.365">  3  6 -1 -1</clus>
<clus scale="   41.008">  2  4  1 -1</clus>
<clus scale="  133.159">  1  5  2 -1</clus>
<clus scale="  133.159">  1  3  2 -1</clus>
</clustering>
</event>
<event>
 6    0  0.1631680E+002  0.2707718E+03  0.7546771E-02  0.1100839E+00
         21   -1    0    0  505  502  0.00000000000E+00  0.00000000000E+00  0.28042452461E+03  0.28042452461E+03  0.00000000000E+00 0. -1.
         -2   -1    0    0    0  501 -0.00000000000E+00 -0.00000000000E+00 -0.73953341156E+03  0.73953341156E+03  0.00000000000E+00 0. -1.
         21    1    1    2  503  501  0.58585384693E+02  0.56558987316E+02 -0.94656012039E+02  0.12486363346E+03  0.00000000000E+00 0.  1.
         21    1    1    2  504  503 -0.31930790991E+01  0.29797098181E+03 -0.11080854757E+01  0.29799015018E+03  0.00000000000E+00 0. -1.
         21    1    1    2  505  504 -0.79616521733E+01 -0.53897690843E+02  0.56539139832E+02  0.78517662449E+02  0.00000000000E+00 0. -1.
         -2    1    1    2    0  502 -0.47430653420E+02 -0.30063227828E+03 -0.41988392927E+03  0.51858649008E+03  0.00000000000E+00 0. -1.
<scales pt_clust_3="78.40529" pt_clust_4="270.77176" pt_clust_5="54.48256" pt_clust_6="14000.00000"></scales>
<clustering>
<clus scale="   54.483">  1  5  2 -1</clus>
<clus scale="   78.405">  2  3  1 -1</clus>
<clus scale="  270.772">  1  4  2 -1</clus>
<clus scale="   54.483">  1  3  2 -1</clus>
</clustering>
</event>
<event>
 6    0  0.1631680E+002  0.1211284E+03  0.7546771E-02  0.1241247E+00
         21   -1    0    0  503  502  0.00000000000E+00  0.00000000000E+00  0.30049271101E+03  0.30049271101E+03  0.00000000000E+00 0. -1.
          1   -1    0    0  504    0 -0.00000000000E+00 -0.00000000000E+00 -0.60342358101E+03  0.60342358101E+03  0.00000000000E+00 0. -1.
         21    1    1    2  503  505  0.12507023197E+01  0.12339960782E+03  0.20042399304E+03  0.23536950621E+03  0.00000000000E+00 0. -1.
         21    1    1    2  504  502 -0.10816843936E+03 -0.10116709695E+03 -0.63590305427E+01  0.14824179589E+03  0.00000000000E+00 0.  1.
         21    1    1    2  505  501  0.73056429181E+02 -0.59136476049E+02 -0.22677343043E+03  0.24548025052E+03  0.00000000000E+00 0. -1.
          1    1    1    2  501    0  0.33861307856E+02  0.36903965175E+02 -0.27022240207E+03  0.27482473941E+03  0.00000000000E+00 0. -1.
<scales pt_clust_3="121.12841" pt_clust_4="14000.00000" pt_clust_5="102.60417" pt_clust_6="50.08484"></scales>
<clustering>
<clus scale="   50.085">  2  6  1 -1</clus>
<clus scale="  102.604">  2  5  1 -1</clus>
<clus scale="  121.128">  1  3  2 -1</clus>
<clus scale="  121.128">  1  3  2 -1</clus>
</clustering>
</event>
<event>
 6    0  0.1631680E+002  0.9882189E+02  0.7546771E-02  0.1282793E+00
          2   -1    0    0  505    0 -0.00000000000E+00  0.00000000000E+00  0.58666476213E+03  0.58666476213E+03  0.00000000000E+00 0. -1.
         21   -1    0    0  503  502  0.00000000000E+00 -0.00000000000E+00 -0.26416771370E+03  0.26416771370E+03  0.00000000000E+00 0.  1.
         21    1    1    2  503  504 -0.27994996840E+02 -0.24933694457E+02 -0.46927119990E+02  0.60062996578E+02  0.00000000000E+00 0.  1.
         21    1    1    2  504  501  0.12299977947E+03  0.46633399778E+02 -0.17796807589E+03  0.22130579694E+03  0.00000000000E+00 0.  1.
         21    1    1    2  505  502 -0.16681612946E+02  0.32590232688E+02  0.44517507557E+02  0.57638597799E+02  0.00000000000E+00 0. -1.
          2    1    1    2  501    0 -0.78323169682E+02 -0.54289938009E+02  0.50287473675E+03  0.51182508451E+03  0.00000000000E+00 0. -1.
<scales pt_clust_3="37.37826" pt_clust_4="98.82189" pt_clust_5="36.61147" pt_clust_6="14000.00000"></scales>
<clustering>
<clus scale="   36.611">  1  5  2 -1</clus>
<clus scale="   37.378">  2  3  1 -1</clus>
<clus scale="   98.822">  2  4  1 -1</clus>
<clus scale="   37.378">  2  3  1 -1</clus>
</clustering>
</event>
<event>
 6    0  0.1631680E+002  0.2342033E+03  0.7546771E-02  0.1123716E+00
         21   -1    0    0  505  502  0.00000000000E+00  0.00000000000E+00  0.40333886661E+03  0.40333886661E+03  0.00000000000E+00 0. -1.
         -1   -1    0    0    0  501 -0.00000000000E+00 -0.00000000000E+00 -0.53133479502E+03  0.53133479502E+03  0.00000000000E+00 0. -1.
         21    1    1    2  503  501  0.57440688533E+02  0.22573707010E+03 -0.43022083471E+03  0.48923064513E+03  0.00000000000E+00 0. -1.
         21    1    1    2  504  502  0.39506594302E+02 -0.16680352618E+02  0.43767151494E+02  0.61274535549E+02  0.00000000000E+00 0. -1.
         21    1    1    2  505  503 -0.24317241946E+02  0.26936197926E+02  0.22882371497E+02  0.42900931690E+02  0.00000000000E+00 0. -1.
         -1    1    1    2    0  504 -0.72630040889E+02 -0.23599291540E+03  0.23557538330E+03  0.34126754926E+03  0.00000000000E+00 0. -1.
<scales pt_clust_3="234.20333" pt_clust_4="38.28401" pt_clust_5="36.28894" pt_clust_6="14000.00000"></scales>
<clustering>
<clus scale="   36.289">  1  5  2 -1</clus>
<clus scale="   38.284">  1  4  2 -1</clus>
<clus scale="  234.203">  2  3  1 -1</clus>
<clus scale="   36.289">  1  3  2 -1</clus>
</clustering>
</event>
<event>
 6    0  0.1631680E+002  0.9937036E+02  0.7546771E-02  0.1281626E+00
          2   -1    0    0  504    0 -0.00000000000E+00  0.00000000000E+00  0.59005102073E+03  0.59005102073E+03  0.00000000000E+00 0. -1.
         21   -1    0    0  505  502  0.00000000000E+00 -0.00000000000E+00 -0.53629325739E+03  0.53629325739E+03  0.00000000000E+00 0. -1.
         21    1    1    2  503  501  0.67994175170E+02 -0.24919403923E+02  0.29694338009E+03  0.30564612795E+03  0.00000000000E+00 0. -1.
         21    1    1    2  504  502  0.32760409492E+02 -0.66510290488E+02 -0.16691101469E+02  0.75996421226E+02  0.00000000000E+00 0. -1.
         21    1    1    2  505  503 -0.83036009206E+02  0.65098465438E+02 -0.47886096236E+03  0.49034743835E+03  0.00000000000E+00 0. -1.
          2    1    1    2  501    0 -0.17718575457E+02  0.26331228973E+02  0.25236644707E+03  0.25435429059E+03  0.00000000000E+00 0. -1.
<scales pt_clust_3="52.15597" pt_clust_4="14000.00000" pt_clust_5="99.37036" pt_clust_6="31.73770"></scales>
<clustering>
<clus scale="   31.738">  1  6  2 -1</clus>
<clus scale="   52.156">  1  3  2 -1</clus>
<clus scale="   99.370">  2  5  1 -1</clus>
<clus scale="   99.370">  2  3  1 -1</clus>
</clustering>
</event>
<event>
 6    0  0.1631680E+002  0.8552854E+02  0.7546771E-02  0.1314056E+00
          1   -1    0    0  505    0 -0.00000000000E+00  0.00000000000E+00  0.12500781252E+04  0.12500781252E+04  0.00000000000E+00 0.  1.
         21   -1    0    0  503  502  0.00000000000E+00 -0.00000000000E+00 -0.17659598573E+03  0.17659598573E+03  0.00000000000E+00 0.  1.
         21    1    1    2  503  504  0.80095810623E+02  0.31946590941E+02 -0.15646493332E+03  0.17865385221E+03  0.00000000000E+00 0.  1.
         21    1    1    2  504  501 -0.59452045371E+02  0.22135556172E+02  0.60280746878E+03  0.60613643099E+03  0.00000000000E+00 0.  1.
         21    1    1    2  505  502 -0.19183790785E+02  0.30453796983E+02  0.73654356137E+02  0.81978141949E+02  0.00000000000E+00 0. -1.
          1    1    1    2  501    0 -0.14599744662E+01 -0.84535944095E+02  0.55348524782E+03  0.55990568574E+03  0.00000000000E+00 0.  1.
<scales pt_clust_3="85.52854" pt_clust_4="14000.00000" pt_clust_5="35.99238" pt_clust_6="70.86648"></scales>
<clustering>
<clus scale="   35.992">  1  5  2 -1</clus>
<clus scale="   70.866">  1  6  2 -1</clus>
<clus scale="   85.529">  2  3  1 -1</clus>
<clus scale="   85.529">  2  3  1 -1</clus>
</clustering>
</event>
<event>
 6    0  0.1631680E+002  0.6450730E+02  0.7546771E-02  0.1379834E+00
         -2   -1    0    0    0  501 -0.00000000000E+00  0.00000000000E+00  0.66707858833E+03  0.66707858833E+03  0.00000000000E+00 0.  1.
         21   -1    0    0  505  502  0.00000000000E+00 -0.00000000000E+00 -0.19027554040E+03  0.19027554040E+03  0.00000000000E+00 0.  1.
         21    1    1    2  503  501  0.55405247691E+02 -0.16615530966E+02  0.15219630599E+03  0.16281748339E+03  0.00000000000E+00 0.  1.
         21    1    1    2  504  503  0.65073145470E+02 -0.64036912303E+01  0.57735478369E+02  0.87229048976E+02  0.00000000000E+00 0. -1.
         21    1    1    2  505  504 -0.31787991938E+02 -0.43684092286E+02 -0.15862751812E+03  0.16757525430E+03  0.00000000000E+00 0.  1.
         -2    1    1    2    0  502 -0.88690401222E+02  0.66703314482E+02  0.42549878169E+03  0.43973234206E+03  0.00000000000E+00 0.  1.
<scales pt_clust_3="55.25038" pt_clust_4="64.50730" pt_clust_5="54.02570" pt_clust_6="14000.00000"></scales>
<clustering>
<clus scale="   54.026">  2  5  1 -1</clus>
<clus scale="   55.250">  1  3  2 -1</clus>
<clus scale="   64.507">  2  4  1 -1</clus>
<clus scale="   54.026">  2  3  1 -1</clus>
</clustering>
</event>
<event>
 6    0  0.1631680E+002  0.1350775E+03  0.7546771E-02  0.1220110E+00
          2   -1    0    0  503    0 -0.00000000000E+00  0.00000000000E+00  0.28334167918E+04  0.28334167918E+04  0.00000000000E+00 0. -1.
         21   -1    0    0  501  502  0.00000000000E+00 -0.00000000000E+00 -0.55866037496E+02  0.55866037496E+02  0.00000000000E+00 0.  1.
         21    1    1    2  503  505 -0.45371109396E+01 -0.46695706532E+02  0.69294148594E+03  0.69452788088E+03  0.00000000000E+00 0. -1.
         21    1    1    2  504  502 -0.15514050151E+02 -0.30434035585E+02 -0.36571337802E+02  0.50043771068E+02  0.00000000000E+00 0.  1.
         21    1    1    2  505  504  0.92248837984E+02 -0.76674208147E+02  0.48009236801E+03  0.49485095142E+03  0.00000000000E+00 0. -1.
          2    1    1    2  501    0 -0.72197676893E+02  0.15380395026E+03  0.16410882381E+04  0.16498602259E+04  0.00000000000E+00 0. -1.
<scales pt_clust_3="48.92995" pt_clust_4="34.16016" pt_clust_5="135.07747" pt_clust_6="14000.00000"></scales>
<clustering>
<clus scale="   34.160">  2  4  1 -1</clus>
<clus scale="   48.930">  1  3  2 -1</clus>
<clus scale="  135.077">  2  5  1 -1</clus>
<clus scale="   34.160">  2  3  1 -1</clus>
</clustering>
</event>
<event>
 6    0  0.1631680E+002  0.1013932E+03  0.7546771E-02  0.1277393E+00
         21   -1    0    0  504  502  0.00000000000E+00  0.00000000000E+00  0.18799463140E+04  0.18799463140E+04  0.00000000000E+00 0. -1.
          2   -1    0    0  505    0 -0.00000000000E+00 -0.00000000000E+00 -0.46386333548E+03  0.46386333548E+03  0.00000000000E+00 0.  1.
         21    1    1    2  503  502  0.37051182463E+01 -0.90433573596E+02  0.15946728901E+04  0.15972393639E+04  0.00000000000E+00 0. -1.
         21    1    1    2  504  501 -0.32751135581E+02  0.89906091578E+01  0.21797086488E+03  0.22060091992E+03  0.00000000000E+00 0. -1.
         21    1    1    2  505  503  0.11690897027E+03  0.28058292852E+02 -0.41351602545E+01  0.12029993632E+03  0.00000000000E+00 0.  1.
          2    1    1    2  501    0 -0.87862952935E+02  0.53384671586E+02 -0.39242561620E+03  0.40566942935E+03  0.00000000000E+00 0.  1.
<scales pt_clust_3="86.37886" pt_clust_4="33.96274" pt_clust_5="101.39317" pt_clust_6="14000.00000"></scales>
<clustering>
<clus scale="   33.963">  1  4  2 -1</clus>
<clus scale="   86.379">  1  3  2 -1</clus>
<clus scale="  101.393">  1  5  2 -1</clus>
<clus scale="   33.963">  1  3  2 -1</clus>
</clustering>
</event>
<event>
 6    0  0.1631680E+002  0.8351733E+02  0.7546771E-02  0.1319356E+00
         -3   -1    0    0    0  501 -0.00000000000E+00  0.00000000000E+00  0.24285600785E+04  0.24285600785E+04  0.00000000000E+00 0.  1.
         21   -1    0    0  505  502  0.00000000000E+00 -0.00000000000E+00 -0.17236896559E+03  0.17236896559E+03  0.00000000000E+00 0.  1.
         21    1    1    2  503  501 -0.46553440094E+01  0.12292332151E+03 -0.49851139611E+02  0.13272886393E+03  0.00000000000E+00 0.  1.
         21    1    1    2  504  502 -0.63858670100E+02 -0.36060404591E+02  0.39689528655E+03  0.40361386375E+03  0.00000000000E+00 0.  1.
         21    1    1    2  505  503  0.37493138144E+02 -0.44679775285E+02 -0.66380481020E+02  0.88365072216E+02  0.00000000000E+00 0.  1.
         -3    1    1    2    0  504  0.31020875965E+02 -0.42183141633E+02  0.19755274470E+04  0.19762212442E+04  0.00000000000E+00 0.  1.
<scales pt_clust_3="14000.00000" pt_clust_4="83.51733" pt_clust_5="59.59572" pt_clust_6="52.36136"></scales>
<clustering>
<clus scale="   52.361">  1  6  2 -1</clus>
<clus scale="   59.596">  2  5  1 -1</clus>
<clus scale="   83.517">  1  4  2 -1</clus>
<clus scale="   59.596">  2  3  1 -1</clus>
</clustering>
</event>
<event>
 6    0  0.1631680E+002  0.1379204E+03  0.7546771E-02  0.1216155E+00
          1   -1    0    0  505    0 -0.00000000000E+00  0.00000000000E+00  0.13698370177E+04  0.13698370177E+04  0.00000000000E+00 0. -1.
         21   -1    0    0  503  502  0.00000000000E+00 -0.00000000000E+00 -0.47437662444E+03  0.47437662444E+03  0.00000000000E+00 0.  1.
         21    1    1    2  503  501  0.79778896959E+02  0.17060962287E+02 -0.12013114661E+03  0.14521446629E+03  0.00000000000E+00 0.  1.
         21    1    1    2  504  502 -0.57034172688E+02 -0.16483839488E+01  0.26499292230E+02  0.62911259028E+02  0.00000000000E+00 0. -1.
         21    1    1    2  505  504 -0.16003906160E+03 -0.25310579085E+02 -0.29931062945E+03  0.34035272814E+03  0.00000000000E+00 0.  1.
          1    1    1    2  501    0  0.13729433733E+03  0.98980007469E+01  0.12884028770E+04  0.12957351886E+04  0.00000000000E+00 0. -1.
<scales pt_clust_3="65.33037" pt_clust_4="57.05799" pt_clust_5="14000.00000" pt_clust_6="137.92041"></scales>
<clustering>
<clus scale="   57.058">  2  4  1 -1</clus>
<clus scale="   65.330">  2  3  1 -1</clus>
<clus scale="  137.920">  1  6  2 -1</clus>
<clus scale="   57.058">  2  3  1 -1</clus>
</clustering>
</event>
<event>
 6    0  0.1631680E+002  0.1624073E+03  0.7546771E-02  0.1186005E+00
         21   -1    0    0  505  502  0.00000000000E+00  0.00000000000E+00  0.38197104979E+03  0.38197104979E+03  0.00000000000E+00 0. -1.
          2   -1    0    0  503    0 -0.00000000000E+00 -0.00000000000E+00 -0.74685596004E+03  0.74685596004E+03  0.00000000000E+00 0.  1.
         21    1    1    2  503  504 -0.32904836396E+02  0.14549386088E+03 -0.26203906798E+03  0.30152224621E+03  0.00000000000E+00 0.  1.
         21    1    1    2  504  502  0.68306635586E+00  0.45044943628E+02  0.27450190996E+02  0.52754398033E+02  0.00000000000E+00 0.  1.
         21    1    1    2  505  501  0.84903034492E+02 -0.12181542933E+02  0.29668019710E+03  0.30883013876E+03  0.00000000000E+00 0. -1.
          2    1    1    2  501    0 -0.52681264451E+02 -0.17835726157E+03 -0.42697623037E+03  0.46572022683E+03  0.00000000000E+00 0.  1.
<scales pt_clust_3="14000.00000" pt_clust_4="45.05012" pt_clust_5="89.88571" pt_clust_6="162.40730"></scales>
<clustering>
<clus scale="   45.050">  1  4  2 -1</clus>
<clus scale="   89.886">  1  5  2 -1</clus>
<clus scale="  162.407">  2  6  1 -1</clus>
<clus scale="   45.050">  1  3  2 -1</clus>
</clustering>
</event>
<event>
 6    0  0.1631680E+002  0.8714048E+02  0.7546771E-02  0.1309928E+00
         21   -1    0    0  505  502  0.00000000000E+00  0.00000000000E+00  0.13497410931E+03  0.13497410931E+03  0.00000000000E+00 0. -1.
          1   -1    0    0  503    0 -0.00000000000E+00 -0.00000000000E+00 -0.14704453062E+04  0.14704453062E+04  0.00000000000E+00 0.  1.
         21    1    1    2  503  502  0.57843420542E+02  0.43905833595E+02 -0.98975500097E+02  0.12275884140E+03  0.00000000000E+00 0.  1.
         21    1    1    2  504  501 -0.77239447777E+02 -0.19005279650E+02 -0.16030546814E+03  0.17895523480E+03  0.00000000000E+00 0. -1.
         21    1    1    2  505  504 -0.54877489270E+02 -0.74429710284E+02  0.92977646134E+02  0.13113414232E+03  0.00000000000E+00 0. -1.
          1    1    1    2  501    0  0.74273516505E+02  0.49529156339E+02 -0.11691678748E+04  0.11725711970E+04  0.00000000000E+00 0.  1.
<scales pt_clust_3="72.61944" pt_clust_4="14000.00000" pt_clust_5="34.52844" pt_clust_6="87.14048"></scales>
<clustering>
<clus scale="   72.619">  1  3  2 -1</clus>
<clus scale="   34.528">  1  5  2 -1</clus>
<clus scale="   87.140">  2  6  1 -1</clus>
<clus scale="   72.619">  1  3  2 -1</clus>
</clustering>
</event>
<event>
 6    0  0.1631680E+002  0.1020534E+03  0.7546771E-02  0.1276036E+00
          2   -1    0    0  505    0 -0.00000000000E+00  0.00000000000E+00  0.40853546274E+03  0.40853546274E+03  0.00000000000E+00 0.  1.
         21   -1    0    0  504  502  0.00000000000E+00 -0.00000000000E+00 -0.88803309950E+02  0.88803309950E+02  0.00000000000E+00 0. -1.
         21    1    1    2  503  502  0.21859023332E+02  0.26019076411E+02 -0.19635881144E+02  0.39247637720E+02  0.00000000000E+00 0.  1.
         21    1    1    2  504  501 -0.19002281786E+02  0.25603177081E+02 -0.22078144460E+02  0.38782133160E+02  0.00000000000E+00 0. -1.
         21    1    1    2  505  503  0.27832870533E+02  0.75654789232E+02  0.11830145083E+03  0.14315568128E+03  0.00000000000E+00 0. -1.
          2    1    1    2  501    0 -0.30689612079E+02 -0.12727704272E+03  0.24314472756E+03  0.27615332052E+03  0.00000000000E+00 0.  1.
<scales pt_clust_3="40.82178" pt_clust_4="31.88431" pt_clust_5="102.05336" pt_clust_6="14000.00000"></scales>
<clustering>
<clus scale="   31.884">  2  4  1 -1</clus>
<clus scale="   40.822">  2  3  1 -1</clus>
<clus scale="  102.053">  1  5  2 -1</clus>
<clus scale="   31.884">  2  3  1 -1</clus>
</clustering>
</event>
<event>
 6    0  0.1631680E+002  0.1183345E+03  0.7546771E-02  0.1245870E+00
          1   -1    0    0  505    0 -0.00000000000E+00  0.00000000000E+00  0.98186809336E+03  0.98186809336E+03  0.00000000000E+00 0. -1.
         21   -1    0    0  504  502  0.00000000000E+00 -0.00000000000E+00 -0.28696758853E+03  0.28696758853E+03  0.00000000000E+00 0.  1.
         21    1    1    2  503  502  0.71470015253E+02  0.44654595702E+02 -0.21288454224E+03  0.22895812788E+03  0.00000000000E+00 0.  1.
         21    1    1    2  504  501 -0.83765766260E+02 -0.15212599514E+03  0.10557015565E+03  0.20323405167E+03  0.00000000000E+00 0.  1.
         21    1    1    2  505  503 -0.61352375842E+02  0.46425661998E+02  0.91624370731E+02  0.11964314199E+03  0.00000000000E+00 0.  1.
          1    1    1    2  501    0  0.73648126848E+02  0.61045737445E+02  0.71059052069E+03  0.71700036035E+03  0.00000000000E+00 0. -1.
<scales pt_clust_3="84.02433" pt_clust_4="14000.00000" pt_clust_5="76.93800" pt_clust_6="118.33450"></scales>
<clustering>
<clus scale="   76.938">  1  5  2 -1</clus>
<clus scale="   84.024">  2  3  1 -1</clus>
<clus scale="  118.335">  1  6  2 -1</clus>
<clus scale="   84.024">  2  3  1 -1</clus>
</clustering>
</event>
<event>
 6    0  0.1631680E+002  0.1297256E+03  0.7546771E-02  0.1227863E+00
         21   -1    0    0  505  502  0.00000000000E+00  0.00000000000E+00  0.28924068836E+03  0.28924068836E+03  0.00000000000E+00 0.  1.
          2   -1    0    0  503    0 -0.00000000000E+00 -0.00000000000E+00 -0.41058774705E+04  0.41058774705E+04  0.00000000000E+00 0.  1.
         21    1    1    2  503  502  0.29713170295E+02  0.85279526947E+01 -0.13615134037E+03  0.13961656761E+03  0.00000000000E+00 0. -1.
         21    1    1    2  504  501  0.63791359477E+02  0.50103056670E+02  0.13792744982E+03  0.16001135974E+03  0.00000000000E+00 0.  1.
         21    1    1    2  505  504 -0.17410592153E+02  0.72171904154E+02  0.12703641978E+03  0.14713994842E+03  0.00000000000E+00 0.  1.
          2    1    1    2  501    0 -0.76093937619E+02 -0.13080291352E+03 -0.39454493114E+04  0.39483502831E+04  0.00000000000E+00 0.  1.
<scales pt_clust_3="30.91276" pt_clust_4="129.72564" pt_clust_5="74.24565" pt_clust_6="14000.00000"></scales>
<clustering>
<clus scale="   30.913">  2  3  1 -1</clus>
<clus scale="   74.246">  1  5  2 -1</clus>
<clus scale="  129.726">  1  4  2 -1</clus>
<clus scale="   74.246">  1  3  2 -1</clus>
</clustering>
</event>
<event>
 6    0  0.1631680E+002  0.7877583E+02  0.7546771E-02  0.1332562E+00
         21   -1    0    0  503  502  0.00000000000E+00  0.00000000000E+00  0.13070399451E+04  0.13070399451E+04  0.00000000000E+00 0.  1.
         -3   -1    0    0    0  501 -0.00000000000E+00 -0.00000000000E+00 -0.38044050380E+02  0.38044050380E+02  0.00000000000E+00 0. -1.
         21    1    1    2  503  505  0.56447897918E+02 -0.44936975821E+02  0.45868788656E+03  0.46432776597E+03  0.00000000000E+00 0.  1.
         21    1    1    2  504  502 -0.71577894961E+01  0.11214714750E+03  0.69048671389E+03  0.69957138214E+03  0.00000000000E+00 0.  1.
         21    1    1    2  505  501  0.12577570511E+02 -0.69964924674E+02  0.82408231155E+02  0.10883199220E+03  0.00000000000E+00 0. -1.
         -3    1    1    2    0  504 -0.61867678933E+02  0.27547529916E+01  0.37413063128E+02  0.72352855183E+02  0.00000000000E+00 0. -1.
<scales pt_clust_3="65.47126" pt_clust_4="78.77583" pt_clust_5="14000.00000" pt_clust_6="61.92898"></scales>
<clustering>
<clus scale="   61.929">  2  6  1 -1</clus>
<clus scale="   65.471">  1  3  2 -1</clus>
<clus scale="   78.776">  1  4  2 -1</clus>
<clus scale="   65.471">  1  3  2 -1</clus>
</clustering>
</event>
<event>
 6    0  0.1631680E+002  0.1386577E+03  0.7546771E-02  0.1215147E+00
          2   -1    0    0  503    0 -0.00000000000E+00  0.00000000000E+00  0.99050735722E+03  0.99050735722E+03  0.00000000000E+00 0. -1.
         21   -1    0    0  504  502  0.00000000000E+00 -0.00000000000E+00 -0.10704396376E+03  0.10704396376E+03  0.00000000000E+00 0. -1.
         21    1    1    2  503  505  0.77051222067E+02  0.11246407098E+03 -0.13418895755E+02  0.13698585637E+03  0.00000000000E+00 0. -1.
         21    1    1    2  504  501 -0.68950885365E+01 -0.39385907042E+02  0.37859769238E+01  0.40163734148E+02  0.00000000000E+00 0. -1.
         21    1    1    2  505  502  0.30099736072E+02  0.23243938178E+02  0.36894639125E+02  0.52985744968E+02  0.00000000000E+00 0.  1.
          2    1    1    2  501    0 -0.10025586960E+03 -0.96322102114E+02  0.85620167317E+03  0.86741598549E+03  0.00000000000E+00 0. -1.
<scales pt_clust_3="138.65770" pt_clust_4="35.14184" pt_clust_5="38.02992" pt_clust_6="14000.00000"></scales>
<clustering>
<clus scale="   38.030">  2  5  1 -1</clus>
<clus scale="   35.142">  2  4  1 -1</clus>
<clus scale="  138.658">  2  3  1 -1</clus>
<clus scale="   38.030">  2  3  1 -1</clus>
</clustering>
</event>
<event>
 6    0  0.1631680E+002  0.1340309E+03  0.7546771E-02  0.1221594E+00
          1   -1    0    0  504    0 -0.00000000000E+00  0.00000000000E+00  0.32251256545E+03  0.32251256545E+03  0.00000000000E+00 0.  1.
         21   -1    0    0  503  502  0.00000000000E+00 -0.00000000000E+00 -0.45650335927E+03  0.45650335927E+03  0.00000000000E+00 0. -1.
         21    1    1    2  503  505 -0.63410831511E+02 -0.60438359273E+01 -0.49194456778E+02  0.80483265859E+02  0.00000000000E+00 0.  1.
         21    1    1    2  504  502  0.62245457168E+02 -0.11963514988E+03 -0.36429938253E+03  0.38845991574E+03  0.00000000000E+00 0. -1.
         21    1    1    2  505  501 -0.64565884109E+01  0.54373036642E+02  0.71518313069E+02  0.90072103072E+02  0.00000000000E+00 0.  1.
          1    1    1    2  501    0  0.76219627544E+01  0.71305949167E+02  0.20798473242E+03  0.22000064005E+03  0.00000000000E+00 0.  1.
<scales pt_clust_3="63.69821" pt_clust_4="125.44996" pt_clust_5="41.23212" pt_clust_6="41.23212"></scales>
<clustering>
<clus scale="   41.232">  5  6 -1 -1</clus>
<clus scale="   63.698">  2  3  1 -1</clus>
<clus scale="  125.450">  2  4  1 -1</clus>
<clus scale="   63.698">  2  3  1 -1</clus>
</clustering>
</event>
<event>
 6    0  0.1631680E+002  0.9759528E+02  0.7546771E-02  0.1285436E+00
         -2   -1    0    0    0  501 -0.00000000000E+00  0.00000000000E+00  0.22007832280E+04  0.22007832280E+04  0.00000000000E+00 0.  1.
         21   -1    0    0  503  502  0.00000000000E+00 -0.00000000000E+00 -0.25159566404E+03  0.25159566404E+03  0.00000000000E+00 0. -1.
         21    1    1    2  503  505 -0.32068784387E+02  0.10643330280E+03  0.98210992404E+02  0.14833021912E+03  0.00000000000E+00 0. -1.
         21    1    1    2  504  502  0.96563388893E+02 -0.28391488099E+02 -0.21079975894E+03  0.23359602531E+03  0.00000000000E+00 0. -1.
         21    1    1    2  505  501  0.15927110529E+02 -0.26110075369E+02  0.70155504158E+02  0.76532369944E+02  0.00000000000E+00 0. -1.
         -2    1    1    2    0  504 -0.80421715034E+02 -0.51931739329E+02  0.19916208263E+04  0.19939202776E+04  0.00000000000E+00 0.  1.
<scales pt_clust_3="97.59528" pt_clust_4="14000.00000" pt_clust_5="30.58445" pt_clust_6="100.62753"></scales>
<clustering>
<clus scale="   30.584">  1  5  2 -1</clus>
<clus scale="  100.628">  1  6  2 -1</clus>
<clus scale="   97.595">  1  3  2 -1</clus>
<clus scale="   97.595">  2  3  1 -1</clus>
</clustering>
</event>
<event>
 6    0  0.1631680E+002  0.9028163E+02  0.7546771E-02  0.1302171E+00
         -3   -1    0    0    0  501 -0.00000000000E+00  0.00000000000E+00  0.11655013360E+03  0.11655013360E+03  0.00000000000E+00 0.  1.
         21   -1    0    0  501  502  0.00000000000E+00 -0.00000000000E+00 -0.50654234078E+03  0.50654234078E+03  0.00000000000E+00 0. -1.
         21    1    1    2  503  502  0.64365888616E+02  0.92094605087E+02 -0.30114451437E+03  0.32142246723E+03  0.00000000000E+00 0. -1.
         21    1    1    2  504  505 -0.57325561780E+02  0.41637433536E+02  0.13518388565E+02  0.72129347247E+02  0.00000000000E+00 0.  1.
         21    1    1    2  505  503  0.38917937862E+02 -0.81327775099E+02 -0.12688192830E+03  0.15565293643E+03  0.00000000000E+00 0. -1.
         -3    1    1    2    0  504 -0.45958264699E+02 -0.52404263524E+02  0.24515846925E+02  0.73887723473E+02  0.00000000000E+00 0.  1.
<scales pt_clust_3="14000.00000" pt_clust_4="86.94700" pt_clust_5="90.28163" pt_clust_6="69.70200"></scales>
<clustering>
<clus scale="   69.702">  1  6  2 -1</clus>
<clus scale="   86.947">  1  4  2 -1</clus>
<clus scale="   90.282">  1  5  2 -1</clus>
<clus scale="   90.282">  2  3  1 -1</clus>
</clustering>
</event>
<event>
 6    0  0.1631680E+002  0.7873222E+02  0.7546771E-02  0.1332688E+00
          1   -1    0    0  505    0 -0.00000000000E+00  0.00000000000E+00  0.53071598005E+03  0.53071598005E+03  0.00000000000E+00 0. -1.
         21   -1    0    0  501  502  0.00000000000E+00 -0.00000000000E+00 -0.19254721631E+03  0.19254721631E+03  0.00000000000E+00 0.  1.
         21    1    1    2  503  502 -0.47423221703E+02  0.25104397064E+02 -0.14986467775E+03  0.15918107409E+03  0.00000000000E+00 0.  1.
         21    1    1    2  504  503 -0.18083346710E+02 -0.70358770704E+02  0.30921920605E+02  0.78952702405E+02  0.00000000000E+00 0. -1.
         21    1    1    2  505  504 -0.44368015410E+02  0.20784979993E+01  0.12733004983E+03  0.13485467191E+03  0.00000000000E+00 0. -1.
          1    1    1    2  501    0  0.10987458382E+03  0.43175875641E+02  0.32978147105E+03  0.35027474796E+03  0.00000000000E+00 0. -1.
<scales pt_clust_3="54.12697" pt_clust_4="78.73222" pt_clust_5="44.41667" pt_clust_6="14000.00000"></scales>
<clustering>
<clus scale="   44.417">  1  5  2 -1</clus>
<clus scale="   54.127">  2  3  1 -1</clus>
<clus scale="   78.732">  2  4  1 -1</clus>
<clus scale="   54.127">  2  3  1 -1</clus>
</clustering>
</event>
<event>
 6    0  0.1631680E+002  0.1427440E+03  0.7546771E-02  0.1209684E+00
         21   -1    0    0  503  502  0.00000000000E+00  0.00000000000E+00  0.68048151443E+03  0.68048151443E+03  0.00000000000E+00 0.  1.
          3   -1    0    0  504    0 -0.00000000000E+00 -0.00000000000E+00 -0.35934867777E+03  0.35934867777E+03  0.00000000000E+00 0.  1.
         21    1    1    2  503  501 -0.55498068846E+02  0.33661851910E+02  0.26854941468E+02  0.70244884518E+02  0.00000000000E+00 0.  1.
         21    1    1    2  504  505 -0.38968965719E+02 -0.14769081877E+02 -0.34456171642E+01  0.41816005863E+02  0.00000000000E+00 0.  1.
         21    1    1    2  505  502 -0.53255861460E+02  0.62268194233E+02  0.58715092113E+03  0.59284038238E+03  0.00000000000E+00 0.  1.
          3    1    1    2  501    0  0.14772289603E+03 -0.81160964266E+02 -0.28942740877E+03  0.33492891944E+03  0.00000000000E+00 0.  1.
<scales pt_clust_3="66.59572" pt_clust_4="41.67381" pt_clust_5="14000.00000" pt_clust_6="142.74397"></scales>
<clustering>
<clus scale="   41.674">  2  4  1 -1</clus>
<clus scale="   66.596">  1  3  2 -1</clus>
<clus scale="  142.744">  2  6  1 -1</clus>
<clus scale="   66.596">  1  3  2 -1</clus>
</clustering>
</event>
<event>
 6    0  0.1631680E+002  0.9062916E+02  0.7546771E-02  0.1301335E+00
         21   -1    0    0  503  502  0.00000000000E+00  0.00000000000E+00  0.45507111537E+03  0.45507111537E+03  0.00000000000E+00 0.  1.
         -1   -1    0    0    0  501 -0.00000000000E+00 -0.00000000000E+00 -0.54146330364E+03  0.54146330364E+03  0.00000000000E+00 0. -1.
         21    1    1    2  503  501 -0.65433502957E+02 -0.13376610032E+02  0.20997978094E+03  0.22034515064E+03  0.00000000000E+00 0.  1.
         21    1    1    2  504  502  0.41477730567E+01 -0.58214675696E+02  0.22539107364E+03  0.23282458754E+03  0.00000000000E+00 0. -1.
         21    1    1    2  505  504  0.19485131727E+02  0.82099998072E+02 -0.17887735915E+03  0.19778066047E+03  0.00000000000E+00 0.  1.
         -1    1    1    2    0  505  0.41800598173E+02 -0.10508712344E+02 -0.34288568370E+03  0.34558402036E+03  0.00000000000E+00 0. -1.
<scales pt_clust_3="14000.00000" pt_clust_4="58.62085" pt_clust_5="90.62916" pt_clust_6="43.10131"></scales>
<clustering>
<clus scale="   43.101">  2  6  1 -1</clus>
<clus scale="   58.621">  1  4  2 -1</clus>
<clus scale="   90.629">  2  5  1 -1</clus>
<clus scale="   58.621">  1  3  2 -1</clus>
</clustering>
</event>
<event>
 6    0  0.1631680E+002  0.6069243E+02  0.7546771E-02  0.1394949E+00
         21   -1    0    0  504  502  0.00000000000E+00  0.00000000000E+00  0.74437876503E+03  0.74437876503E+03  0.00000000000E+00 0. -1.
         -1   -1    0    0    0  501 -0.00000000000E+00 -0.00000000000E+00 -0.46723167999E+03  0.46723167999E+03  0.00000000000E+00 0. -1.
         21    1    1    2  503  502  0.17485364641E+01  0.98726640225E+02  0.46095997408E+03  0.47141712376E+03  0.00000000000E+00 0. -1.
         21    1    1    2  504  505 -0.26377550089E+01 -0.39242836811E+02  0.26463428464E+03  0.26754114188E+03  0.00000000000E+00 0. -1.
         21    1    1    2  505  501  0.50491506504E+02  0.18194246659E+02 -0.11874188184E+03  0.13030754907E+03  0.00000000000E+00 0. -1.
         -1    1    1    2    0  503 -0.49602287959E+02 -0.77678050073E+02 -0.32970529184E+03  0.34234463031E+03  0.00000000000E+00 0. -1.
<scales pt_clust_3="60.69243" pt_clust_4="39.33139" pt_clust_5="53.48049" pt_clust_6="14000.00000"></scales>
<clustering>
<clus scale="   39.331">  1  4  2 -1</clus>
<clus scale="   53.480">  2  5  1 -1</clus>
<clus scale="   60.692">  1  3  2 -1</clus>
<clus scale="   39.331">  1  3  2 -1</clus>
</clustering>
</event>
<event>
 6    0  0.1631680E+002  0.1557052E+03  0.7546771E-02  0.1193633E+00
         21   -1    0    0  505  502  0.00000000000E+00  0.00000000000E+00  0.20341374179E+03  0.20341374179E+03  0.00000000000E+00 0.  1.
          2   -1    0    0  504    0 -0.00000000000E+00 -0.00000000000E+00 -0.53888426580E+03  0.53888426580E+03  0.00000000000E+00 0.  1.
         21    1    1    2  503  502  0.12946342684E+03 -0.90852573305E+01 -0.13143561800E+03  0.18471232355E+03  0.00000000000E+00 0.  1.
         21    1    1    2  504  503 -0.92050698542E+01 -0.30991830725E+02 -0.22254312846E+02  0.39248965883E+02  0.00000000000E+00 0.  1.
         21    1    1    2  505  501 -0.13344468568E+03  0.10108333453E+03  0.12267839179E+03  0.20754592858E+03  0.00000000000E+00 0.  1.
          2    1    1    2  501    0  0.13186328693E+02 -0.61006246475E+02 -0.30445898495E+03  0.31079078958E+03  0.00000000000E+00 0.  1.
<scales pt_clust_3="155.70520" pt_clust_4="32.32997" pt_clust_5="14000.00000" pt_clust_6="80.13130"></scales>
<clustering>
<clus scale="   32.330">  2  4  1 -1</clus>
<clus scale="   80.131">  2  6  1 -1</clus>
<clus scale="  155.705">  2  3  1 -1</clus>
<clus scale="  155.705">  1  3  2 -1</clus>
</clustering>
</event>
<event>
 6    0  0.1631680E+002  0.8185206E+02  0.7546771E-02  0.1323876E+00
          2   -1    0    0  503    0 -0.00000000000E+00  0.00000000000E+00  0.29330231131E+04  0.29330231131E+04  0.00000000000E+00 0.  1.
         21   -1    0    0  504  502  0.00000000000E+00 -0.00000000000E+00 -0.24982671255E+03  0.24982671255E+03  0.00000000000E+00 0.  1.
         21    1    1    2  503  502 -0.93005371950E+02  0.77314696451E+02 -0.11431835181E+02  0.12148353121E+03  0.00000000000E+00 0. -1.
         21    1    1    2  504  505  0.59424969063E+02  0.50142011117E+00 -0.17653157697E+03  0.18626587459E+03  0.00000000000E+00 0.  1.
         21    1    1    2  505  501  0.46465626426E+02 -0.27182893538E+02  0.42670846517E+03  0.43009077925E+03  0.00000000000E+00 0. -1.
          2    1    1    2  501    0 -0.12885223539E+02 -0.50633223024E+02  0.24444513475E+04  0.24450096406E+04  0.00000000000E+00 0.  1.
<scales pt_clust_3="81.85206" pt_clust_4="59.29653" pt_clust_5="14000.00000" pt_clust_6="52.24703"></scales>
<clustering>
<clus scale="   52.247">  1  6  2 -1</clus>
<clus scale="   59.297">  2  4  1 -1</clus>
<clus scale="   81.852">  2  3  1 -1</clus>
<clus scale="   59.297">  2  3  1 -1</clus>
</clustering>
</event>
<event>
 6    0  0.1631680E+002  0.1095655E+03  0.7546771E-02  0.1261377E+00
          4   -1    0    0  504    0 -0.00000000000E+00  0.00000000000E+00  0.12937102745E+04  0.12937102745E+04  0.00000000000E+00 0. -1.
         21   -1    0    0  505  502  0.00000000000E+00 -0.00000000000E+00 -0.11528321243E+03  0.11528321243E+03  0.00000000000E+00 0.  1.
         21    1    1    2  503  502 -0.38112391388E+02  0.10312680362E+03 -0.58517949031E+02  0.12454734988E+03  0.00000000000E+00 0.  1.
         21    1    1    2  504  503  0.17962586608E+02 -0.46032448907E+02  0.81343791173E+02  0.95175906786E+02  0.00000000000E+00 0. -1.
         21    1    1    2  505  501  0.12479422641E+03 -0.22981853882E+02  0.28799845516E+03  0.31471395700E+03  0.00000000000E+00 0. -1.
          4    1    1    2  501    0 -0.10464442163E+03 -0.34112500833E+02  0.86760276479E+03  0.87455627329E+03  0.00000000000E+00 0. -1.
<scales pt_clust_3="108.59095" pt_clust_4="49.41296" pt_clust_5="109.56551" pt_clust_6="14000.00000"></scales>
<clustering>
<clus scale="   49.413">  1  4  2 -1</clus>
<clus scale="  108.591">  2  3  1 -1</clus>
<clus scale="  109.566">  2  5  1 -1</clus>
<clus scale="  108.591">  2  3  1 -1</clus>
</clustering>
</event>
<event>
 6    0  0.1631680E+002  0.6143479E+02  0.7546771E-02  0.1391907E+00
         21   -1    0    0  503  502  0.00000000000E+00  0.00000000000E+00  0.57870132285E+02  0.57870132285E+02  0.00000000000E+00 0.  1.
         -1   -1    0    0    0  501 -0.00000000000E+00 -0.00000000000E+00 -0.14439415786E+04  0.14439415786E+04  0.00000000000E+00 0.  1.
         21    1    1    2  503  504  0.86996701505E+02  0.32110531256E+02 -0.86952564753E+02  0.12712301447E+03  0.00000000000E+00 0.  1.
         21    1    1    2  504  501  0.31193336252E+02 -0.17239479794E+02 -0.12938387100E+03  0.13420286869E+03  0.00000000000E+00 0.  1.
         21    1    1    2  505  502 -0.33240229274E+02 -0.42419149064E+02  0.12139675528E+02  0.55241911366E+02  0.00000000000E+00 0.  1.
         -1    1    1    2    0  505 -0.84949808482E+02  0.27548097602E+02 -0.11818746861E+04  0.11852439163E+04  0.00000000000E+00 0.  1.
<scales pt_clust_3="61.43479" pt_clust_4="35.64020" pt_clust_5="53.80150" pt_clust_6="14000.00000"></scales>
<clustering>
<clus scale="   35.640">  2  4  1 -1</clus>
<clus scale="   53.802">  1  5  2 -1</clus>
<clus scale="   61.435">  1  3  2 -1</clus>
<clus scale="   53.802">  1  3  2 -1</clus>
</clustering>
</event>
<event>
 6    0  0.1631680E+002  0.3692360E+03  0.7546771E-02  0.1054985E+00
          1   -1    0    0  505    0 -0.00000000000E+00  0.00000000000E+00  0.11563435839E+04  0.11563435839E+04  0.00000000000E+00 0. -1.
         21   -1    0    0  503  502  0.00000000000E+00 -0.00000000000E+00 -0.90971917071E+03  0.90971917071E+03  0.00000000000E+00 0.  1.
         21    1    1    2  503  501 -0.24871247747E+02  0.36876686028E+03 -0.69105224632E+03  0.78368410941E+03  0.00000000000E+00 0.  1.
         21    1    1    2  504  502 -0.10942619827E+03 -0.37154817958E+03  0.73967250491E+02  0.39432638355E+03  0.00000000000E+00 0.  1.
         21    1    1    2  505  504 -0.35744232532E+02 -0.21866409386E+01  0.12659184974E+03  0.13155959858E+03  0.00000000000E+00 0. -1.
          1    1    1    2  501    0  0.17004167855E+03  0.49679602397E+01  0.73711755932E+03  0.75649266310E+03  0.00000000000E+00 0. -1.
<scales pt_clust_3="14000.00000" pt_clust_4="369.23599" pt_clust_5="35.81105" pt_clust_6="144.09588"></scales>
<clustering>
<clus scale="   35.811">  1  5  2 -1</clus>
<clus scale="  144.096">  1  6  2 -1</clus>
<clus scale="  369.236">  1  4  2 -1</clus>
<clus scale="  369.236">  2  3  1 -1</clus>
</clustering>
</event>
<event>
 6    0  0.1631680E+002  0.1446921E+03  0.7546771E-02  0.1207151E+00
         -3   -1    0    0    0  501 -0.00000000000E+00  0.00000000000E+00  0.44760537109E+03  0.44760537109E+03  0.00000000000E+00 0.  1.
         21   -1    0    0  504  502  0.00000000000E+00 -0.00000000000E+00 -0.16801726840E+03  0.16801726840E+03  0.00000000000E+00 0. -1.
         21    1    1    2  503  501 -0.44812818352E+01  0.33267418255E+02  0.31029403294E+03  0.31210445348E+03  0.00000000000E+00 0.  1.
         21    1    1    2  504  505  0.24862809234E+02  0.47037962764E+02 -0.68152391803E+01  0.53639320550E+02  0.00000000000E+00 0. -1.
         21    1    1    2  505  503 -0.24618939867E+02  0.73883747517E+02 -0.51244333407E+02  0.93224900395E+02  0.00000000000E+00 0. -1.
         -3    1    1    2    0  502  0.42374124681E+01 -0.15418912854E+03  0.27353642342E+02  0.15665396507E+03  0.00000000000E+00 0.  1.
<scales pt_clust_3="33.56789" pt_clust_4="49.99778" pt_clust_5="49.99778" pt_clust_6="131.75638"></scales>
<clustering>
<clus scale="   33.568">  1  3  2 -1</clus>
<clus scale="   49.998">  4  5 -1 -1</clus>
<clus scale="  131.756">  1  6  2 -1</clus>
<clus scale="  144.692">  2  3  1 -1</clus>
</clustering>
</event>
<event>
 6    0  0.1631680E+002  0.2426283E+03  0.7546771E-02  0.1118054E+00
         21   -1    0    0  505  502  0.00000000000E+00  0.00000000000E+00  0.63059717490E+02  0.63059717490E+02  0.00000000000E+00 0. -1.
          2   -1    0    0  504    0 -0.00000000000E+00 -0.00000000000E+00 -0.21566843095E+04  0.21566843095E+04  0.00000000000E+00 0. -1.
         21    1    1    2  503  502 -0.59634978390E+02  0.18906347635E+03 -0.43752089563E+03  0.48033932053E+03  0.00000000000E+00 0. -1.
         21    1    1    2  504  503 -0.38162827772E+02  0.76782886023E+02 -0.78852186124E+03  0.79317005659E+03  0.00000000000E+00 0. -1.
         21    1    1    2  505  501 -0.71021693443E+02 -0.11379925661E+02 -0.18317517921E+03  0.19679108193E+03  0.00000000000E+00 0. -1.
          2    1    1    2  501    0  0.16881949960E+03 -0.25446643671E+03 -0.68440665594E+03  0.74944356796E+03  0.00000000000E+00 0. -1.
<scales pt_clust_3="242.62826" pt_clust_4="86.67529" pt_clust_5="71.92763" pt_clust_6="14000.00000"></scales>
<clustering>
<clus scale="   71.928">  1  5  2 -1</clus>
<clus scale="   86.675">  2  4  1 -1</clus>
<clus scale="  242.628">  1  3  2 -1</clus>
<clus scale="   71.928">  1  3  2 -1</clus>
</clustering>
</event>
<event>
 6    0  0.1631680E+002  0.1458124E+03  0.7546771E-02  0.1205715E+00
          2   -1    0    0  503    0 -0.00000000000E+00  0.00000000000E+00  0.74308241224E+03  0.74308241224E+03  0.00000000000E+00 0.  1.
         21   -1    0    0  504  502  0.00000000000E+00 -0.00000000000E+00 -0.14246990621E+03  0.14246990621E+03  0.00000000000E+00 0.  1.
         21    1    1    2  503  502  0.12752261660E+03 -0.57206092743E+02  0.81452203147E+02  0.16176840294E+03  0.00000000000E+00 0.  1.
         21    1    1    2  504  505 -0.53098470730E+02 -0.63189271133E+02 -0.74723186404E+02  0.11133681407E+03  0.00000000000E+00 0.  1.
         21    1    1    2  505  501 -0.36196067259E+02  0.39001646461E+02  0.31388048716E+03  0.31835867183E+03  0.00000000000E+00 0.  1.
          2    1    1    2  501    0 -0.38228078608E+02  0.81393717415E+02  0.28000300213E+03  0.29408842961E+03  0.00000000000E+00 0.  1.
<scales pt_clust_3="137.48236" pt_clust_4="82.53685" pt_clust_5="37.36808" pt_clust_6="37.36808"></scales>
<clustering>
<clus scale="   37.368">  5  6 -1 -1</clus>
<clus scale="   82.537">  2  4  1 -1</clus>
<clus scale="  137.482">  2  3  1 -1</clus>
<clus scale="   82.537">  2  3  1 -1</clus>
</clustering>
</event>
<event>
 6    0  0.1631680E+002  0.1211785E+03  0.7546771E-02  0.1241165E+00
          1   -1    0    0  504    0 -0.00000000000E+00  0.00000000000E+00  0.14294375884E+04  0.14294375884E+04  0.00000000000E+00 0. -1.
         21   -1    0    0  503  502  0.00000000000E+00 -0.00000000000E+00 -0.58608161780E+02  0.58608161780E+02  0.00000000000E+00 0.  1.
         21    1    1    2  503  501 -0.12847689736E+03  0.68001306552E+01  0.77590712052E+02  0.15024271539E+03  0.00000000000E+00 0.  1.
         21    1    1    2  504  505  0.11757138124E+02 -0.60484489918E+02  0.68316613730E+03  0.68593919189E+03  0.00000000000E+00 0.  1.
         21    1    1    2  505  502  0.10259649168E+02 -0.28897467975E+02  0.39162605890E+01  0.30913769641E+02  0.00000000000E+00 0. -1.
          1    1    1    2  501    0  0.10646011007E+03  0.82581827238E+02  0.60615631669E+03  0.62095007327E+03  0.00000000000E+00 0. -1.
<scales pt_clust_3="14000.00000" pt_clust_4="62.54882" pt_clust_5="30.66470" pt_clust_6="121.17851"></scales>
<clustering>
<clus scale="   30.665">  2  5  1 -1</clus>
<clus scale="   62.549">  1  4  2 -1</clus>
<clus scale="  121.179">  1  6  2 -1</clus>
<clus scale="   30.665">  2  3  1 -1</clus>
</clustering>
</event>
<event>
 6    0  0.1631680E+002  0.1308570E+03  0.7546771E-02  0.1226190E+00
         21   -1    0    0  503  502  0.00000000000E+00  0.00000000000E+00  0.10497585785E+03  0.10497585785E+03  0.00000000000E+00 0. -1.
          2   -1    0    0  504    0 -0.00000000000E+00 -0.00000000000E+00 -0.63827537107E+03  0.63827537107E+03  0.00000000000E+00 0.  1.
         21    1    1    2  503  501  0.33564327809E+02  0.25766971013E+02 -0.36234634698E+02  0.55708613769E+02  0.00000000000E+00 0. -1.
         21    1    1    2  504  505  0.61059374346E+02 -0.11684190450E+03 -0.51919408375E+02  0.14168945906E+03  0.00000000000E+00 0. -1.
         21    1    1    2  505  502  0.22548177438E+02  0.25315130218E+02  0.34126525124E+02  0.48102971226E+02  0.00000000000E+00 0. -1.
          2    1    1    2  501    0 -0.11717187959E+03  0.65759803265E+02 -0.47927199526E+03  0.49775018487E+03  0.00000000000E+00 0.  1.
<scales pt_clust_3="47.40165" pt_clust_4="130.85697" pt_clust_5="33.90098" pt_clust_6="14000.00000"></scales>
<clustering>
<clus scale="   33.901">  1  5  2 -1</clus>
<clus scale="   47.402">  1  3  2 -1</clus>
<clus scale="  130.857">  1  4  2 -1</clus>
<clus scale="   33.901">  1  3  2 -1</clus>
</clustering>
</event>
<event>
 6    0  0.1631680E+002  0.8803995E+02  0.7546771E-02  0.1307669E+00
         21   -1    0    0  503  502  0.00000000000E+00  0.00000000000E+00  0.49982742996E+02  0.49982742996E+02  0.00000000000E+00 0. -1.
          2   -1    0    0  504    0 -0.00000000000E+00 -0.00000000000E+00 -0.10632033103E+04  0.10632033103E+04  0.00000000000E+00 0. -1.
         21    1    1    2  503  505  0.36821716253E+01  0.32947886461E+02  0.17141654228E+02  0.37322351477E+02  0.00000000000E+00 0. -1.
         21    1    1    2  504  502  0.10197028805E+03 -0.51713645420E+02 -0.17531442838E+03  0.20930214898E+03  0.00000000000E+00 0. -1.
         21    1    1    2  505  501 -0.19860378847E+02  0.32496070579E+02 -0.10880151450E+03  0.11527444993E+03  0.00000000000E+00 0. -1.
          2    1    1    2  501    0 -0.85792080828E+02 -0.13730311620E+02 -0.74624627862E+03  0.75128710287E+03  0.00000000000E+00 0. -1.
<scales pt_clust_3="33.15300" pt_clust_4="14000.00000" pt_clust_5="41.91050" pt_clust_6="88.03995"></scales>
<clustering>
<clus scale="   33.153">  1  3  2 -1</clus>
<clus scale="   41.911">  1  5  2 -1</clus>
<clus scale="   88.040">  2  6  1 -1</clus>
<clus scale="   33.153">  1  3  2 -1</clus>
</clustering>
</event>
<event>
 6    0  0.1631680E+002  0.1104466E+03  0.7546771E-02  0.1259745E+00
          1   -1    0    0  505    0 -0.00000000000E+00  0.00000000000E+00  0.15277538222E+04  0.15277538222E+04  0.00000000000E+00 0.  1.
         21   -1    0    0  501  502  0.00000000000E+00 -0.00000000000E+00 -0.10366741827E+03  0.10366741827E+03  0.00000000000E+00 0.  1.
         21    1    1    2  503  504  0.20935366117E+02  0.90698637279E+02  0.47620112883E+02  0.10455719731E+03  0.00000000000E+00 0. -1.
         21    1    1    2  504  502  0.32091508893E+02  0.30694711603E+01 -0.59116839440E+02  0.67335631739E+02  0.00000000000E+00 0.  1.
         21    1    1    2  505  503  0.50870784947E+02  0.56617505218E+02  0.55323850474E+03  0.55844983820E+03  0.00000000000E+00 0.  1.
          1    1    1    2  501    0 -0.10389765996E+03 -0.15038561366E+03  0.88234462574E+03  0.90107857322E+03  0.00000000000E+00 0.  1.
<scales pt_clust_3="110.44660" pt_clust_4="32.23797" pt_clust_5="77.65602" pt_clust_6="14000.00000"></scales>
<clustering>
<clus scale="   32.238">  2  4  1 -1</clus>
<clus scale="   77.656">  1  5  2 -1</clus>
<clus scale="  110.447">  2  3  1 -1</clus>
<clus scale="   32.238">  2  3  1 -1</clus>
</clustering>
</event>
<event>
 6    0  0.1631680E+002  0.1684458E+03  0.7546771E-02  0.1179478E+00
         -1   -1    0    0    0  501 -0.00000000000E+00  0.00000000000E+00  0.94819370839E+02  0.94819370839E+02  0.00000000000E+00 0.  1.
         21   -1    0    0  504  502  0.00000000000E+00 -0.00000000000E+00 -0.10117936549E+04  0.10117936549E+04  0.00000000000E+00 0.  1.
         21    1    1    2  503  501  0.49195947788E+02 -0.14943956469E+02 -0.48514885997E+02  0.70691281478E+02  0.00000000000E+00 0. -1.
         21    1    1    2  504  505  0.72444836147E+02  0.25287044229E+02 -0.52611112354E+03  0.53167716070E+03  0.00000000000E+00 0.  1.
         21    1    1    2  505  503  0.79628428980E+02  0.93477536155E+02 -0.20622166219E+03  0.24001272971E+03  0.00000000000E+00 0.  1.
         -1    1    1    2    0  502 -0.20126921291E+03 -0.10382062392E+03 -0.13612661238E+03  0.26423185390E+03  0.00000000000E+00 0.  1.
<scales pt_clust_3="51.41559" pt_clust_4="78.11790" pt_clust_5="14000.00000" pt_clust_6="168.44585"></scales>
<clustering>
<clus scale="   51.416">  1  3  2 -1</clus>
<clus scale="   78.118">  2  4  1 -1</clus>
<clus scale="  168.446">  1  6  2 -1</clus>
<clus scale="   78.118">  2  3  1 -1</clus>
</clustering>
</event>
<event>
 6    0  0.1631680E+002  0.7775086E+02  0.7546771E-02  0.1335558E+00
         21   -1    0    0  505  502  0.00000000000E+00  0.00000000000E+00  0.62937317196E+02  0.62937317196E+02  0.00000000000E+00 0.  1.
          2   -1    0    0  504    0 -0.00000000000E+00 -0.00000000000E+00 -0.81459299071E+03  0.81459299071E+03  0.00000000000E+00 0.  1.
         21    1    1    2  503  502  0.13087699526E+02  0.43558920033E+02  0.33186198806E+02  0.56302674754E+02  0.00000000000E+00 0.  1.
         21    1    1    2  504  503  0.71005657753E+02 -0.93737901190E+02 -0.46568941242E+03  0.48030742904E+03  0.00000000000E+00 0.  1.
         21    1    1    2  505  501 -0.41255979499E+02  0.81738491527E+01 -0.50838400070E+02  0.65980380236E+02  0.00000000000E+00 0.  1.
          2    1    1    2  501    0 -0.42837377779E+02  0.42005132005E+02 -0.26831405984E+03  0.27493982388E+03  0.00000000000E+00 0.  1.
<scales pt_clust_3="54.09891" pt_clust_4="77.75086" pt_clust_5="42.05791" pt_clust_6="14000.00000"></scales>
<clustering>
<clus scale="   42.058">  1  5  2 -1</clus>
<clus scale="   54.099">  1  3  2 -1</clus>
<clus scale="   77.751">  1  4  2 -1</clus>
<clus scale="   42.058">  1  3  2 -1</clus>
</clustering>
</event>
<event>
 6    0  0.1631680E+002  0.1168528E+03  0.7546771E-02  0.1248381E+00
         21   -1    0    0  505  502  0.00000000000E+00  0.00000000000E+00  0.27095427763E+03  0.27095427763E+03  0.00000000000E+00 0.  1.
         -2   -1    0    0    0  501 -0.00000000000E+00 -0.00000000000E+00 -0.11539584738E+04  0.11539584738E+04  0.00000000000E+00 0.  1.
         21    1    1    2  503  502  0.12937744538E+02 -0.32666245759E+02  0.10907930823E+03  0.11459827367E+03  0.00000000000E+00 0.  1.
         21    1    1    2  504  501 -0.34753947583E+02  0.44860235461E+02 -0.22159042428E+03  0.22874132493E+03  0.00000000000E+00 0.  1.
         21    1    1    2  505  504 -0.72045783217E+01  0.14595596154E+03  0.11227293163E+03  0.18428309698E+03  0.00000000000E+00 0.  1.
         -2    1    1    2    0  503  0.29020781366E+02 -0.15814995124E+03 -0.88276601177E+03  0.89729005587E+03  0.00000000000E+00 0.  1.
<scales pt_clust_3="35.13501" pt_clust_4="55.98960" pt_clust_5="14000.00000" pt_clust_6="116.85279"></scales>
<clustering>
<clus scale="   35.135">  1  3  2 -1</clus>
<clus scale="   55.990">  2  4  1 -1</clus>
<clus scale="  116.853">  2  6  1 -1</clus>
<clus scale="   35.135">  1  3  2 -1</clus>
</clustering>
</event>
<event>
 6    0  0.1631680E+002  0.7196969E+02  0.7546771E-02  0.1353520E+00
          2   -1    0    0  505    0 -0.00000000000E+00  0.00000000000E+00  0.26775408910E+04  0.26775408910E+04  0.00000000000E+00 0.  1.
         21   -1    0    0  501  502  0.00000000000E+00 -0.00000000000E+00 -0.24001122394E+02  0.24001122394E+02  0.00000000000E+00 0. -1.
         21    1    1    2  503  502 -0.43810459987E+02 -0.34287680472E+02  0.63801895961E+02  0.84650359507E+02  0.00000000000E+00 0. -1.
         21    1    1    2  504  503  0.10641993758E+03  0.65088809346E+02  0.31803397240E+03  0.34162459487E+03  0.00000000000E+00 0. -1.
         21    1    1    2  505  504 -0.61214376677E+02  0.21713331911E+02  0.80245876278E+03  0.80508306072E+03  0.00000000000E+00 0.  1.
          2    1    1    2  501    0 -0.13951009201E+01 -0.52514460786E+02  0.14692451375E+04  0.14701839983E+04  0.00000000000E+00 0.  1.
<scales pt_clust_3="57.74292" pt_clust_4="71.96969" pt_clust_5="14000.00000" pt_clust_6="52.53299"></scales>
<clustering>
<clus scale="   52.533">  1  6  2 -1</clus>
<clus scale="   57.743">  2  3  1 -1</clus>
<clus scale="   71.970">  2  4  1 -1</clus>
<clus scale="   57.743">  2  3  1 -1</clus>
</clustering>
</event>
<event>
 6    0  0.1631680E+002  0.2165683E+03  0.7546771E-02  0.1136468E+00
          2   -1    0    0  505    0 -0.00000000000E+00  0.00000000000E+00  0.17224793064E+03  0.17224793064E+03  0.00000000000E+00 0. -1.
         21   -1    0    0  504  502  0.00000000000E+00 -0.00000000000E+00 -0.15810208992E+04  0.15810208992E+04  0.00000000000E+00 0.  1.
         21    1    1    2  503  501 -0.23548104106E+02 -0.49537372090E+02 -0.71604109866E+03  0.71813878841E+03  0.00000000000E+00 0.  1.
         21    1    1    2  504  503 -0.15808147850E+02 -0.14434971453E+03 -0.76433099633E+03  0.77800296245E+03  0.00000000000E+00 0.  1.
         21    1    1    2  505  502  0.44791106735E+02 -0.70481643342E+01  0.62997825716E+01  0.45777801646E+02  0.00000000000E+00 0. -1.
          2    1    1    2  501    0 -0.54348547790E+01  0.20093525095E+03  0.65299343868E+02  0.21134927734E+03  0.00000000000E+00 0. -1.
<scales pt_clust_3="54.20346" pt_clust_4="54.20346" pt_clust_5="45.34225" pt_clust_6="197.74821"></scales>
<clustering>
<clus scale="   45.342">  1  5  2 -1</clus>
<clus scale="   54.203">  3  4 -1 -1</clus>
<clus scale="  197.748">  1  6  2 -1</clus>
<clus scale="  216.568">  2  3  1 -1</clus>
</clustering>
</event>
<event>
 6    0  0.1631680E+002  0.7433009E+02  0.7546771E-02  0.1345958E+00
          1   -1    0    0  503    0 -0.00000000000E+00  0.00000000000E+00  0.29311157108E+03  0.29311157108E+03  0.00000000000E+00 0. -1.
         21   -1    0    0  505  502  0.00000000000E+00 -0.00000000000E+00 -0.48152576539E+03  0.48152576539E+03  0.00000000000E+00 0. -1.
         21    1    1    2  503  502 -0.26489098880E+02  0.35371560143E+02 -0.10862052308E+03  0.11726567128E+03  0.00000000000E+00 0. -1.
         21    1    1    2  504  501 -0.52490915465E+02  0.54293133098E+02  0.88491821085E+02  0.11633504591E+03  0.00000000000E+00 0. -1.
         21    1    1    2  505  504  0.68785675743E+02 -0.10741693487E+02 -0.34250173222E+03  0.34950577926E+03  0.00000000000E+00 0. -1.
          1    1    1    2  501    0  0.10194338603E+02 -0.78922999754E+02  0.17421623991E+03  0.19153084002E+03  0.00000000000E+00 0. -1.
<scales pt_clust_3="44.19072" pt_clust_4="74.33009" pt_clust_5="49.33042" pt_clust_6="14000.00000"></scales>
<clustering>
<clus scale="   44.191">  2  3  1 -1</clus>
<clus scale="   49.330">  2  5  1 -1</clus>
<clus scale="   74.330">  2  4  1 -1</clus>
<clus scale="   44.191">  2  3  1 -1</clus>
</clustering>
</event>
<event>
 6    0  0.1631680E+002  0.1360639E+03  0.7546771E-02  0.1218726E+00
         21   -1    0    0  503  502  0.00000000000E+00  0.00000000000E+00  0.40913889596E+02  0.40913889596E+02  0.00000000000E+00 0. -1.
          2   -1    0    0  505    0 -0.00000000000E+00 -0.00000000000E+00 -0.30028057347E+04  0.30028057347E+04  0.00000000000E+00 0.  1.
         21    1    1    2  503  504  0.67684048297E+01  0.34131783569E+02 -0.82058637105E+02  0.89131419135E+02  0.00000000000E+00 0. -1.
         21    1    1    2  504  501  0.40436996407E+02 -0.40361136297E+02 -0.73923733212E+03  0.74144184209E+03  0.00000000000E+00 0.  1.
         21    1    1    2  505  502 -0.83288556135E+02  0.63761287976E+02 -0.41265594842E+02  0.11271794331E+03  0.00000000000E+00 0. -1.
          2    1    1    2  501    0  0.36083154898E+02 -0.57531935249E+02 -0.20993302811E+04  0.21004284198E+04  0.00000000000E+00 0.  1.
<scales pt_clust_3="34.79641" pt_clust_4="52.74937" pt_clust_5="123.25292" pt_clust_6="52.74937"></scales>
<clustering>
<clus scale="   34.796">  1  3  2 -1</clus>
<clus scale="   52.749">  4  6 -1 -1</clus>
<clus scale="  123.253">  1  5  2 -1</clus>
<clus scale="   34.796">  1  3  2 -1</clus>
</clustering>
</event>
<event>
 6    0  0.1631680E+002  0.6880563E+02  0.7546771E-02  0.1364202E+00
          3   -1    0    0  504    0 -0.00000000000E+00  0.00000000000E+00  0.11685521851E+03  0.11685521851E+03  0.00000000000E+00 0. -1.
         21   -1    0    0  505  502  0.00000000000E+00 -0.00000000000E+00 -0.16513690013E+04  0.16513690013E+04  0.00000000000E+00 0. -1.
         21    1    1    2  503  502  0.97450913472E+02  0.71069671432E+02 -0.49130179484E+03  0.50589033628E+03  0.00000000000E+00 0. -1.
         21    1    1    2  504  503 -0.67714037365E+02 -0.63680020575E+01  0.92638668521E+02  0.11492460664E+03  0.00000000000E+00 0. -1.
         21    1    1    2  505  501 -0.30371778353E+02 -0.39779015218E+01 -0.97493651474E+03  0.97541759078E+03  0.00000000000E+00 0. -1.
          3    1    1    2  501    0  0.63490224674E+00 -0.60723767853E+02 -0.16091414168E+03  0.17199168607E+03  0.00000000000E+00 0. -1.
<scales pt_clust_3="68.80563" pt_clust_4="14000.00000" pt_clust_5="30.63117" pt_clust_6="62.08110"></scales>
<clustering>
<clus scale="   30.631">  2  5  1 -1</clus>
<clus scale="   62.081">  2  6  1 -1</clus>
<clus scale="   68.806">  2  3  1 -1</clus>
<clus scale="   30.631">  2  3  1 -1</clus>
</clustering>
</event>
<event>
 6    0  0.1631680E+002  0.1539862E+03  0.7546771E-02  0.1195659E+00
          2   -1    0    0  505    0 -0.00000000000E+00  0.00000000000E+00  0.36171254168E+04  0.36171254168E+04  0.00000000000E+00 0.  1.
         21   -1    0    0  503  502  0.00000000000E+00 -0.00000000000E+00 -0.37514509192E+03  0.37514509192E+03  0.00000000000E+00 0.  1.
         21    1    1    2  503  501 -0.35660188450E+02  0.15790442081E+03 -0.17327961318E+03  0.23713135494E+03  0.00000000000E+00 0.  1.
         21    1    1    2  504  502 -0.89082897289E+01 -0.14872265742E+03 -0.13626360851E+03  0.20190482277E+03  0.00000000000E+00 0.  1.
         21    1    1    2  505  504 -0.27000533032E+02  0.17352082333E+02  0.78032069288E+03  0.78098047817E+03  0.00000000000E+00 0.  1.
          2    1    1    2  501    0  0.71569011211E+02 -0.26533845725E+02  0.27712028537E+04  0.27722538529E+04  0.00000000000E+00 0.  1.
<scales pt_clust_3="153.98619" pt_clust_4="14000.00000" pt_clust_5="32.09554" pt_clust_6="46.18876"></scales>
<clustering>
<clus scale="   32.096">  1  5  2 -1</clus>
<clus scale="   46.189">  1  6  2 -1</clus>
<clus scale="  153.986">  2  3  1 -1</clus>
<clus scale="  153.986">  2  3  1 -1</clus>
</clustering>
</event>
<event>
 6    0  0.1631680E+002  0.8893550E+02  0.7546771E-02  0.1305450E+00
         21   -1    0    0  503  502  0.00000000000E+00  0.00000000000E+00  0.23034453350E+03  0.23034453350E+03  0.00000000000E+00 0.  1.
          2   -1    0    0  505    0 -0.00000000000E+00 -0.00000000000E+00 -0.11107636870E+04  0.11107636870E+04  0.00000000000E+00 0. -1.
         21    1    1    2  503  501 -0.82069087522E+02  0.91043351523E+01  0.15334515111E+03  0.17416359957E+03  0.00000000000E+00 0.  1.
         21    1    1    2  504  502  0.13184814760E+03  0.17847369016E+01 -0.57837355261E+01  0.13198701037E+03  0.00000000000E+00 0.  1.
         21    1    1    2  505  504  0.33631191082E+02  0.77067376110E+01 -0.30197596101E+03  0.30394067159E+03  0.00000000000E+00 0. -1.
          2    1    1    2  501    0 -0.83410251155E+02 -0.18595809665E+02 -0.72600460807E+03  0.73101693898E+03  0.00000000000E+00 0. -1.
<scales pt_clust_3="14000.00000" pt_clust_4="88.93550" pt_clust_5="34.50291" pt_clust_6="54.34279"></scales>
<clustering>
<clus scale="   34.503">  2  5  1 -1</clus>
<clus scale="   54.343">  2  6  1 -1</clus>
<clus scale="   88.936">  2  4  1 -1</clus>
<clus scale="   88.936">  1  3  2 -1</clus>
</clustering>
</event>
<event>
 6    0  0.1631680E+002  0.1073300E+03  0.7546771E-02  0.1265596E+00
          1   -1    0    0  503    0 -0.00000000000E+00  0.00000000000E+00  0.16921699097E+04  0.16921699097E+04  0.00000000000E+00 0. -1.
         21   -1    0    0  501  502  0.00000000000E+00 -0.00000000000E+00 -0.60026692227E+02  0.60026692227E+02  0.00000000000E+00 0. -1.
         21    1    1    2  503  505 -0.31560856285E+02  0.74397610520E+01  0.25213060197E+03  0.25420715597E+03  0.00000000000E+00 0.  1.
         21    1    1    2  504  502 -0.57081090473E+02  0.21416348565E+02  0.12460860018E+02  0.62226874482E+02  0.00000000000E+00 0. -1.
         21    1    1    2  505  504  0.12582091747E+03  0.60905233483E+02  0.11941045106E+03  0.18384560523E+03  0.00000000000E+00 0. -1.
          1    1    1    2  501    0 -0.37178970713E+02 -0.89761343100E+02  0.12481413044E+04  0.12519169662E+04  0.00000000000E+00 0. -1.
<scales pt_clust_3="32.42588" pt_clust_4="61.80123" pt_clust_5="107.33002" pt_clust_6="14000.00000"></scales>
<clustering>
<clus scale="   32.426">  1  3  2 -1</clus>
<clus scale="   61.801">  2  4  1 -1</clus>
<clus scale="  107.330">  2  5  1 -1</clus>
<clus scale="   61.801">  2  3  1 -1</clus>
</clustering>
</event>
<event>
 6    0  0.1631680E+002  0.1823668E+03  0.7546771E-02  0.1165532E+00
          1   -1    0    0  505    0 -0.00000000000E+00  0.00000000000E+00  0.26631631596E+04  0.26631631596E+04  0.00000000000E+00 0. -1.
         21   -1    0    0  503  502  0.00000000000E+00 -0.00000000000E+00 -0.32532452822E+03  0.32532452822E+03  0.00000000000E+00 0. -1.
         21    1    1    2  503  501 -0.14359296988E+02 -0.57246566976E+02 -0.25278868885E+03  0.25958713383E+03  0.00000000000E+00 0. -1.
         21    1    1    2  504  502  0.13059644549E+03 -0.84457471730E+02  0.34046524758E+02  0.15920949078E+03  0.00000000000E+00 0. -1.
         21    1    1    2  505  504  0.25792631718E+02 -0.20334096719E+02  0.67765683743E+03  0.67845230094E+03  0.00000000000E+00 0.  1.
          1    1    1    2  501    0 -0.14202978022E+03  0.16203813543E+03  0.18789239580E+04  0.18912387623E+04  0.00000000000E+00 0. -1.
<scales pt_clust_3="59.04304" pt_clust_4="182.36684" pt_clust_5="32.84411" pt_clust_6="14000.00000"></scales>
<clustering>
<clus scale="   32.844">  1  5  2 -1</clus>
<clus scale="   59.043">  2  3  1 -1</clus>
<clus scale="  182.367">  2  4  1 -1</clus>
<clus scale="   59.043">  2  3  1 -1</clus>
</clustering>
</event>
<event>
 6    0  0.2553497E+002  0.8577950E+02  0.7546771E-02  0.1313407E+00
          1   -1    0    0  503    0 -0.00000000000E+00  0.00000000000E+00  0.15444119579E+04  0.15444119579E+04  0.00000000000E+00 0. -1.
         21   -1    0    0  505  502  0.00000000000E+00 -0.00000000000E+00 -0.84908436117E+03  0.84908436117E+03  0.00000000000E+00 0.  1.
         21    1    1    2  503  504 -0.20903994067E+02  0.55441164622E+02  0.77903839803E+02  0.97875982543E+02  0.00000000000E+00 0.  1.
         21    1    1    2  504  502  0.20454311910E+02  0.22665397626E+02 -0.54146040724E+02  0.62160219203E+02  0.00000000000E+00 0. -1.
         21    1    1    2  505  501  0.47534761674E+02  0.30274052757E+02 -0.77752028278E+03  0.77956004385E+03  0.00000000000E+00 0.  1.
          1    1    1    2  501    0 -0.47085079517E+02 -0.10838061500E+03  0.14490900804E+04  0.14539000734E+04  0.00000000000E+00 0. -1.
<scales pt_clust_3="59.42880" pt_clust_4="30.53030" pt_clust_5="85.77950" pt_clust_6="14000.00000"></scales>
<clustering>
<clus scale="   30.530">  2  4  1 -1</clus>
<clus scale="   59.429">  1  3  2 -1</clus>
<clus scale="   85.780">  2  5  1 -1</clus>
<clus scale="   30.530">  2  3  1 -1</clus>
</clustering>
</event>
<event>
 6    0  0.1631680E+002  0.7188406E+02  0.7546771E-02  0.1353801E+00
          2   -1    0    0  505    0 -0.00000000000E+00  0.00000000000E+00  0.32581740595E+03  0.32581740595E+03  0.00000000000E+00 0. -1.
         21   -1    0    0  504  502  0.00000000000E+00 -0.00000000000E+00 -0.17997657051E+03  0.17997657051E+03  0.00000000000E+00 0. -1.
         21    1    1    2  503  501 -0.84601516067E+02 -0.19078655208E+02  0.68295232559E+02  0.11038863345E+03  0.00000000000E+00 0. -1.
         21    1    1    2  504  503  0.65376805170E+02 -0.40884343706E+02 -0.32610812744E+02  0.83720495234E+02  0.00000000000E+00 0. -1.
         21    1    1    2  505  502 -0.27532589241E+02  0.69078533013E+02 -0.83757417814E+02  0.11200532234E+03  0.00000000000E+00 0. -1.
          2    1    1    2  501    0  0.46757300138E+02 -0.91155340998E+01  0.19391383344E+03  0.19967952544E+03  0.00000000000E+00 0. -1.
<scales pt_clust_3="58.06915" pt_clust_4="71.88406" pt_clust_5="14000.00000" pt_clust_6="47.63757"></scales>
<clustering>
<clus scale="   47.638">  1  6  2 -1</clus>
<clus scale="   58.069">  1  3  2 -1</clus>
<clus scale="   71.884">  1  4  2 -1</clus>
<clus scale="   71.884">  2  3  1 -1</clus>
</clustering>
</event>
<event>
 6    0  0.1631680E+002  0.2008947E+03  0.7546771E-02  0.1148986E+00
         21   -1    0    0  503  502  0.00000000000E+00  0.00000000000E+00  0.47006730021E+03  0.47006730021E+03  0.00000000000E+00 0.  1.
         -2   -1    0    0    0  501 -0.00000000000E+00 -0.00000000000E+00 -0.27966071678E+03  0.27966071678E+03  0.00000000000E+00 0. -1.
         21    1    1    2  503  501  0.49530842954E+02  0.16478811276E+03  0.85422844808E+02  0.19210801370E+03  0.00000000000E+00 0.  1.
         21    1    1    2  504  502 -0.54157030105E+02  0.26134751035E+02  0.28014286046E+03  0.28652405028E+03  0.00000000000E+00 0.  1.
         21    1    1    2  505  504 -0.29407884625E+02 -0.30699219358E+02 -0.28027994028E+02  0.50919880170E+02  0.00000000000E+00 0.  1.
         -2    1    1    2    0  505  0.34034071776E+02 -0.16022364444E+03 -0.14713112781E+03  0.22017607284E+03  0.00000000000E+00 0. -1.
<scales pt_clust_3="184.44323" pt_clust_4="60.13326" pt_clust_5="40.56236" pt_clust_6="40.56236"></scales>
<clustering>
<clus scale="   40.562">  5  6 -1 -1</clus>
<clus scale="   60.133">  1  4  2 -1</clus>
<clus scale="  184.443">  1  3  2 -1</clus>
<clus scale="   60.133">  1  3  2 -1</clus>
</clustering>
</event>
<event>
 6    0  0.1631680E+002  0.8044807E+02  0.7546771E-02  0.1327785E+00
         21   -1    0    0  503  502  0.00000000000E+00  0.00000000000E+00  0.48977006134E+03  0.48977006134E+03  0.00000000000E+00 0. -1.
          3   -1    0    0  505    0 -0.00000000000E+00 -0.00000000000E+00 -0.19427696141E+04  0.19427696141E+04  0.00000000000E+00 0. -1.
         21    1    1    2  503  501  0.16606417617E+01  0.67791242959E+02  0.29455914690E+03  0.30226395977E+03  0.00000000000E+00 0. -1.
         21    1    1    2  504  502 -0.72750453997E+02 -0.30107919732E+02  0.18049328904E+03  0.19691861968E+03  0.00000000000E+00 0. -1.
         21    1    1    2  505  504 -0.26786274255E+02  0.14085486587E+02 -0.56788460713E+03  0.56869045397E+03  0.00000000000E+00 0. -1.
          3    1    1    2  501    0  0.97876086490E+02 -0.51768809814E+02 -0.13601673816E+04  0.13646666420E+04  0.00000000000E+00 0. -1.
<scales pt_clust_3="67.84925" pt_clust_4="14000.00000" pt_clust_5="30.26393" pt_clust_6="80.44807"></scales>
<clustering>
<clus scale="   30.264">  2  5  1 -1</clus>
<clus scale="   67.849">  1  3  2 -1</clus>
<clus scale="   80.448">  2  6  1 -1</clus>
<clus scale="   67.849">  1  3  2 -1</clus>
</clustering>
</event>
<event>
 6    0  0.1631680E+002  0.1029867E+03  0.7546771E-02  0.1274138E+00
         21   -1    0    0  505  502  0.00000000000E+00  0.00000000000E+00  0.10178266903E+03  0.10178266903E+03  0.00000000000E+00 0.  1.
         -2   -1    0    0    0  501 -0.00000000000E+00 -0.00000000000E+00 -0.63925624462E+03  0.63925624462E+03  0.00000000000E+00 0.  1.
         21    1    1    2  503  501 -0.39266511896E+02 -0.89170836632E+02 -0.37582891077E+03  0.38825335444E+03  0.00000000000E+00 0.  1.
         21    1    1    2  504  502  0.86280019581E+02  0.12560534481E+00 -0.35208599627E+02  0.93187461835E+02  0.00000000000E+00 0. -1.
         21    1    1    2  505  503 -0.41961246651E+02 -0.60442575821E+02 -0.20736387201E+02  0.76446379551E+02  0.00000000000E+00 0.  1.
         -2    1    1    2    0  504 -0.50522610335E+01  0.14948780711E+03 -0.10569967798E+03  0.18315171782E+03  0.00000000000E+00 0.  1.
<scales pt_clust_3="102.98670" pt_clust_4="73.69834" pt_clust_5="73.58024" pt_clust_6="14000.00000"></scales>
<clustering>
<clus scale="   73.580">  1  5  2 -1</clus>
<clus scale="   73.698">  1  4  2 -1</clus>
<clus scale="  102.987">  2  3  1 -1</clus>
<clus scale="   73.580">  1  3  2 -1</clus>
</clustering>
</event>
<event>
 6    0  0.1631680E+002  0.1052841E+03  0.7546771E-02  0.1269561E+00
          2   -1    0    0  503    0 -0.00000000000E+00  0.00000000000E+00  0.28369809412E+04  0.28369809412E+04  0.00000000000E+00 0.  1.
         21   -1    0    0  504  502  0.00000000000E+00 -0.00000000000E+00 -0.13291644759E+03  0.13291644759E+03  0.00000000000E+00 0. -1.
         21    1    1    2  503  505  0.46523939692E+02 -0.75064190131E+02  0.25701216451E+03  0.27176159094E+03  0.00000000000E+00 0.  1.
         21    1    1    2  504  501  0.27285194224E+02  0.43037307186E+02  0.29385691008E+01  0.51042402197E+02  0.00000000000E+00 0. -1.
         21    1    1    2  505  502  0.13559957961E+02  0.59272548732E+02 -0.91482500099E+02  0.10984605281E+03  0.00000000000E+00 0. -1.
          2    1    1    2  501    0 -0.87369091877E+02 -0.27245665788E+02  0.25355962601E+04  0.25372473428E+04  0.00000000000E+00 0.  1.
<scales pt_clust_3="86.86381" pt_clust_4="50.95774" pt_clust_5="105.28406" pt_clust_6="14000.00000"></scales>
<clustering>
<clus scale="   50.958">  2  4  1 -1</clus>
<clus scale="   86.864">  1  3  2 -1</clus>
<clus scale="  105.284">  2  5  1 -1</clus>
<clus scale="   50.958">  2  3  1 -1</clus>
</clustering>
</event>
<event>
 6    0  0.3438572E+002  0.1418342E+03  0.7546771E-02  0.1210882E+00
         21   -1    0    0  504  502  0.00000000000E+00  0.00000000000E+00  0.45606882698E+03  0.45606882698E+03  0.00000000000E+00 0.  1.
          3   -1    0    0  505    0 -0.00000000000E+00 -0.00000000000E+00 -0.17600124263E+04  0.17600124263E+04  0.00000000000E+00 0. -1.
         21    1    1    2  503  502 -0.11388777586E+02 -0.36713155198E+02 -0.19025307566E+03  0.19409737973E+03  0.00000000000E+00 0.  1.
         21    1    1    2  504  501 -0.70410934605E+02  0.12365807073E+03  0.43392988888E+03  0.45666636249E+03  0.00000000000E+00 0.  1.
         21    1    1    2  505  503  0.20490738376E+02 -0.29882225437E+02 -0.34989100267E+02  0.50369185955E+02  0.00000000000E+00 0. -1.
          3    1    1    2  501    0  0.61308973816E+02 -0.57062690091E+02 -0.15126313123E+04  0.15149483251E+04  0.00000000000E+00 0. -1.
<scales pt_clust_3="41.07679" pt_clust_4="141.83423" pt_clust_5="36.23283" pt_clust_6="14000.00000"></scales>
<clustering>
<clus scale="   36.233">  2  5  1 -1</clus>
<clus scale="   41.077">  2  3  1 -1</clus>
<clus scale="  141.834">  1  4  2 -1</clus>
<clus scale="  141.834">  1  3  2 -1</clus>
</clustering>
</event>
<event>
 6    0  0.1631680E+002  0.1522553E+03  0.7546771E-02  0.1197729E+00
          2   -1    0    0  503    0 -0.00000000000E+00  0.00000000000E+00  0.31361312576E+04  0.31361312576E+04  0.00000000000E+00 0. -1.
         21   -1    0    0  505  502  0.00000000000E+00 -0.00000000000E+00 -0.16094584031E+04  0.16094584031E+04  0.00000000000E+00 0.  1.
         21    1    1    2  503  504 -0.17177119044E+02 -0.27705361289E+02  0.13710833847E+04  0.13714708484E+04  0.00000000000E+00 0. -1.
         21    1    1    2  504  502  0.16947464694E+02  0.38038128096E+02 -0.15923840575E+04  0.15929284674E+04  0.00000000000E+00 0.  1.
         21    1    1    2  505  501  0.10240733450E+03  0.81508600140E+02  0.30771710344E+03  0.33439606727E+03  0.00000000000E+00 0. -1.
          2    1    1    2  501    0 -0.10217768015E+03 -0.91841366946E+02  0.14402564239E+04  0.14467942776E+04  0.00000000000E+00 0. -1.
<scales pt_clust_3="32.59817" pt_clust_4="41.63773" pt_clust_5="152.25527" pt_clust_6="14000.00000"></scales>
<clustering>
<clus scale="   32.598">  1  3  2 -1</clus>
<clus scale="   41.638">  2  4  1 -1</clus>
<clus scale="  152.255">  2  5  1 -1</clus>
<clus scale="   41.638">  2  3  1 -1</clus>
</clustering>
</event>
<event>
 6    0  0.1631680E+002  0.1129334E+03  0.7546771E-02  0.1255232E+00
         21   -1    0    0  504  502  0.00000000000E+00  0.00000000000E+00  0.22471378477E+04  0.22471378477E+04  0.00000000000E+00 0. -1.
          3   -1    0    0  505    0 -0.00000000000E+00 -0.00000000000E+00 -0.19037170625E+03  0.19037170625E+03  0.00000000000E+00 0.  1.
         21    1    1    2  503  501  0.55003457751E+02 -0.15205017245E+02  0.81166764339E+03  0.81367127038E+03  0.00000000000E+00 0. -1.
         21    1    1    2  504  503  0.49555096165E+02  0.83742676493E+01  0.13851537846E+04  0.13860652376E+04  0.00000000000E+00 0. -1.
         21    1    1    2  505  502 -0.28975958176E+02  0.59367340456E+02  0.47022680378E+01  0.66228382056E+02  0.00000000000E+00 0.  1.
          3    1    1    2  501    0 -0.75582595740E+02 -0.52536590860E+02 -0.14475755449E+03  0.17154466398E+03  0.00000000000E+00 0.  1.
<scales pt_clust_3="40.22402" pt_clust_4="40.22402" pt_clust_5="66.06124" pt_clust_6="104.48337"></scales>
<clustering>
<clus scale="   40.224">  3  4 -1 -1</clus>
<clus scale="   66.061">  2  5  1 -1</clus>
<clus scale="  104.483">  2  6  1 -1</clus>
<clus scale="  112.933">  1  3  2 -1</clus>
</clustering>
</event>
<event>
 6    0  0.1631680E+002  0.8200369E+02  0.7546771E-02  0.1323460E+00
          1   -1    0    0  503    0 -0.00000000000E+00  0.00000000000E+00  0.98683546587E+03  0.98683546587E+03  0.00000000000E+00 0.  1.
         21   -1    0    0  504  502  0.00000000000E+00 -0.00000000000E+00 -0.29975989585E+03  0.29975989585E+03  0.00000000000E+00 0.  1.
         21    1    1    2  503  505  0.47758516483E+02 -0.28528970344E+02  0.27465314956E+03  0.28023049550E+03  0.00000000000E+00 0. -1.
         21    1    1    2  504  501  0.25595770142E+02 -0.72235879921E+02 -0.72164157088E+02  0.10526552791E+03  0.00000000000E+00 0.  1.
         21    1    1    2  505  502 -0.76448165189E+02  0.13916635747E+03 -0.17734957193E+03  0.23804299543E+03  0.00000000000E+00 0.  1.
          1    1    1    2  501    0  0.30938785639E+01 -0.38401507201E+02  0.66193614948E+03  0.66305634288E+03  0.00000000000E+00 0.  1.
<scales pt_clust_3="82.00369" pt_clust_4="78.53800" pt_clust_5="14000.00000" pt_clust_6="38.52594"></scales>
<clustering>
<clus scale="   38.526">  1  6  2 -1</clus>
<clus scale="   78.538">  2  4  1 -1</clus>
<clus scale="   82.004">  1  3  2 -1</clus>
<clus scale="   78.538">  2  3  1 -1</clus>
</clustering>
</event>
<event>
 6    0  0.1631680E+002  0.1443196E+03  0.7546771E-02  0.1207632E+00
          1   -1    0    0  503    0 -0.00000000000E+00  0.00000000000E+00  0.13985748393E+04  0.13985748393E+04  0.00000000000E+00 0. -1.
         21   -1    0    0  505  502  0.00000000000E+00 -0.00000000000E+00 -0.10780813915E+03  0.10780813915E+03  0.00000000000E+00 0. -1.
         21    1    1    2  503  502  0.27645887854E+02  0.18305507343E+02  0.54398024777E+02  0.63706607302E+02  0.00000000000E+00 0. -1.
         21    1    1    2  504  501 -0.47802033847E+02 -0.86265168459E+02  0.43194179429E+03  0.44305804065E+03  0.00000000000E+00 0. -1.
         21    1    1    2  505  504  0.47548149662E+01  0.13820463687E+03 -0.46319702189E+02  0.14583773424E+03  0.00000000000E+00 0. -1.
          1    1    1    2  501    0  0.15401331027E+02 -0.70244975750E+02  0.85074658327E+03  0.85378059626E+03  0.00000000000E+00 0. -1.
<scales pt_clust_3="33.15700" pt_clust_4="144.31964" pt_clust_5="14000.00000" pt_clust_6="71.73910"></scales>
<clustering>
<clus scale="   33.157">  2  3  1 -1</clus>
<clus scale="   71.739">  1  6  2 -1</clus>
<clus scale="  144.320">  1  4  2 -1</clus>
<clus scale="   33.157">  2  3  1 -1</clus>
</clustering>
</event>
<event>
 6    0  0.1631680E+002  0.1050556E+03  0.7546771E-02  0.1270010E+00
          2   -1    0    0  505    0 -0.00000000000E+00  0.00000000000E+00  0.11361585151E+04  0.11361585151E+04  0.00000000000E+00 0. -1.
         21   -1    0    0  503  502  0.00000000000E+00 -0.00000000000E+00 -0.45742438174E+02  0.45742438174E+02  0.00000000000E+00 0. -1.
         21    1    1    2  503  504 -0.29065437204E+02  0.75217330473E+01  0.11914729948E+02  0.32300725961E+02  0.00000000000E+00 0. -1.
         21    1    1    2  504  501 -0.92737832676E+02 -0.37769541757E+02  0.34260610462E+03  0.35693947220E+03  0.00000000000E+00 0. -1.
         21    1    1    2  505  502  0.38066377188E+02 -0.40714596710E+02  0.77323904560E+01  0.56271816389E+02  0.00000000000E+00 0. -1.
          2    1    1    2  501    0  0.83736892691E+02  0.70962405420E+02  0.72816285194E+03  0.73638893876E+03  0.00000000000E+00 0. -1.
<scales pt_clust_3="30.02293" pt_clust_4="14000.00000" pt_clust_5="39.97485" pt_clust_6="105.05561"></scales>
<clustering>
<clus scale="   30.023">  2  3  1 -1</clus>
<clus scale="   39.975">  2  5  1 -1</clus>
<clus scale="  105.056">  1  6  2 -1</clus>
<clus scale="   30.023">  2  3  1 -1</clus>
</clustering>
</event>
<event>
 6    0  0.1631680E+002  0.1079936E+03  0.7546771E-02  0.1264331E+00
         21   -1    0    0  505  502  0.00000000000E+00  0.00000000000E+00  0.96186360831E+02  0.96186360831E+02  0.00000000000E+00 0. -1.
          1   -1    0    0  503    0 -0.00000000000E+00 -0.00000000000E+00 -0.76783846867E+03  0.76783846867E+03  0.00000000000E+00 0. -1.
         21    1    1    2  503  504 -0.39256007889E+02  0.25245411813E+02 -0.17607088747E+03  0.18215192118E+03  0.00000000000E+00 0.  1.
         21    1    1    2  504  502  0.31529530798E+02 -0.40489662942E+02 -0.20553174787E+00  0.51318284858E+02  0.00000000000E+00 0. -1.
         21    1    1    2  505  501 -0.20623661982E+02 -0.74663754823E+02  0.39836652506E+02  0.87103218084E+02  0.00000000000E+00 0. -1.
          1    1    1    2  501    0  0.28350139073E+02  0.89908005952E+02 -0.53521234112E+03  0.54345140538E+03  0.00000000000E+00 0. -1.
<scales pt_clust_3="46.67296" pt_clust_4="49.39549" pt_clust_5="107.99364" pt_clust_6="14000.00000"></scales>
<clustering>
<clus scale="   46.673">  2  3  1 -1</clus>
<clus scale="   49.395">  1  4  2 -1</clus>
<clus scale="  107.994">  1  5  2 -1</clus>
<clus scale="   49.395">  1  3  2 -1</clus>
</clustering>
</event>
<event>
 6    0  0.1631680E+002  0.9391376E+02  0.7546771E-02  0.1293641E+00
          1   -1    0    0  505    0 -0.00000000000E+00  0.00000000000E+00  0.32656445611E+04  0.32656445611E+04  0.00000000000E+00 0.  1.
         21   -1    0    0  504  502  0.00000000000E+00 -0.00000000000E+00 -0.67802198983E+03  0.67802198983E+03  0.00000000000E+00 0.  1.
         21    1    1    2  503  501  0.10328213934E+03 -0.12631440714E+01  0.33808600746E+03  0.35351229721E+03  0.00000000000E+00 0. -1.
         21    1    1    2  504  503 -0.31364351359E+02 -0.58342125866E+02 -0.66676762573E+03  0.67004969435E+03  0.00000000000E+00 0.  1.
         21    1    1    2  505  502 -0.45172770043E+01 -0.33590379212E+02  0.64191992734E+03  0.64281405747E+03  0.00000000000E+00 0.  1.
          1    1    1    2  501    0 -0.67400510974E+02  0.93195649149E+02  0.22743842622E+04  0.22772905019E+04  0.00000000000E+00 0.  1.
<scales pt_clust_3="93.91376" pt_clust_4="66.25825" pt_clust_5="33.89276" pt_clust_6="14000.00000"></scales>
<clustering>
<clus scale="   33.893">  1  5  2 -1</clus>
<clus scale="   66.258">  2  4  1 -1</clus>
<clus scale="   93.914">  2  3  1 -1</clus>
<clus scale="   66.258">  2  3  1 -1</clus>
</clustering>
</event>
<event>
 6    0  0.1631680E+002  0.1062747E+03  0.7546771E-02  0.1267628E+00
         21   -1    0    0  505  502  0.00000000000E+00  0.00000000000E+00  0.11158432684E+03  0.11158432684E+03  0.00000000000E+00 0.  1.
          2   -1    0    0  504    0 -0.00000000000E+00 -0.00000000000E+00 -0.38597568727E+04  0.38597568727E+04  0.00000000000E+00 0.  1.
         21    1    1    2  503  502 -0.31246362485E+02 -0.40201832021E+02 -0.49195981762E+02  0.70800897507E+02  0.00000000000E+00 0.  1.
         21    1    1    2  504  503 -0.12513441124E+02  0.76333755904E+02 -0.10022833552E+04  0.10052638224E+04  0.00000000000E+00 0.  1.
         21    1    1    2  505  501  0.11601088805E+03 -0.31126772254E+02  0.62315917645E+02  0.13531694532E+03  0.00000000000E+00 0.  1.
          2    1    1    2  501    0 -0.72251084444E+02 -0.50051516298E+01 -0.27590091265E+04  0.27599595343E+04  0.00000000000E+00 0.  1.
<scales pt_clust_3="50.91682" pt_clust_4="14000.00000" pt_clust_5="106.27469" pt_clust_6="72.58454"></scales>
<clustering>
<clus scale="   50.917">  1  3  2 -1</clus>
<clus scale="   72.585">  2  6  1 -1</clus>
<clus scale="  106.275">  1  5  2 -1</clus>
<clus scale="   50.917">  1  3  2 -1</clus>
</clustering>
</event>
<event>
 6    0  0.1631680E+002  0.1914998E+03  0.7546771E-02  0.1157116E+00
         21   -1    0    0  503  502  0.00000000000E+00  0.00000000000E+00  0.25454779855E+03  0.25454779855E+03  0.00000000000E+00 0. -1.
          2   -1    0    0  504    0 -0.00000000000E+00 -0.00000000000E+00 -0.22873633597E+04  0.22873633597E+04  0.00000000000E+00 0.  1.
         21    1    1    2  503  501  0.39857742709E+02 -0.91496674073E+02  0.14810372610E+03  0.17859169831E+03  0.00000000000E+00 0. -1.
         21    1    1    2  504  505  0.46666222578E+02 -0.48906662494E+01 -0.12773037606E+04  0.12781653069E+04  0.00000000000E+00 0.  1.
         21    1    1    2  505  502 -0.16685705333E+03 -0.63099109445E+02 -0.15274569976E+02  0.17904213567E+03  0.00000000000E+00 0.  1.
          2    1    1    2  501    0  0.80333088042E+02  0.15948644977E+03 -0.88834095668E+03  0.90611201737E+03  0.00000000000E+00 0.  1.
<scales pt_clust_3="100.15220" pt_clust_4="46.92180" pt_clust_5="191.49981" pt_clust_6="14000.00000"></scales>
<clustering>
<clus scale="   46.922">  2  4  1 -1</clus>
<clus scale="  100.152">  1  3  2 -1</clus>
<clus scale="  191.500">  1  5  2 -1</clus>
<clus scale="  100.152">  1  3  2 -1</clus>
</clustering>
</event>
<event>
 6    0  0.1631680E+002  0.1139393E+03  0.7546771E-02  0.1253444E+00
         21   -1    0    0  504  502  0.00000000000E+00  0.00000000000E+00  0.11362786922E+04  0.11362786922E+04  0.00000000000E+00 0.  1.
          2   -1    0    0  505    0 -0.00000000000E+00 -0.00000000000E+00 -0.26939739951E+04  0.26939739951E+04  0.00000000000E+00 0. -1.
         21    1    1    2  503  501  0.46584787660E+02 -0.86027550139E+00 -0.77700486543E+02  0.90599382583E+02  0.00000000000E+00 0.  1.
         21    1    1    2  504  503 -0.35427006718E+02  0.55014819524E+01  0.10917400674E+04  0.10923285741E+04  0.00000000000E+00 0.  1.
         21    1    1    2  505  502  0.87573475743E+02 -0.62009028122E+02 -0.42343001030E+02  0.11535667713E+03  0.00000000000E+00 0.  1.
          2    1    1    2  501    0 -0.98731256685E+02  0.57367821671E+02 -0.25293918827E+04  0.25319680536E+04  0.00000000000E+00 0. -1.
<scales pt_clust_3="41.42068" pt_clust_4="35.85163" pt_clust_5="113.93927" pt_clust_6="14000.00000"></scales>
<clustering>
<clus scale="   35.852">  1  4  2 -1</clus>
<clus scale="   41.421">  1  3  2 -1</clus>
<clus scale="  113.939">  1  5  2 -1</clus>
<clus scale="   35.852">  1  3  2 -1</clus>
</clustering>
</event>
<event>
 6    0  0.1631680E+002  0.1159748E+03  0.7546771E-02  0.1249889E+00
          2   -1    0    0  505    0 -0.00000000000E+00  0.00000000000E+00  0.32232316632E+04  0.32232316632E+04  0.00000000000E+00 0.  1.
         21   -1    0    0  501  502  0.00000000000E+00 -0.00000000000E+00 -0.41307210591E+02  0.41307210591E+02  0.00000000000E+00 0.  1.
         21    1    1    2  503  504  0.24518931847E+02 -0.97795740723E+02  0.12026706428E+04  0.12068893321E+04  0.00000000000E+00 0.  1.
         21    1    1    2  504  502  0.26133989678E+02  0.17121454322E+02 -0.27528825566E+02  0.41640915595E+02  0.00000000000E+00 0.  1.
         21    1    1    2  505  503  0.95687654359E+01 -0.32752964228E+02  0.10608079278E+04  0.10613565742E+04  0.00000000000E+00 0.  1.
          2    1    1    2  501    0 -0.60221686961E+02  0.11342725063E+03  0.94597470765E+03  0.95465205194E+03  0.00000000000E+00 0.  1.
<scales pt_clust_3="14000.00000" pt_clust_4="31.24307" pt_clust_5="33.77255" pt_clust_6="115.97484"></scales>
<clustering>
<clus scale="   31.243">  2  4  1 -1</clus>
<clus scale="   33.773">  1  5  2 -1</clus>
<clus scale="  115.975">  2  6  1 -1</clus>
<clus scale="   31.243">  2  3  1 -1</clus>
</clustering>
</event>
<event>
 6    0  0.1631680E+002  0.1007089E+03  0.7546771E-02  0.1278812E+00
         21   -1    0    0  504  502  0.00000000000E+00  0.00000000000E+00  0.47326553337E+02  0.47326553337E+02  0.00000000000E+00 0. -1.
          2   -1    0    0  505    0 -0.00000000000E+00 -0.00000000000E+00 -0.19569258039E+04  0.19569258039E+04  0.00000000000E+00 0. -1.
         21    1    1    2  503  502  0.29803742804E+02  0.91895763919E+01  0.21075862395E+02  0.37641776992E+02  0.00000000000E+00 0. -1.
         21    1    1    2  504  501  0.35260089679E+02 -0.77290863033E+01 -0.17493993218E+02  0.40112996621E+02  0.00000000000E+00 0.  1.
         21    1    1    2  505  503  0.78960045294E+02 -0.15740318774E+02 -0.76728470370E+03  0.77149741601E+03  0.00000000000E+00 0.  1.
          2    1    1    2  501    0 -0.14402387778E+03  0.14279828686E+02 -0.11458964160E+04  0.11550001676E+04  0.00000000000E+00 0. -1.
<scales pt_clust_3="31.18832" pt_clust_4="54.05458" pt_clust_5="14000.00000" pt_clust_6="100.70889"></scales>
<clustering>
<clus scale="   31.188">  1  3  2 -1</clus>
<clus scale="   54.055">  1  4  2 -1</clus>
<clus scale="  100.709">  1  6  2 -1</clus>
<clus scale="   31.188">  1  3  2 -1</clus>
</clustering>
</event>
<event>
 6    0  0.1631680E+002  0.1624491E+03  0.7546771E-02  0.1185959E+00
         21   -1    0    0  503  502  0.00000000000E+00  0.00000000000E+00  0.29140082124E+03  0.29140082124E+03  0.00000000000E+00 0. -1.
          2   -1    0    0  505    0 -0.00000000000E+00 -0.00000000000E+00 -0.95533471143E+03  0.95533471143E+03  0.00000000000E+00 0.  1.
         21    1    1    2  503  504 -0.13489297987E+03 -0.26947578197E+02  0.82466229148E+02  0.16038381134E+03  0.00000000000E+00 0. -1.
         21    1    1    2  504  501 -0.36083143285E+02 -0.21616215148E+02 -0.28445723273E+03  0.28755029341E+03  0.00000000000E+00 0. -1.
         21    1    1    2  505  502  0.18916097317E+03  0.75333177404E+02  0.10626551363E+03  0.22967220288E+03  0.00000000000E+00 0.  1.
          2    1    1    2  501    0 -0.18184850013E+02 -0.26769384059E+02 -0.56820840025E+03  0.56912922505E+03  0.00000000000E+00 0.  1.
<scales pt_clust_3="162.44907" pt_clust_4="64.56734" pt_clust_5="14000.00000" pt_clust_6="32.36184"></scales>
<clustering>
<clus scale="   32.362">  2  6  1 -1</clus>
<clus scale="   64.567">  2  4  1 -1</clus>
<clus scale="  162.449">  1  3  2 -1</clus>
<clus scale="  162.449">  1  3  2 -1</clus>
</clustering>
</event>
<event>
 6    0  0.1631680E+002  0.9496583E+02  0.7546771E-02  0.1291253E+00
          2   -1    0    0  503    0 -0.00000000000E+00  0.00000000000E+00  0.39845920913E+03  0.39845920913E+03  0.00000000000E+00 0. -1.
         21   -1    0    0  504  502  0.00000000000E+00 -0.00000000000E+00 -0.22110387916E+03  0.22110387916E+03  0.00000000000E+00 0. -1.
         21    1    1    2  503  505 -0.37355041410E+02 -0.22421787193E+02  0.43396595939E+02  0.61493090659E+02  0.00000000000E+00 0. -1.
         21    1    1    2  504  501 -0.87016516697E+01  0.35526716202E+02 -0.54708539172E+02  0.65809502081E+02  0.00000000000E+00 0. -1.
         21    1    1    2  505  502 -0.80153879609E+02 -0.59325704014E+02 -0.11974654381E+03  0.15583137787E+03  0.00000000000E+00 0. -1.
          2    1    1    2  501    0  0.12621057269E+03  0.46220775005E+02  0.30841381701E+03  0.33642911768E+03  0.00000000000E+00 0. -1.
<scales pt_clust_3="43.00371" pt_clust_4="36.57685" pt_clust_5="14000.00000" pt_clust_6="94.96583"></scales>
<clustering>
<clus scale="   36.577">  2  4  1 -1</clus>
<clus scale="   43.004">  1  3  2 -1</clus>
<clus scale="   94.966">  1  6  2 -1</clus>
<clus scale="   36.577">  2  3  1 -1</clus>
</clustering>
</event>
<event>
 6    0  0.1631680E+002  0.1331081E+03  0.7546771E-02  0.1222915E+00
         21   -1    0    0  501  502  0.00000000000E+00  0.00000000000E+00  0.17644745926E+04  0.17644745926E+04  0.00000000000E+00 0.  1.
          1   -1    0    0  505    0 -0.00000000000E+00 -0.00000000000E+00 -0.37234747693E+04  0.37234747693E+04  0.00000000000E+00 0. -1.
         21    1    1    2  503  504 -0.81881074704E+02  0.45732911186E+02  0.22248487749E+03  0.24144467332E+03  0.00000000000E+00 0. -1.
         21    1    1    2  504  502  0.13881139580E+03 -0.52430662571E+02  0.15226047689E+04  0.15298179173E+04  0.00000000000E+00 0.  1.
         21    1    1    2  505  503 -0.95233877600E+01  0.34003295760E+02 -0.45059641428E+02  0.57247622855E+02  0.00000000000E+00 0. -1.
          1    1    1    2  501    0 -0.47406933337E+02 -0.27305544375E+02 -0.36590301817E+04  0.36594391484E+04  0.00000000000E+00 0. -1.
<scales pt_clust_3="14000.00000" pt_clust_4="133.10808" pt_clust_5="35.31174" pt_clust_6="57.27521"></scales>
<clustering>
<clus scale="   35.312">  2  5  1 -1</clus>
<clus scale="   57.275">  2  6  1 -1</clus>
<clus scale="  133.108">  1  4  2 -1</clus>
<clus scale="  133.108">  1  3  2 -1</clus>
</clustering>
</event>
<event>
 6    0  0.2513404E+002  0.7195027E+02  0.7546771E-02  0.1353584E+00
         21   -1    0    0  501  502  0.00000000000E+00  0.00000000000E+00  0.47888049952E+03  0.47888049952E+03  0.00000000000E+00 0. -1.
          2   -1    0    0  505    0 -0.00000000000E+00 -0.00000000000E+00 -0.43649719779E+04  0.43649719779E+04  0.00000000000E+00 0. -1.
         21    1    1    2  503  502  0.48343936289E+02 -0.53253317648E+02  0.47102370146E+03  0.47648334636E+03  0.00000000000E+00 0. -1.
         21    1    1    2  504  503  0.28610263105E+02  0.26744016429E+02 -0.13408305043E+03  0.13968555395E+03  0.00000000000E+00 0.  1.
         21    1    1    2  505  504  0.26529409027E+02 -0.28402357027E+02 -0.25704597156E+03  0.25996756514E+03  0.00000000000E+00 0.  1.
          2    1    1    2  501    0 -0.10348360842E+03  0.54911658246E+02 -0.39659861578E+04  0.39677160120E+04  0.00000000000E+00 0. -1.
<scales pt_clust_3="71.95027" pt_clust_4="39.18455" pt_clust_5="38.86520" pt_clust_6="14000.00000"></scales>
<clustering>
<clus scale="   38.865">  2  5  1 -1</clus>
<clus scale="   39.185">  2  4  1 -1</clus>
<clus scale="   71.950">  1  3  2 -1</clus>
<clus scale="   71.950">  1  3  2 -1</clus>
</clustering>
</event>
<event>
 6    0  0.1631680E+002  0.1618864E+03  0.7546771E-02  0.1186583E+00
         21   -1    0    0  501  502  0.00000000000E+00  0.00000000000E+00  0.17963530538E+03  0.17963530538E+03  0.00000000000E+00 0.  1.
          2   -1    0    0  505    0 -0.00000000000E+00 -0.00000000000E+00 -0.27370621391E+04  0.27370621391E+04  0.00000000000E+00 0.  1.
         21    1    1    2  503  504 -0.12601558304E+02  0.12331315891E+03  0.13321532255E+03  0.18196498727E+03  0.00000000000E+00 0.  1.
         21    1    1    2  504  502 -0.19564511963E+02  0.24492379085E+02  0.55558499830E+01  0.31835738261E+02  0.00000000000E+00 0.  1.
         21    1    1    2  505  503  0.29543144624E+02 -0.46960135156E+02 -0.33646903453E+03  0.34101240869E+03  0.00000000000E+00 0.  1.
          2    1    1    2  501    0  0.26229256425E+01 -0.10084540283E+03 -0.23597289717E+04  0.23618843102E+04  0.00000000000E+00 0.  1.
<scales pt_clust_3="30.05614" pt_clust_4="30.05614" pt_clust_5="55.48019" pt_clust_6="150.44938"></scales>
<clustering>
<clus scale="   30.056">  3  4 -1 -1</clus>
<clus scale="   55.480">  2  5  1 -1</clus>
<clus scale="  150.449">  2  6  1 -1</clus>
<clus scale="  161.886">  1  3  2 -1</clus>
</clustering>
</event>
<event>
 6    0  0.1631680E+002  0.1044809E+03  0.7546771E-02  0.1271146E+00
         -1   -1    0    0    0  501 -0.00000000000E+00  0.00000000000E+00  0.41176010986E+04  0.41176010986E+04  0.00000000000E+00 0.  1.
         21   -1    0    0  503  502  0.00000000000E+00 -0.00000000000E+00 -0.66517002211E+03  0.66517002211E+03  0.00000000000E+00 0. -1.
         21    1    1    2  503  504 -0.74298644333E+02 -0.11978481255E+01 -0.60497640899E+03  0.60952291083E+03  0.00000000000E+00 0. -1.
         21    1    1    2  504  501  0.80342831182E+02  0.63918962808E+01  0.23122159178E+04  0.23136201671E+04  0.00000000000E+00 0.  1.
         21    1    1    2  505  502 -0.20759232135E+01  0.73668963020E+02 -0.32241299400E+02  0.80442072056E+02  0.00000000000E+00 0. -1.
         -1    1    1    2    0  505 -0.39682636357E+01 -0.78863011176E+02  0.17774328671E+04  0.17791859708E+04  0.00000000000E+00 0.  1.
<scales pt_clust_3="14000.00000" pt_clust_4="104.48094" pt_clust_5="73.69821" pt_clust_6="78.85701"></scales>
<clustering>
<clus scale="   73.698">  2  5  1 -1</clus>
<clus scale="   78.857">  1  6  2 -1</clus>
<clus scale="  104.481">  1  4  2 -1</clus>
<clus scale="   73.698">  2  3  1 -1</clus>
</clustering>
</event>
<event>
 6    0  0.1631680E+002  0.1219591E+03  0.7546771E-02  0.1239900E+00
          2   -1    0    0  504    0 -0.00000000000E+00  0.00000000000E+00  0.23633316319E+04  0.23633316319E+04  0.00000000000E+00 0.  1.
         21   -1    0    0  501  502  0.00000000000E+00 -0.00000000000E+00 -0.10613880240E+04  0.10613880240E+04  0.00000000000E+00 0.  1.
         21    1    1    2  503  502  0.28294867214E+02  0.19839298867E+02 -0.58860647665E+03  0.58962003159E+03  0.00000000000E+00 0.  1.
         21    1    1    2  504  505  0.37488169047E+02 -0.76105605377E+02  0.29155524669E+03  0.30364763766E+03  0.00000000000E+00 0.  1.
         21    1    1    2  505  503  0.61605080904E+02  0.63587162808E+02 -0.46003261672E+03  0.46847467564E+03  0.00000000000E+00 0.  1.
          2    1    1    2  501    0 -0.12738811717E+03 -0.73208562977E+01  0.20590274545E+04  0.20629773110E+04  0.00000000000E+00 0.  1.
<scales pt_clust_3="34.55716" pt_clust_4="84.77099" pt_clust_5="121.95907" pt_clust_6="14000.00000"></scales>
<clustering>
<clus scale="   34.557">  2  3  1 -1</clus>
<clus scale="   84.771">  1  4  2 -1</clus>
<clus scale="  121.959">  2  5  1 -1</clus>
<clus scale="   34.557">  2  3  1 -1</clus>
</clustering>
</event>
<event>
 6    0  0.1631680E+002  0.9998570E+02  0.7546771E-02  0.1280326E+00
         21   -1    0    0  501  502  0.00000000000E+00  0.00000000000E+00  0.28550313535E+02  0.28550313535E+02  0.00000000000E+00 0.  1.
          2   -1    0    0  503    0 -0.00000000000E+00 -0.00000000000E+00 -0.16416328353E+04  0.16416328353E+04  0.00000000000E+00 0.  1.
         21    1    1    2  503  505  0.10111051394E+03  0.16492395028E+02 -0.98972820465E+03  0.99501620801E+03  0.00000000000E+00 0.  1.
         21    1    1    2  504  502 -0.69564653925E+01  0.32536044844E+02 -0.11939500079E+02  0.35348808848E+02  0.00000000000E+00 0.  1.
         21    1    1    2  505  504 -0.28502988762E+02  0.55889334530E+02 -0.16366078040E+03  0.17527375481E+03  0.00000000000E+00 0. -1.
          2    1    1    2  501    0 -0.65651059787E+02 -0.10491777440E+03 -0.44775403661E+03  0.46454437714E+03  0.00000000000E+00 0.  1.
<scales pt_clust_3="14000.00000" pt_clust_4="33.27141" pt_clust_5="73.87706" pt_clust_6="99.98570"></scales>
<clustering>
<clus scale="   33.271">  1  4  2 -1</clus>
<clus scale="   73.877">  1  5  2 -1</clus>
<clus scale="   99.986">  1  6  2 -1</clus>
<clus scale="   33.271">  1  3  2 -1</clus>
</clustering>
</event>
<event>
 6    0  0.1631680E+002  0.2043870E+03  0.7546771E-02  0.1146090E+00
         21   -1    0    0  504  502  0.00000000000E+00  0.00000000000E+00  0.58225766890E+02  0.58225766890E+02  0.00000000000E+00 0. -1.
          1   -1    0    0  503    0 -0.00000000000E+00 -0.00000000000E+00 -0.13839795893E+04  0.13839795893E+04  0.00000000000E+00 0.  1.
         21    1    1    2  503  505 -0.23254447894E+02  0.48744265662E+02 -0.17629191573E+03  0.18437899103E+03  0.00000000000E+00 0.  1.
         21    1    1    2  504  501  0.19490058860E+02 -0.38297550036E+02 -0.59482576540E+01  0.43381407333E+02  0.00000000000E+00 0.  1.
         21    1    1    2  505  502  0.15602782273E+03  0.12830677716E+03 -0.60768014577E+03  0.64037681883E+03  0.00000000000E+00 0. -1.
          1    1    1    2  501    0 -0.15226343370E+03 -0.13875349279E+03 -0.53583350328E+03  0.57406813902E+03  0.00000000000E+00 0.  1.
<scales pt_clust_3="49.61082" pt_clust_4="42.97167" pt_clust_5="204.38697" pt_clust_6="14000.00000"></scales>
<clustering>
<clus scale="   42.972">  1  4  2 -1</clus>
<clus scale="   49.611">  2  3  1 -1</clus>
<clus scale="  204.387">  2  5  1 -1</clus>
<clus scale="   42.972">  1  3  2 -1</clus>
</clustering>
</event>
<event>
 6    0  0.1631680E+002  0.1599171E+03  0.7546771E-02  0.1188790E+00
         21   -1    0    0  503  502  0.00000000000E+00  0.00000000000E+00  0.58181890406E+03  0.58181890406E+03  0.00000000000E+00 0. -1.
          2   -1    0    0  504    0 -0.00000000000E+00 -0.00000000000E+00 -0.30847697102E+03  0.30847697102E+03  0.00000000000E+00 0. -1.
         21    1    1    2  503  501 -0.31349691860E+02 -0.22644714926E+01  0.15560097427E+03  0.15874380052E+03  0.00000000000E+00 0. -1.
         21    1    1    2  504  505 -0.28865792262E+02 -0.34442689079E+02 -0.75415136982E+02  0.87789382501E+02  0.00000000000E+00 0.  1.
         21    1    1    2  505  502 -0.17863821216E+02  0.15704965658E+03  0.37803942278E+03  0.40975299379E+03  0.00000000000E+00 0. -1.
          2    1    1    2  501    0  0.78079305338E+02 -0.12034249601E+03 -0.18488332703E+03  0.23400969827E+03  0.00000000000E+00 0. -1.
<scales pt_clust_3="31.43137" pt_clust_4="45.25909" pt_clust_5="14000.00000" pt_clust_6="159.91707"></scales>
<clustering>
<clus scale="   31.431">  1  3  2 -1</clus>
<clus scale="   45.259">  2  4  1 -1</clus>
<clus scale="  159.917">  2  6  1 -1</clus>
<clus scale="   31.431">  1  3  2 -1</clus>
</clustering>
</event>
<event>
 6    0  0.1631680E+002  0.1547764E+03  0.7546771E-02  0.1194724E+00
         -1   -1    0    0    0  501 -0.00000000000E+00  0.00000000000E+00  0.45428336808E+02  0.45428336808E+02  0.00000000000E+00 0.  1.
         21   -1    0    0  503  502  0.00000000000E+00 -0.00000000000E+00 -0.13107453414E+04  0.13107453414E+04  0.00000000000E+00 0. -1.
         21    1    1    2  503  505 -0.32616291734E+00 -0.10570388350E+03 -0.75744966304E+03  0.76478978119E+03  0.00000000000E+00 0. -1.
         21    1    1    2  504  501 -0.46903007103E+02  0.28026774874E+02 -0.74015014854E+01  0.55137776609E+02  0.00000000000E+00 0. -1.
         21    1    1    2  505  504 -0.29610443577E+02 -0.37793906800E+02 -0.19403103300E+03  0.19988296457E+03  0.00000000000E+00 0. -1.
         -1    1    1    2    0  502  0.76839613597E+02  0.11547101543E+03 -0.30643480706E+03  0.33636315583E+03  0.00000000000E+00 0.  1.
<scales pt_clust_3="41.49142" pt_clust_4="54.63874" pt_clust_5="41.49142" pt_clust_6="142.00552"></scales>
<clustering>
<clus scale="   41.491">  3  5 -1 -1</clus>
<clus scale="   54.639">  1  4  2 -1</clus>
<clus scale="  142.006">  1  6  2 -1</clus>
<clus scale="  154.776">  2  3  1 -1</clus>
</clustering>
</event>
<event>
 6    0  0.1631680E+002  0.1219818E+03  0.7546771E-02  0.1239863E+00
          2   -1    0    0  503    0 -0.00000000000E+00  0.00000000000E+00  0.88695688798E+03  0.88695688798E+03  0.00000000000E+00 0. -1.
         21   -1    0    0  505  502  0.00000000000E+00 -0.00000000000E+00 -0.60728864046E+03  0.60728864046E+03  0.00000000000E+00 0.  1.
         21    1    1    2  503  504 -0.84989586223E+01 -0.33014724016E+02  0.15239672464E+03  0.15616326707E+03  0.00000000000E+00 0. -1.
         21    1    1    2  504  502 -0.37176063860E+02 -0.88473950956E+01  0.56566974527E+02  0.68265355279E+02  0.00000000000E+00 0.  1.
         21    1    1    2  505  501  0.11725981100E+03 -0.34677005377E+02 -0.58914298780E+03  0.60169910923E+03  0.00000000000E+00 0.  1.
          2    1    1    2  501    0 -0.71584788522E+02  0.76539124489E+02  0.65984753615E+03  0.66811779686E+03  0.00000000000E+00 0. -1.
<scales pt_clust_3="34.09112" pt_clust_4="39.65311" pt_clust_5="121.98179" pt_clust_6="14000.00000"></scales>
<clustering>
<clus scale="   34.091">  1  3  2 -1</clus>
<clus scale="   39.653">  1  4  2 -1</clus>
<clus scale="  121.982">  2  5  1 -1</clus>
<clus scale="  121.982">  2  3  1 -1</clus>
</clustering>
</event>
<event>
 6    0  0.1631680E+002  0.1026497E+03  0.7546771E-02  0.1274821E+00
          1   -1    0    0  503    0 -0.00000000000E+00  0.00000000000E+00  0.13596209311E+04  0.13596209311E+04  0.00000000000E+00 0. -1.
         21   -1    0    0  501  502  0.00000000000E+00 -0.00000000000E+00 -0.53755421700E+02  0.53755421700E+02  0.00000000000E+00 0. -1.
         21    1    1    2  503  504  0.42325299475E+02 -0.60969549918E+01  0.60049386966E+03  0.60201452751E+03  0.00000000000E+00 0. -1.
         21    1    1    2  504  505  0.50709616078E+02 -0.20571088309E+02  0.14781185222E+03  0.15761655527E+03  0.00000000000E+00 0. -1.
         21    1    1    2  505  502 -0.41111251569E+02  0.10086105732E+03  0.22680431214E+02  0.11125416778E+03  0.00000000000E+00 0. -1.
          1    1    1    2  501    0 -0.51923663984E+02 -0.74193014015E+02  0.53487935632E+03  0.54249110226E+03  0.00000000000E+00 0. -1.
<scales pt_clust_3="42.76218" pt_clust_4="63.11664" pt_clust_5="102.64974" pt_clust_6="14000.00000"></scales>
<clustering>
<clus scale="   42.762">  1  3  2 -1</clus>
<clus scale="   63.117">  1  4  2 -1</clus>
<clus scale="  102.650">  2  5  1 -1</clus>
<clus scale="  102.650">  2  3  1 -1</clus>
</clustering>
</event>
<event>
 6    0  0.1631680E+002  0.2653470E+03  0.7546771E-02  0.1103973E+00
         21   -1    0    0  503  502  0.00000000000E+00  0.00000000000E+00  0.46734765063E+03  0.46734765063E+03  0.00000000000E+00 0. -1.
          2   -1    0    0  504    0 -0.00000000000E+00 -0.00000000000E+00 -0.95857987489E+03  0.95857987489E+03  0.00000000000E+00 0. -1.
         21    1    1    2  503  501  0.26353832564E+03  0.20751938849E+02  0.33498204421E+03  0.42672715169E+03  0.00000000000E+00 0. -1.
         21    1    1    2  504  505  0.40120903696E+02  0.14994184101E+02 -0.10506144440E+03  0.11345668587E+03  0.00000000000E+00 0.  1.
         21    1    1    2  505  502 -0.26962472815E+03 -0.17690847866E+02 -0.14187633159E+03  0.30518740733E+03  0.00000000000E+00 0. -1.
          2    1    1    2  501    0 -0.34034501178E+02 -0.18055275084E+02 -0.57927649248E+03  0.58055628062E+03  0.00000000000E+00 0. -1.
<scales pt_clust_3="265.34703" pt_clust_4="31.84126" pt_clust_5="14000.00000" pt_clust_6="38.52714"></scales>
<clustering>
<clus scale="   38.527">  2  6  1 -1</clus>
<clus scale="   31.841">  2  4  1 -1</clus>
<clus scale="  265.347">  1  3  2 -1</clus>
<clus scale="  265.347">  1  3  2 -1</clus>
</clustering>
</event>
<event>
 6    0  0.1631680E+002  0.7959588E+02  0.7546771E-02  0.1330202E+00
          3   -1    0    0  504    0 -0.00000000000E+00  0.00000000000E+00  0.15426690721E+04  0.15426690721E+04  0.00000000000E+00 0. -1.
         21   -1    0    0  505  502  0.00000000000E+00 -0.00000000000E+00 -0.50315912441E+02  0.50315912441E+02  0.00000000000E+00 0. -1.
         21    1    1    2  503  502  0.32992885312E+02  0.47418927606E+02  0.26855516036E+01  0.57829900259E+02  0.00000000000E+00 0. -1.
         21    1    1    2  504  503  0.12765492531E+02  0.36332735376E+02  0.14139053555E+03  0.14654115122E+03  0.00000000000E+00 0. -1.
         21    1    1    2  505  501  0.42330002027E+02 -0.79029931101E+02  0.89261046388E+02  0.12651123857E+03  0.00000000000E+00 0. -1.
          3    1    1    2  501    0 -0.88088379870E+02 -0.47217318807E+01  0.12590160262E+04  0.12621026945E+04  0.00000000000E+00 0. -1.
<scales pt_clust_3="58.57082" pt_clust_4="38.51007" pt_clust_5="14000.00000" pt_clust_6="79.59588"></scales>
<clustering>
<clus scale="   38.510">  1  4  2 -1</clus>
<clus scale="   58.571">  2  3  1 -1</clus>
<clus scale="   79.596">  1  6  2 -1</clus>
<clus scale="   58.571">  2  3  1 -1</clus>
</clustering>
</event>
<event>
 6    0  0.1631680E+002  0.1153390E+03  0.7546771E-02  0.1250990E+00
         21   -1    0    0  504  502  0.00000000000E+00  0.00000000000E+00  0.27771118785E+03  0.27771118785E+03  0.00000000000E+00 0. -1.
         -2   -1    0    0    0  501 -0.00000000000E+00 -0.00000000000E+00 -0.64745164610E+03  0.64745164610E+03  0.00000000000E+00 0. -1.
         21    1    1    2  503  502  0.56241403933E+02 -0.41491496363E+02 -0.22678283938E+03  0.23730801930E+03  0.00000000000E+00 0. -1.
         21    1    1    2  504  505 -0.46259177934E+02 -0.10340990086E+03  0.23142573857E+03  0.25766527048E+03  0.00000000000E+00 0. -1.
         21    1    1    2  505  501  0.66063237632E+01  0.17210645379E+03 -0.26331666047E+03  0.31464255693E+03  0.00000000000E+00 0. -1.
         -2    1    1    2    0  503 -0.16588549762E+02 -0.27205056569E+02 -0.11106669697E+03  0.11554698725E+03  0.00000000000E+00 0. -1.
<scales pt_clust_3="72.43193" pt_clust_4="14000.00000" pt_clust_5="115.33901" pt_clust_6="31.86370"></scales>
<clustering>
<clus scale="   31.864">  2  6  1 -1</clus>
<clus scale="   72.432">  2  3  1 -1</clus>
<clus scale="  115.339">  2  5  1 -1</clus>
<clus scale="  115.339">  1  3  2 -1</clus>
</clustering>
</event>
<event>
 6    0  0.1631680E+002  0.9009994E+02  0.7546771E-02  0.1302610E+00
         -1   -1    0    0    0  501 -0.00000000000E+00  0.00000000000E+00  0.26507165907E+03  0.26507165907E+03  0.00000000000E+00 0.  1.
         21   -1    0    0  505  502  0.00000000000E+00 -0.00000000000E+00 -0.27711967574E+03  0.27711967574E+03  0.00000000000E+00 0.  1.
         21    1    1    2  503  501 -0.30899432103E+02 -0.18619526796E+02  0.10834432422E+03  0.11419261917E+03  0.00000000000E+00 0.  1.
         21    1    1    2  504  502  0.13544374365E+03 -0.61088922378E+02 -0.16125426047E+03  0.21927106661E+03  0.00000000000E+00 0.  1.
         21    1    1    2  505  503 -0.66340569249E+02  0.69008734800E+01 -0.52089869069E+02  0.84628881847E+02  0.00000000000E+00 0.  1.
         -1    1    1    2    0  504 -0.38203742300E+02  0.72807575695E+02  0.92951788640E+02  0.12409876718E+03  0.00000000000E+00 0.  1.
<scales pt_clust_3="36.07578" pt_clust_4="90.09994" pt_clust_5="69.78361" pt_clust_6="14000.00000"></scales>
<clustering>
<clus scale="   36.076">  1  3  2 -1</clus>
<clus scale="   69.784">  2  5  1 -1</clus>
<clus scale="   90.100">  2  4  1 -1</clus>
<clus scale="   69.784">  2  3  1 -1</clus>
</clustering>
</event>
<event>
 6    0  0.1631680E+002  0.1349235E+03  0.7546771E-02  0.1220328E+00
         21   -1    0    0  505  502  0.00000000000E+00  0.00000000000E+00  0.57928995759E+03  0.57928995759E+03  0.00000000000E+00 0.  1.
          2   -1    0    0  504    0 -0.00000000000E+00 -0.00000000000E+00 -0.92256053403E+03  0.92256053403E+03  0.00000000000E+00 0. -1.
         21    1    1    2  503  502 -0.14143111625E+03 -0.22425800350E+02  0.48208257706E+03  0.50290087320E+03  0.00000000000E+00 0.  1.
         21    1    1    2  504  503 -0.32728525964E+02 -0.22074395767E+02 -0.11951952098E+03  0.12587037481E+03  0.00000000000E+00 0. -1.
         21    1    1    2  505  501  0.10839162257E+03 -0.14055358021E+02  0.44197137325E+02  0.11789692057E+03  0.00000000000E+00 0. -1.
          2    1    1    2  501    0  0.65768019642E+02  0.58555554139E+02 -0.75003076983E+03  0.75518232304E+03  0.00000000000E+00 0. -1.
<scales pt_clust_3="134.92355" pt_clust_4="39.47702" pt_clust_5="14000.00000" pt_clust_6="51.48652"></scales>
<clustering>
<clus scale="   39.477">  2  4  1 -1</clus>
<clus scale="   51.487">  2  6  1 -1</clus>
<clus scale="  134.924">  1  3  2 -1</clus>
<clus scale="  134.924">  1  3  2 -1</clus>
</clustering>
</event>
<event>
 6    0  0.1631680E+002  0.1196124E+03  0.7546771E-02  0.1243738E+00
         21   -1    0    0  504  502  0.00000000000E+00  0.00000000000E+00  0.31034618812E+03  0.31034618812E+03  0.00000000000E+00 0. -1.
          3   -1    0    0  503    0 -0.00000000000E+00 -0.00000000000E+00 -0.50731996662E+03  0.50731996662E+03  0.00000000000E+00 0. -1.
         21    1    1    2  503  505 -0.45282210973E+02 -0.11403462520E+02 -0.52021812532E+02  0.69905554623E+02  0.00000000000E+00 0. -1.
         21    1    1    2  504  501  0.23958045738E+02  0.94742535774E+02  0.24407409434E+03  0.26291120092E+03  0.00000000000E+00 0. -1.
         21    1    1    2  505  502  0.44779132635E+02  0.75930244516E+01  0.30651461589E+02  0.54793583908E+02  0.00000000000E+00 0. -1.
          3    1    1    2  501    0 -0.23454967400E+02 -0.90932097706E+02 -0.41967752189E+03  0.43005581530E+03  0.00000000000E+00 0. -1.
<scales pt_clust_3="45.18335" pt_clust_4="119.61244" pt_clust_5="45.41833" pt_clust_6="14000.00000"></scales>
<clustering>
<clus scale="   45.418">  1  5  2 -1</clus>
<clus scale="   45.183">  2  3  1 -1</clus>
<clus scale="  119.612">  1  4  2 -1</clus>
<clus scale="   45.418">  1  3  2 -1</clus>
</clustering>
</event>
<event>
 6    0  0.1631680E+002  0.1158061E+03  0.7546771E-02  0.1250181E+00
          2   -1    0    0  504    0 -0.00000000000E+00  0.00000000000E+00  0.10261882372E+04  0.10261882372E+04  0.00000000000E+00 0.  1.
         21   -1    0    0  503  502  0.00000000000E+00 -0.00000000000E+00 -0.18387235330E+03  0.18387235330E+03  0.00000000000E+00 0. -1.
         21    1    1    2  503  501  0.92374641785E+01 -0.40973725429E+02 -0.64231682515E+00  0.42007017162E+02  0.00000000000E+00 0. -1.
         21    1    1    2  504  505  0.18459887684E+02  0.36349723155E+02  0.46397476055E+02  0.61764031693E+02  0.00000000000E+00 0.  1.
         21    1    1    2  505  502  0.10567380152E+03  0.49622957791E+02 -0.12674362360E+03  0.17231754522E+03  0.00000000000E+00 0. -1.
          2    1    1    2  501    0 -0.13337115338E+03 -0.44998955517E+02  0.92330434829E+03  0.93397199643E+03  0.00000000000E+00 0.  1.
<scales pt_clust_3="41.33775" pt_clust_4="40.76849" pt_clust_5="14000.00000" pt_clust_6="115.80606"></scales>
<clustering>
<clus scale="   40.768">  1  4  2 -1</clus>
<clus scale="   41.338">  2  3  1 -1</clus>
<clus scale="  115.806">  1  6  2 -1</clus>
<clus scale="   41.338">  2  3  1 -1</clus>
</clustering>
</event>
<event>
 6    0  0.1631680E+002  0.1378099E+03  0.7546771E-02  0.1216307E+00
          1   -1    0    0  504    0 -0.00000000000E+00  0.00000000000E+00  0.31244476649E+04  0.31244476649E+04  0.00000000000E+00 0. -1.
         21   -1    0    0  505  502  0.00000000000E+00 -0.00000000000E+00 -0.55803436292E+02  0.55803436292E+02  0.00000000000E+00 0.  1.
         21    1    1    2  503  502  0.10578510572E+03 -0.60416725959E+02  0.33297097834E+02  0.12629079972E+03  0.00000000000E+00 0.  1.
         21    1    1    2  504  503  0.47266694696E+02 -0.29298124442E+00  0.30599337387E+03  0.30962262695E+03  0.00000000000E+00 0. -1.
         21    1    1    2  505  501 -0.56865322084E+01 -0.33754244216E+02  0.58682278404E+02  0.67935965805E+02  0.00000000000E+00 0.  1.
          1    1    1    2  501    0 -0.14736526821E+03  0.94463951420E+02  0.26706714785E+04  0.26764017087E+04  0.00000000000E+00 0. -1.
<scales pt_clust_3="137.80993" pt_clust_4="47.08864" pt_clust_5="34.22989" pt_clust_6="14000.00000"></scales>
<clustering>
<clus scale="   34.230">  2  5  1 -1</clus>
<clus scale="   47.089">  1  4  2 -1</clus>
<clus scale="  137.810">  2  3  1 -1</clus>
<clus scale="   34.230">  2  3  1 -1</clus>
</clustering>
</event>
<event>
 6    0  0.1631680E+002  0.1806201E+03  0.7546771E-02  0.1167204E+00
          2   -1    0    0  504    0 -0.00000000000E+00  0.00000000000E+00  0.19634974284E+04  0.19634974284E+04  0.00000000000E+00 0.  1.
         21   -1    0    0  505  502  0.00000000000E+00 -0.00000000000E+00 -0.24366069773E+02  0.24366069773E+02  0.00000000000E+00 0.  1.
         21    1    1    2  503  502 -0.16942966700E+02 -0.29646233537E+02  0.14620989257E+03  0.15014425053E+03  0.00000000000E+00 0.  1.
         21    1    1    2  504  503  0.16131162043E+03 -0.56386699794E+02  0.13364734548E+04  0.13473537747E+04  0.00000000000E+00 0.  1.
         21    1    1    2  505  501 -0.82989595591E+02  0.31196620981E+02  0.30937267500E+03  0.32182596877E+03  0.00000000000E+00 0.  1.
          2    1    1    2  501    0 -0.61379058136E+02  0.54836312350E+02  0.14707533619E+03  0.16853950411E+03  0.00000000000E+00 0.  1.
<scales pt_clust_3="34.14620" pt_clust_4="169.57028" pt_clust_5="58.61957" pt_clust_6="58.61957"></scales>
<clustering>
<clus scale="   34.146">  2  3  1 -1</clus>
<clus scale="   58.620">  5  6 -1 -1</clus>
<clus scale="  169.570">  1  4  2 -1</clus>
<clus scale="   34.146">  2  3  1 -1</clus>
</clustering>
</event>
<event>
 6    0  0.1631680E+002  0.8065697E+02  0.7546771E-02  0.1327197E+00
         21   -1    0    0  504  502  0.00000000000E+00  0.00000000000E+00  0.10145044489E+04  0.10145044489E+04  0.00000000000E+00 0. -1.
          1   -1    0    0  505    0 -0.00000000000E+00 -0.00000000000E+00 -0.85042888976E+03  0.85042888976E+03  0.00000000000E+00 0. -1.
         21    1    1    2  503  502  0.22499780537E+02 -0.76578197756E+02  0.94344735792E+03  0.94681749966E+03  0.00000000000E+00 0. -1.
         21    1    1    2  504  501 -0.11111952125E+02  0.10137577206E+03  0.25857631369E+02  0.10520997928E+03  0.00000000000E+00 0. -1.
         21    1    1    2  505  503  0.16263212926E+01  0.42620395544E+02 -0.32841364834E+03  0.33117165859E+03  0.00000000000E+00 0. -1.
          1    1    1    2  501    0 -0.13014149705E+02 -0.67417969846E+02 -0.47681578181E+03  0.48173420112E+03  0.00000000000E+00 0. -1.
<scales pt_clust_3="14000.00000" pt_clust_4="80.65697" pt_clust_5="42.65141" pt_clust_6="30.44588"></scales>
<clustering>
<clus scale="   42.651">  2  5  1 -1</clus>
<clus scale="   30.446">  2  6  1 -1</clus>
<clus scale="   80.657">  2  4  1 -1</clus>
<clus scale="   80.657">  1  3  2 -1</clus>
</clustering>
</event>
<event>
 6    0  0.1631680E+002  0.6183512E+02  0.7546771E-02  0.1390288E+00
          2   -1    0    0  503    0 -0.00000000000E+00  0.00000000000E+00  0.16294941426E+04  0.16294941426E+04  0.00000000000E+00 0. -1.
         21   -1    0    0  501  502  0.00000000000E+00 -0.00000000000E+00 -0.19424510315E+04  0.19424510315E+04  0.00000000000E+00 0.  1.
         21    1    1    2  503  504  0.58017936133E+02 -0.89100333878E+01  0.21305754541E+03  0.22099544625E+03  0.00000000000E+00 0.  1.
         21    1    1    2  504  505  0.56754324112E+02 -0.88613962893E+01 -0.47093226487E+03  0.47442257087E+03  0.00000000000E+00 0.  1.
         21    1    1    2  505  502  0.53975425648E+00  0.32305643125E+02 -0.14632321920E+04  0.14635888745E+04  0.00000000000E+00 0.  1.
          2    1    1    2  501    0 -0.11531201450E+03 -0.14534213448E+02  0.14081500225E+04  0.14129382824E+04  0.00000000000E+00 0. -1.
<scales pt_clust_3="58.66251" pt_clust_4="14000.00000" pt_clust_5="32.31015" pt_clust_6="61.83512"></scales>
<clustering>
<clus scale="   32.310">  2  5  1 -1</clus>
<clus scale="   58.663">  1  3  2 -1</clus>
<clus scale="   61.835">  1  6  2 -1</clus>
<clus scale="   32.310">  2  3  1 -1</clus>
</clustering>
</event>
<event>
 6    0  0.1631680E+002  0.7324904E+02  0.7546771E-02  0.1349381E+00
          2   -1    0    0  504    0 -0.00000000000E+00  0.00000000000E+00  0.95881681239E+03  0.95881681239E+03  0.00000000000E+00 0. -1.
         21   -1    0    0  503  502  0.00000000000E+00 -0.00000000000E+00 -0.74199868042E+03  0.74199868042E+03  0.00000000000E+00 0.  1.
         21    1    1    2  503  501 -0.32375495963E+01 -0.71881812776E+02 -0.28119152230E+02  0.77253889594E+02  0.00000000000E+00 0.  1.
         21    1    1    2  504  505  0.72374472066E+02  0.72216307949E+01  0.25922608670E+03  0.26923666203E+03  0.00000000000E+00 0.  1.
         21    1    1    2  505  502 -0.70991454610E+02  0.18192734073E+02 -0.68153311606E+03  0.68546199784E+03  0.00000000000E+00 0.  1.
          2    1    1    2  501    0  0.18545321402E+01  0.46467447908E+02  0.66724431356E+03  0.66886294335E+03  0.00000000000E+00 0. -1.
<scales pt_clust_3="68.02545" pt_clust_4="73.24904" pt_clust_5="14000.00000" pt_clust_6="46.50444"></scales>
<clustering>
<clus scale="   46.504">  1  6  2 -1</clus>
<clus scale="   68.025">  1  3  2 -1</clus>
<clus scale="   73.249">  1  4  2 -1</clus>
<clus scale="   73.249">  2  3  1 -1</clus>
</clustering>
</event>
<event>
 6    0  0.1631680E+002  0.7599493E+02  0.7546771E-02  0.1340817E+00
         -2   -1    0    0    0  501 -0.00000000000E+00  0.00000000000E+00  0.79018606308E+03  0.79018606308E+03  0.00000000000E+00 0.  1.
         21   -1    0    0  505  502  0.00000000000E+00 -0.00000000000E+00 -0.60653903184E+03  0.60653903184E+03  0.00000000000E+00 0.  1.
         21    1    1    2  503  502 -0.32651097358E+02  0.30902998065E+02 -0.22050597020E+03  0.22504215681E+03  0.00000000000E+00 0. -1.
         21    1    1    2  504  501  0.26241470217E+02 -0.63591707424E+02  0.39926404439E+02  0.79540164595E+02  0.00000000000E+00 0. -1.
         21    1    1    2  505  504  0.10485641357E+03 -0.13284954286E+02 -0.35210054604E+03  0.36762229529E+03  0.00000000000E+00 0.  1.
         -2    1    1    2    0  503 -0.98446786423E+02  0.45973663645E+02  0.71632714304E+03  0.72452047822E+03  0.00000000000E+00 0.  1.
<scales pt_clust_3="44.95653" pt_clust_4="66.68288" pt_clust_5="14000.00000" pt_clust_6="75.99493"></scales>
<clustering>
<clus scale="   44.957">  2  3  1 -1</clus>
<clus scale="   66.683">  1  4  2 -1</clus>
<clus scale="   75.995">  1  6  2 -1</clus>
<clus scale="   44.957">  2  3  1 -1</clus>
</clustering>
</event>
<event>
 6    0  0.1631680E+002  0.1409239E+03  0.7546771E-02  0.1212091E+00
          1   -1    0    0  504    0 -0.00000000000E+00  0.00000000000E+00  0.40850232272E+03  0.40850232272E+03  0.00000000000E+00 0. -1.
         21   -1    0    0  505  502  0.00000000000E+00 -0.00000000000E+00 -0.38574854603E+03  0.38574854603E+03  0.00000000000E+00 0. -1.
         21    1    1    2  503  501 -0.96236977972E+02  0.48443983591E+02 -0.73808828451E+02  0.13059907593E+03  0.00000000000E+00 0.  1.
         21    1    1    2  504  502  0.19625079417E+02  0.24338157848E+02  0.12459350208E+03  0.12845633667E+03  0.00000000000E+00 0. -1.
         21    1    1    2  505  503 -0.48245358089E+02 -0.55825680846E+01 -0.25936024859E+03  0.26386837285E+03  0.00000000000E+00 0. -1.
          1    1    1    2  501    0  0.12485725664E+03 -0.67199573354E+02  0.23132935166E+03  0.27132708330E+03  0.00000000000E+00 0. -1.
<scales pt_clust_3="14000.00000" pt_clust_4="31.26483" pt_clust_5="48.38939" pt_clust_6="140.92394"></scales>
<clustering>
<clus scale="   31.265">  1  4  2 -1</clus>
<clus scale="   48.389">  2  5  1 -1</clus>
<clus scale="  140.924">  1  6  2 -1</clus>
<clus scale="   48.389">  2  3  1 -1</clus>
</clustering>
</event>
<event>
 6    0  0.1631680E+002  0.1160310E+03  0.7546771E-02  0.1249792E+00
          1   -1    0    0  505    0 -0.00000000000E+00  0.00000000000E+00  0.27677263655E+04  0.27677263655E+04  0.00000000000E+00 0.  1.
         21   -1    0    0  501  502  0.00000000000E+00 -0.00000000000E+00 -0.16330998257E+03  0.16330998257E+03  0.00000000000E+00 0.  1.
         21    1    1    2  503  502  0.61119481469E+02 -0.99453631293E+02 -0.12926603322E+03  0.17417325609E+03  0.00000000000E+00 0.  1.
         21    1    1    2  504  503  0.39892402756E+02  0.12023409547E+03  0.10725311749E+04  0.10799864641E+04  0.00000000000E+00 0.  1.
         21    1    1    2  505  504 -0.15709817321E+02  0.49210056269E+02  0.12532677697E+04  0.12543319060E+04  0.00000000000E+00 0. -1.
          1    1    1    2  501    0 -0.85302066904E+02 -0.69990520447E+02  0.40788347165E+03  0.42254472191E+03  0.00000000000E+00 0.  1.
<scales pt_clust_3="14000.00000" pt_clust_4="116.03099" pt_clust_5="51.65683" pt_clust_6="105.93229"></scales>
<clustering>
<clus scale="   51.657">  1  5  2 -1</clus>
<clus scale="  105.932">  1  6  2 -1</clus>
<clus scale="  116.031">  1  4  2 -1</clus>
<clus scale="  116.031">  2  3  1 -1</clus>
</clustering>
</event>
<event>
 6    0  0.1631680E+002  0.1306644E+03  0.7546771E-02  0.1226473E+00
         -3   -1    0    0    0  501 -0.00000000000E+00  0.00000000000E+00  0.44182818579E+03  0.44182818579E+03  0.00000000000E+00 0. -1.
         21   -1    0    0  503  502  0.00000000000E+00 -0.00000000000E+00 -0.17839083485E+03  0.17839083485E+03  0.00000000000E+00 0. -1.
         21    1    1    2  503  505 -0.57407573228E+02  0.31358060960E+01 -0.32262307198E+02  0.65926619886E+02  0.00000000000E+00 0. -1.
         21    1    1    2  504  501 -0.33782580551E+02 -0.94574815041E+02  0.68904077420E+02  0.12179257068E+03  0.00000000000E+00 0. -1.
         21    1    1    2  505  504  0.12830491498E+03 -0.80115397168E+02  0.72801262578E+01  0.15143852981E+03  0.00000000000E+00 0. -1.
         -3    1    1    2    0  502 -0.37114761201E+02  0.17155440611E+03  0.21951545447E+03  0.28106130026E+03  0.00000000000E+00 0. -1.
<scales pt_clust_3="57.49315" pt_clust_4="104.38350" pt_clust_5="130.66444" pt_clust_6="14000.00000"></scales>
<clustering>
<clus scale="   57.493">  2  3  1 -1</clus>
<clus scale="  104.383">  1  4  2 -1</clus>
<clus scale="  130.664">  2  5  1 -1</clus>
<clus scale="   57.493">  2  3  1 -1</clus>
</clustering>
</event>
<event>
 6    0  0.1631680E+002  0.2738169E+03  0.7546771E-02  0.1099115E+00
         21   -1    0    0  504  502  0.00000000000E+00  0.00000000000E+00  0.83072401794E+03  0.83072401794E+03  0.00000000000E+00 0.  1.
          2   -1    0    0  505    0 -0.00000000000E+00 -0.00000000000E+00 -0.14577776261E+03  0.14577776261E+03  0.00000000000E+00 0.  1.
         21    1    1    2  503  502 -0.16377799449E+03 -0.13867994952E+03  0.38991979284E+03  0.44507617857E+03  0.00000000000E+00 0.  1.
         21    1    1    2  504  501 -0.35580769533E+02  0.42894656174E+02  0.64483210920E+02  0.85229262460E+02  0.00000000000E+00 0. -1.
         21    1    1    2  505  503 -0.17172038772E+02 -0.54059871724E+02  0.16551211419E+03  0.17496173465E+03  0.00000000000E+00 0.  1.
          2    1    1    2  501    0  0.21653080279E+03  0.14984516507E+03  0.65031137379E+02  0.27123460487E+03  0.00000000000E+00 0.  1.
<scales pt_clust_3="39.99106" pt_clust_4="55.73098" pt_clust_5="39.99106" pt_clust_6="262.53540"></scales>
<clustering>
<clus scale="   39.991">  3  5 -1 -1</clus>
<clus scale="   55.731">  1  4  2 -1</clus>
<clus scale="  262.535">  2  6  1 -1</clus>
<clus scale="   55.731">  1  3  2 -1</clus>
</clustering>
</event>
<event>
 6    0  0.1631680E+002  0.1157701E+03  0.7546771E-02  0.1250243E+00
          2   -1    0    0  504    0 -0.00000000000E+00  0.00000000000E+00  0.64939923489E+03  0.64939923489E+03  0.00000000000E+00 0. -1.
         21   -1    0    0  503  502  0.00000000000E+00 -0.00000000000E+00 -0.24019055121E+03  0.24019055121E+03  0.00000000000E+00 0.  1.
         21    1    1    2  503  505 -0.32817318977E+00  0.38448752710E+02 -0.15919683433E+03  0.16377437634E+03  0.00000000000E+00 0.  1.
         21    1    1    2  504  502  0.85275696636E+01  0.40133487554E+02  0.33466603912E+02  0.52947425291E+02  0.00000000000E+00 0.  1.
         21    1    1    2  505  501 -0.47943046336E+02  0.37107438054E+02 -0.47940876656E+02  0.77290525328E+02  0.00000000000E+00 0.  1.
          2    1    1    2  501    0  0.39743649863E+02 -0.11568967832E+03  0.58287979076E+03  0.59557745915E+03  0.00000000000E+00 0. -1.
<scales pt_clust_3="38.45015" pt_clust_4="45.68705" pt_clust_5="115.77008" pt_clust_6="14000.00000"></scales>
<clustering>
<clus scale="   38.450">  2  3  1 -1</clus>
<clus scale="   45.687">  2  4  1 -1</clus>
<clus scale="  115.770">  2  5  1 -1</clus>
<clus scale="   38.450">  2  3  1 -1</clus>
</clustering>
</event>
<event>
 6    0  0.1631680E+002  0.9890421E+02  0.7546771E-02  0.1282617E+00
          4   -1    0    0  505    0 -0.00000000000E+00  0.00000000000E+00  0.10420821663E+04  0.10420821663E+04  0.00000000000E+00 0. -1.
         21   -1    0    0  501  502  0.00000000000E+00 -0.00000000000E+00 -0.10928166559E+04  0.10928166559E+04  0.00000000000E+00 0. -1.
         21    1    1    2  503  504 -0.69684506733E+02  0.76498349821E+02 -0.26303582176E+03  0.28265840078E+03  0.00000000000E+00 0. -1.
         21    1    1    2  504  502  0.87464531638E+02 -0.46233741373E+02 -0.81470317457E+03  0.82068804413E+03  0.00000000000E+00 0. -1.
         21    1    1    2  505  503  0.55002708747E+01  0.30473828237E+02  0.27426255077E+03  0.27600517013E+03  0.00000000000E+00 0. -1.
          4    1    1    2  501    0 -0.23280295780E+02 -0.60738436685E+02  0.75274195597E+03  0.75554720709E+03  0.00000000000E+00 0. -1.
<scales pt_clust_3="98.90421" pt_clust_4="14000.00000" pt_clust_5="30.96623" pt_clust_6="35.58654"></scales>
<clustering>
<clus scale="   30.966">  1  5  2 -1</clus>
<clus scale="   35.587">  1  6  2 -1</clus>
<clus scale="   98.904">  1  3  2 -1</clus>
<clus scale="   98.904">  2  3  1 -1</clus>
</clustering>
</event>
<event>
 6    0  0.1631680E+002  0.2621269E+03  0.7546771E-02  0.1105872E+00
          1   -1    0    0  505    0 -0.00000000000E+00  0.00000000000E+00  0.78676144662E+03  0.78676144662E+03  0.00000000000E+00 0. -1.
         21   -1    0    0  501  502  0.00000000000E+00 -0.00000000000E+00 -0.70579062950E+03  0.70579062950E+03  0.00000000000E+00 0. -1.
         21    1    1    2  503  502 -0.20235847646E+02 -0.15534071199E+03 -0.25894846801E+03  0.30264589112E+03  0.00000000000E+00 0. -1.
         21    1    1    2  504  503  0.12659948230E+03 -0.96096992122E+02 -0.35271316065E+03  0.38687030709E+03  0.00000000000E+00 0. -1.
         21    1    1    2  505  504  0.13469717770E+02 -0.55592401235E+02  0.34003911734E+02  0.66544829890E+02  0.00000000000E+00 0. -1.
          1    1    1    2  501    0 -0.11983335242E+03  0.30703010534E+03  0.65862853405E+03  0.73649104801E+03  0.00000000000E+00 0. -1.
<scales pt_clust_3="158.23815" pt_clust_4="14000.00000" pt_clust_5="57.20095" pt_clust_6="262.12689"></scales>
<clustering>
<clus scale="   57.201">  1  5  2 -1</clus>
<clus scale="  158.238">  2  3  1 -1</clus>
<clus scale="  262.127">  1  6  2 -1</clus>
<clus scale="  158.238">  2  3  1 -1</clus>
</clustering>
</event>
<event>
 6    0  0.1631680E+002  0.1284414E+03  0.7546771E-02  0.1229787E+00
          1   -1    0    0  505    0 -0.00000000000E+00  0.00000000000E+00  0.59044229096E+03  0.59044229096E+03  0.00000000000E+00 0.  1.
         21   -1    0    0  503  502  0.00000000000E+00 -0.00000000000E+00 -0.17846111245E+03  0.17846111245E+03  0.00000000000E+00 0.  1.
         21    1    1    2  503  501  0.11574639724E+03  0.83021918401E+01 -0.24931395142E+02  0.11869174077E+03  0.00000000000E+00 0.  1.
         21    1    1    2  504  502 -0.13934086171E+03 -0.33407398358E+02 -0.44730791967E+02  0.15010920610E+03  0.00000000000E+00 0.  1.
         21    1    1    2  505  504 -0.50584460028E+02  0.47153864194E+01  0.11903365479E+03  0.12942192023E+03  0.00000000000E+00 0.  1.
          1    1    1    2  501    0  0.74178924493E+02  0.20389820098E+02  0.36260971083E+03  0.37068053630E+03  0.00000000000E+00 0.  1.
<scales pt_clust_3="14000.00000" pt_clust_4="128.44141" pt_clust_5="50.80376" pt_clust_6="41.99914"></scales>
<clustering>
<clus scale="   50.804">  1  5  2 -1</clus>
<clus scale="   41.999">  1  6  2 -1</clus>
<clus scale="  128.441">  1  4  2 -1</clus>
<clus scale="  128.441">  2  3  1 -1</clus>
</clustering>
</event>
<event>
 6    0  0.1631680E+002  0.7542004E+02  0.7546771E-02  0.1342575E+00
          2   -1    0    0  505    0 -0.00000000000E+00  0.00000000000E+00  0.12688565064E+04  0.12688565064E+04  0.00000000000E+00 0.  1.
         21   -1    0    0  503  502  0.00000000000E+00 -0.00000000000E+00 -0.27756071834E+02  0.27756071834E+02  0.00000000000E+00 0.  1.
         21    1    1    2  503  501 -0.26743717287E+02  0.88789802171E+02  0.18004433031E+03  0.20252115015E+03  0.00000000000E+00 0.  1.
         21    1    1    2  504  502 -0.57054789554E+01 -0.30464669105E+02  0.62446135975E+01  0.31617143337E+02  0.00000000000E+00 0.  1.
         21    1    1    2  505  504 -0.34481500104E+02  0.41730785171E+01  0.23259296961E+03  0.23517201777E+03  0.00000000000E+00 0. -1.
          2    1    1    2  501    0  0.66930696346E+02 -0.62498211584E+02  0.82221852104E+03  0.82730226696E+03  0.00000000000E+00 0.  1.
<scales pt_clust_3="14000.00000" pt_clust_4="30.99433" pt_clust_5="35.00477" pt_clust_6="75.42004"></scales>
<clustering>
<clus scale="   30.994">  2  4  1 -1</clus>
<clus scale="   35.005">  1  5  2 -1</clus>
<clus scale="   75.420">  1  6  2 -1</clus>
<clus scale="   30.994">  2  3  1 -1</clus>
</clustering>
</event>
<event>
 6    0  0.1631680E+002  0.1314846E+03  0.7546771E-02  0.1225269E+00
         21   -1    0    0  505  502  0.00000000000E+00  0.00000000000E+00  0.27494461453E+03  0.27494461453E+03  0.00000000000E+00 0.  1.
          2   -1    0    0  503    0 -0.00000000000E+00 -0.00000000000E+00 -0.20643642031E+04  0.20643642031E+04  0.00000000000E+00 0. -1.
         21    1    1    2  503  504 -0.98469558929E+02  0.46051968293E+01 -0.81639993965E+03  0.82232981421E+03  0.00000000000E+00 0. -1.
         21    1    1    2  504  502 -0.38317661946E+02  0.14708114837E+03 -0.97373595604E+02  0.18050685456E+03  0.00000000000E+00 0. -1.
         21    1    1    2  505  501 -0.26012126783E+02 -0.44143250958E+02  0.21882604997E+03  0.22474451604E+03  0.00000000000E+00 0.  1.
          2    1    1    2  501    0  0.16279934766E+03 -0.10754309424E+03 -0.10944721033E+04  0.11117276328E+04  0.00000000000E+00 0. -1.
<scales pt_clust_3="99.94335" pt_clust_4="131.48463" pt_clust_5="51.23727" pt_clust_6="14000.00000"></scales>
<clustering>
<clus scale="   51.237">  1  5  2 -1</clus>
<clus scale="   99.943">  2  3  1 -1</clus>
<clus scale="  131.485">  1  4  2 -1</clus>
<clus scale="   51.237">  1  3  2 -1</clus>
</clustering>
</event>
<event>
 6    0  0.1631680E+002  0.8964134E+02  0.7546771E-02  0.1303723E+00
         21   -1    0    0  501  502  0.00000000000E+00  0.00000000000E+00  0.27890839600E+03  0.27890839600E+03  0.00000000000E+00 0. -1.
          1   -1    0    0  505    0 -0.00000000000E+00 -0.00000000000E+00 -0.26420159458E+03  0.26420159458E+03  0.00000000000E+00 0.  1.
         21    1    1    2  503  502  0.84307508830E+02 -0.29984233451E+02  0.22563467025E+03  0.24272992136E+03  0.00000000000E+00 0. -1.
         21    1    1    2  504  503 -0.36134086400E+02  0.35035884657E+02 -0.90578877279E+01  0.51139326783E+02  0.00000000000E+00 0. -1.
         21    1    1    2  505  504  0.44201615329E+02 -0.19223010308E+02 -0.99915208928E+02  0.11093401596E+03  0.00000000000E+00 0. -1.
          1    1    1    2  501    0 -0.92375037759E+02  0.14171359102E+02 -0.10195477217E+03  0.13830672648E+03  0.00000000000E+00 0.  1.
<scales pt_clust_3="89.64134" pt_clust_4="41.90214" pt_clust_5="48.20069" pt_clust_6="14000.00000"></scales>
<clustering>
<clus scale="   48.201">  2  5  1 -1</clus>
<clus scale="   41.902">  2  4  1 -1</clus>
<clus scale="   89.641">  1  3  2 -1</clus>
<clus scale="   89.641">  1  3  2 -1</clus>
</clustering>
</event>
<event>
 6    0  0.1631680E+002  0.1199376E+03  0.7546771E-02  0.1243200E+00
         21   -1    0    0  504  502  0.00000000000E+00  0.00000000000E+00  0.54170743790E+03  0.54170743790E+03  0.00000000000E+00 0. -1.
          1   -1    0    0  503    0 -0.00000000000E+00 -0.00000000000E+00 -0.51522964088E+03  0.51522964088E+03  0.00000000000E+00 0. -1.
         21    1    1    2  503  505  0.42888801335E+02 -0.24485984418E+02 -0.32313211638E+02  0.59018271402E+02  0.00000000000E+00 0. -1.
         21    1    1    2  504  501 -0.12052850753E+03  0.13013058010E+03  0.14669473511E+02  0.17797832019E+03  0.00000000000E+00 0. -1.
         21    1    1    2  505  502  0.11071623472E+03 -0.35647451731E+02  0.42018717802E+03  0.43598863519E+03  0.00000000000E+00 0. -1.
          1    1    1    2  501    0 -0.33076528519E+02 -0.69997143949E+02 -0.37606564288E+03  0.38395185200E+03  0.00000000000E+00 0. -1.
<scales pt_clust_3="49.38636" pt_clust_4="14000.00000" pt_clust_5="119.93756" pt_clust_6="89.82800"></scales>
<clustering>
<clus scale="   49.386">  2  3  1 -1</clus>
<clus scale="   89.828">  2  6  1 -1</clus>
<clus scale="  119.938">  1  5  2 -1</clus>
<clus scale="  119.938">  1  3  2 -1</clus>
</clustering>
</event>
<event>
 6    0  0.1631680E+002  0.8609985E+02  0.7546771E-02  0.1312581E+00
          1   -1    0    0  504    0 -0.00000000000E+00  0.00000000000E+00  0.15590569872E+04  0.15590569872E+04  0.00000000000E+00 0.  1.
         21   -1    0    0  505  502  0.00000000000E+00 -0.00000000000E+00 -0.89236734713E+03  0.89236734713E+03  0.00000000000E+00 0.  1.
         21    1    1    2  503  502  0.55405398395E+02  0.45452643810E+02 -0.31421153201E+03  0.32228029391E+03  0.00000000000E+00 0.  1.
         21    1    1    2  504  503  0.64529850416E+02 -0.76266456047E+02  0.10215280110E+03  0.14288410928E+03  0.00000000000E+00 0. -1.
         21    1    1    2  505  501 -0.42770088424E+02 -0.65505556285E+01 -0.55162501727E+03  0.55331939232E+03  0.00000000000E+00 0.  1.
          1    1    1    2  501    0 -0.77165160386E+02  0.37364367865E+02  0.14303733882E+04  0.14329405388E+04  0.00000000000E+00 0.  1.
<scales pt_clust_3="42.21283" pt_clust_4="86.09985" pt_clust_5="43.26881" pt_clust_6="14000.00000"></scales>
<clustering>
<clus scale="   43.269">  2  5  1 -1</clus>
<clus scale="   42.213">  2  3  1 -1</clus>
<clus scale="   86.100">  2  4  1 -1</clus>
<clus scale="   43.269">  2  3  1 -1</clus>
</clustering>
</event>
<event>
 6    0  0.1631680E+002  0.1464628E+03  0.7546771E-02  0.1204888E+00
         21   -1    0    0  501  502  0.00000000000E+00  0.00000000000E+00  0.37936342228E+03  0.37936342228E+03  0.00000000000E+00 0. -1.
          1   -1    0    0  503    0 -0.00000000000E+00 -0.00000000000E+00 -0.10214090478E+04  0.10214090478E+04  0.00000000000E+00 0.  1.
         21    1    1    2  503  504 -0.11230134973E+03  0.37156357629E+02 -0.85113038383E+02  0.14572720188E+03  0.00000000000E+00 0. -1.
         21    1    1    2  504  505  0.30160641923E+02 -0.73305648760E+02  0.23115066155E+03  0.24436450396E+03  0.00000000000E+00 0. -1.
         21    1    1    2  505  502  0.28641765808E+02 -0.61385738406E+02  0.97178024058E+02  0.11845728339E+03  0.00000000000E+00 0. -1.
          1    1    1    2  501    0  0.53498942002E+02  0.97535029537E+02 -0.88526127276E+03  0.89222348088E+03  0.00000000000E+00 0.  1.
<scales pt_clust_3="138.60347" pt_clust_4="43.75589" pt_clust_5="43.75589" pt_clust_6="111.24396"></scales>
<clustering>
<clus scale="   43.756">  4  5 -1 -1</clus>
<clus scale="  111.244">  2  6  1 -1</clus>
<clus scale="  138.603">  2  3  1 -1</clus>
<clus scale="  146.463">  1  3  2 -1</clus>
</clustering>
</event>
<event>
 6    0  0.1631680E+002  0.1059126E+03  0.7546771E-02  0.1268332E+00
         21   -1    0    0  501  502  0.00000000000E+00  0.00000000000E+00  0.34025003883E+03  0.34025003883E+03  0.00000000000E+00 0. -1.
          2   -1    0    0  504    0 -0.00000000000E+00 -0.00000000000E+00 -0.94041570838E+03  0.94041570838E+03  0.00000000000E+00 0. -1.
         21    1    1    2  503  505 -0.12522470050E+03  0.12172184808E+02  0.22297185600E+03  0.25601921074E+03  0.00000000000E+00 0. -1.
         21    1    1    2  504  503  0.21356577149E+02 -0.21965673351E+02 -0.68590277099E+03  0.68658663360E+03  0.00000000000E+00 0. -1.
         21    1    1    2  505  502  0.20387732257E+02 -0.30906361586E+02  0.87434843320E+02  0.94951117105E+02  0.00000000000E+00 0. -1.
          2    1    1    2  501    0  0.83480391096E+02  0.40699850130E+02 -0.22466959788E+03  0.24310878575E+03  0.00000000000E+00 0. -1.
<scales pt_clust_3="105.91255" pt_clust_4="30.63648" pt_clust_5="37.47025" pt_clust_6="14000.00000"></scales>
<clustering>
<clus scale="   30.636">  2  4  1 -1</clus>
<clus scale="   37.470">  1  5  2 -1</clus>
<clus scale="  105.913">  1  3  2 -1</clus>
<clus scale="   37.470">  1  3  2 -1</clus>
</clustering>
</event>
<event>
 6    0  0.1631680E+002  0.8455267E+02  0.7546771E-02  0.1316607E+00
         21   -1    0    0  504  502  0.00000000000E+00  0.00000000000E+00  0.20656244516E+03  0.20656244516E+03  0.00000000000E+00 0. -1.
         -1   -1    0    0    0  501 -0.00000000000E+00 -0.00000000000E+00 -0.37427598965E+03  0.37427598965E+03  0.00000000000E+00 0.  1.
         21    1    1    2  503  501 -0.43536303092E+02 -0.28109651830E+00 -0.28554244863E+03  0.28884248073E+03  0.00000000000E+00 0.  1.
         21    1    1    2  504  503  0.81178285351E+02  0.57865554285E+02  0.12560921971E+03  0.16036212914E+03  0.00000000000E+00 0. -1.
         21    1    1    2  505  502 -0.31864810113E+02  0.18370019182E+02  0.29195838685E+02  0.46959777734E+02  0.00000000000E+00 0. -1.
         -1    1    1    2    0  505 -0.57771721458E+01 -0.75954476950E+02 -0.36976154254E+02  0.84674047205E+02  0.00000000000E+00 0.  1.
<scales pt_clust_3="43.84848" pt_clust_4="14000.00000" pt_clust_5="36.78075" pt_clust_6="84.55267"></scales>
<clustering>
<clus scale="   36.781">  1  5  2 -1</clus>
<clus scale="   43.848">  2  3  1 -1</clus>
<clus scale="   84.553">  2  6  1 -1</clus>
<clus scale="   36.781">  1  3  2 -1</clus>
</clustering>
</event>
<event>
 6    0  0.1631680E+002  0.9481933E+02  0.7546771E-02  0.1291584E+00
          2   -1    0    0  504    0 -0.00000000000E+00  0.00000000000E+00  0.31134735281E+04  0.31134735281E+04  0.00000000000E+00 0.  1.
         21   -1    0    0  503  502  0.00000000000E+00 -0.00000000000E+00 -0.35487988459E+02  0.35487988459E+02  0.00000000000E+00 0. -1.
         21    1    1    2  503  501  0.39972656050E+02 -0.18974061112E+02  0.13778152524E+03  0.14471204830E+03  0.00000000000E+00 0. -1.
         21    1    1    2  504  505  0.57985314252E+02  0.31271942327E+02  0.40373140744E+03  0.40907124123E+03  0.00000000000E+00 0. -1.
         21    1    1    2  505  502 -0.85103995980E+02 -0.54566721030E+02  0.58478293517E+02  0.11679010227E+03  0.00000000000E+00 0. -1.
          2    1    1    2  501    0 -0.12853974322E+02  0.42268839815E+02  0.24779943135E+04  0.24783881248E+04  0.00000000000E+00 0.  1.
<scales pt_clust_3="38.33023" pt_clust_4="94.81933" pt_clust_5="14000.00000" pt_clust_6="44.18008"></scales>
<clustering>
<clus scale="   44.180">  1  6  2 -1</clus>
<clus scale="   38.330">  1  3  2 -1</clus>
<clus scale="   94.819">  1  4  2 -1</clus>
<clus scale="   94.819">  2  3  1 -1</clus>
</clustering>
</event>
<event>
 6    0  0.1631680E+002  0.8369318E+02  0.7546771E-02  0.1318886E+00
         21   -1    0    0  501  502  0.00000000000E+00  0.00000000000E+00  0.22984254790E+02  0.22984254790E+02  0.00000000000E+00 0.  1.
          1   -1    0    0  504    0 -0.00000000000E+00 -0.00000000000E+00 -0.30243294455E+04  0.30243294455E+04  0.00000000000E+00 0.  1.
         21    1    1    2  503  502 -0.39581786240E+02  0.22366035943E+02 -0.28549385919E+02  0.53684493126E+02  0.00000000000E+00 0.  1.
         21    1    1    2  504  505  0.55652540833E+02 -0.49131584776E+02 -0.21700597502E+04  0.21713291868E+04  0.00000000000E+00 0.  1.
         21    1    1    2  505  503  0.69775562993E+02  0.53214478184E+02 -0.35972250653E+03  0.37027110552E+03  0.00000000000E+00 0.  1.
          1    1    1    2  501    0 -0.85846317586E+02 -0.26448929351E+02 -0.44301354800E+03  0.45202891481E+03  0.00000000000E+00 0.  1.
<scales pt_clust_3="45.46380" pt_clust_4="71.52921" pt_clust_5="83.69318" pt_clust_6="14000.00000"></scales>
<clustering>
<clus scale="   45.464">  1  3  2 -1</clus>
<clus scale="   71.529">  2  4  1 -1</clus>
<clus scale="   83.693">  1  5  2 -1</clus>
<clus scale="   45.464">  1  3  2 -1</clus>
</clustering>
</event>
<event>
 6    0  0.1631680E+002  0.1147606E+03  0.7546771E-02  0.1252000E+00
          1   -1    0    0  505    0 -0.00000000000E+00  0.00000000000E+00  0.74571764208E+03  0.74571764208E+03  0.00000000000E+00 0.  1.
         21   -1    0    0  503  502  0.00000000000E+00 -0.00000000000E+00 -0.64345148363E+02  0.64345148363E+02  0.00000000000E+00 0. -1.
         21    1    1    2  503  504 -0.55767343935E+02 -0.10938741684E+03  0.16733264426E+03  0.20754714512E+03  0.00000000000E+00 0.  1.
         21    1    1    2  504  501  0.22686993359E+02  0.31466741418E+02  0.35380050906E+03  0.35592085594E+03  0.00000000000E+00 0.  1.
         21    1    1    2  505  502  0.25582560142E+02  0.10953615719E+03  0.35890673805E+02  0.11807107004E+03  0.00000000000E+00 0. -1.
          1    1    1    2  501    0  0.74977904337E+01 -0.31615481765E+02  0.12434866659E+03  0.12852371933E+03  0.00000000000E+00 0.  1.
<scales pt_clust_3="14000.00000" pt_clust_4="30.10543" pt_clust_5="114.76062" pt_clust_6="32.49239"></scales>
<clustering>
<clus scale="   32.492">  1  6  2 -1</clus>
<clus scale="   30.105">  1  4  2 -1</clus>
<clus scale="  114.761">  2  5  1 -1</clus>
<clus scale="  114.761">  2  3  1 -1</clus>
</clustering>
</event>
<event>
 6    0  0.1631680E+002  0.1001829E+03  0.7546771E-02  0.1279912E+00
         -3   -1    0    0    0  501 -0.00000000000E+00  0.00000000000E+00  0.28380151846E+04  0.28380151846E+04  0.00000000000E+00 0.  1.
         21   -1    0    0  503  502  0.00000000000E+00 -0.00000000000E+00 -0.12716332162E+03  0.12716332162E+03  0.00000000000E+00 0.  1.
         21    1    1    2  503  501 -0.51515802518E+02 -0.41674414786E+01  0.46398233060E+03  0.46685206285E+03  0.00000000000E+00 0.  1.
         21    1    1    2  504  502  0.62746811376E+02  0.80275531394E+02 -0.98103550090E+02  0.14144125925E+03  0.00000000000E+00 0.  1.
         21    1    1    2  505  504 -0.48708301647E+02 -0.62091894917E+02  0.26437120512E+03  0.27589859760E+03  0.00000000000E+00 0.  1.
         -3    1    1    2    0  505  0.37477292789E+02 -0.14016194998E+02  0.20806018774E+04  0.20809865865E+04  0.00000000000E+00 0.  1.
<scales pt_clust_3="31.21770" pt_clust_4="100.18293" pt_clust_5="14000.00000" pt_clust_6="40.01251"></scales>
<clustering>
<clus scale="   40.013">  1  6  2 -1</clus>
<clus scale="   31.218">  1  3  2 -1</clus>
<clus scale="  100.183">  2  4  1 -1</clus>
<clus scale="  100.183">  2  3  1 -1</clus>
</clustering>
</event>
<event>
 6    0  0.1631680E+002  0.7173162E+02  0.7546771E-02  0.1354302E+00
          3   -1    0    0  505    0 -0.00000000000E+00  0.00000000000E+00  0.16115704416E+03  0.16115704416E+03  0.00000000000E+00 0. -1.
         21   -1    0    0  504  502  0.00000000000E+00 -0.00000000000E+00 -0.35060590675E+03  0.35060590675E+03  0.00000000000E+00 0. -1.
         21    1    1    2  503  502 -0.30521778885E+02  0.69130958235E+02 -0.25743239317E+03  0.26829481066E+03  0.00000000000E+00 0. -1.
         21    1    1    2  504  501 -0.14305297082E+02 -0.65243642257E+02 -0.28031519297E+02  0.72437148299E+02  0.00000000000E+00 0.  1.
         21    1    1    2  505  503 -0.57256569755E+01  0.59364967003E+02  0.50467368184E+02  0.78127701275E+02  0.00000000000E+00 0. -1.
          3    1    1    2  501    0  0.50552732943E+02 -0.63252282981E+02  0.45547681691E+02  0.92903290672E+02  0.00000000000E+00 0. -1.
<scales pt_clust_3="71.73162" pt_clust_4="14000.00000" pt_clust_5="59.64044" pt_clust_6="50.91398"></scales>
<clustering>
<clus scale="   59.640">  1  5  2 -1</clus>
<clus scale="   50.914">  1  6  2 -1</clus>
<clus scale="   71.732">  2  3  1 -1</clus>
<clus scale="   71.732">  2  3  1 -1</clus>
</clustering>
</event>
<event>
 6    0  0.1631680E+002  0.5467657E+02  0.7546771E-02  0.1421635E+00
         21   -1    0    0  505  502  0.00000000000E+00  0.00000000000E+00  0.66618545738E+03  0.66618545738E+03  0.00000000000E+00 0. -1.
          1   -1    0    0  504    0 -0.00000000000E+00 -0.00000000000E+00 -0.32588707231E+03  0.32588707231E+03  0.00000000000E+00 0.  1.
         21    1    1    2  503  501  0.25143143253E+02  0.79342678552E+02 -0.29541411215E+02  0.88318363147E+02  0.00000000000E+00 0.  1.
         21    1    1    2  504  502 -0.29032734511E+02 -0.62019395664E+02  0.49649679498E+03  0.50119693987E+03  0.00000000000E+00 0. -1.
         21    1    1    2  505  503  0.46014833597E+02  0.11768681691E+02  0.13127019074E+03  0.13959845901E+03  0.00000000000E+00 0. -1.
          1    1    1    2  501    0 -0.42125242339E+02 -0.29091964579E+02 -0.25792718943E+03  0.26295876767E+03  0.00000000000E+00 0.  1.
<scales pt_clust_3="14000.00000" pt_clust_4="54.67657" pt_clust_5="47.49597" pt_clust_6="50.98340"></scales>
<clustering>
<clus scale="   47.496">  1  5  2 -1</clus>
<clus scale="   50.983">  2  6  1 -1</clus>
<clus scale="   54.677">  1  4  2 -1</clus>
<clus scale="   47.496">  1  3  2 -1</clus>
</clustering>
</event>
<event>
 6    0  0.1631680E+002  0.5955187E+02  0.7546771E-02  0.1399722E+00
         21   -1    0    0  505  502  0.00000000000E+00  0.00000000000E+00  0.28054753338E+03  0.28054753338E+03  0.00000000000E+00 0.  1.
          2   -1    0    0  503    0 -0.00000000000E+00 -0.00000000000E+00 -0.11898489842E+04  0.11898489842E+04  0.00000000000E+00 0.  1.
         21    1    1    2  503  502 -0.46490598005E+02 -0.45966634574E+00 -0.21120801654E+03  0.21626468331E+03  0.00000000000E+00 0. -1.
         21    1    1    2  504  501 -0.18926080564E+02 -0.90562745527E+02 -0.10745696460E+03  0.14179847194E+03  0.00000000000E+00 0.  1.
         21    1    1    2  505  504  0.18538574161E+02  0.38369812798E+02  0.25763605902E+03  0.26113647806E+03  0.00000000000E+00 0.  1.
          2    1    1    2  501    0  0.46878104408E+02  0.52652599074E+02 -0.84827252866E+03  0.85119688425E+03  0.00000000000E+00 0.  1.
<scales pt_clust_3="44.46734" pt_clust_4="14000.00000" pt_clust_5="42.61363" pt_clust_6="59.55187"></scales>
<clustering>
<clus scale="   42.614">  1  5  2 -1</clus>
<clus scale="   44.467">  2  3  1 -1</clus>
<clus scale="   59.552">  2  6  1 -1</clus>
<clus scale="   42.614">  1  3  2 -1</clus>
</clustering>
</event>
<event>
 6    0  0.1631680E+002  0.7626868E+02  0.7546771E-02  0.1339987E+00
         -2   -1    0    0    0  501 -0.00000000000E+00  0.00000000000E+00  0.65237163109E+03  0.65237163109E+03  0.00000000000E+00 0. -1.
         21   -1    0    0  505  502  0.00000000000E+00 -0.00000000000E+00 -0.44134347358E+03  0.44134347358E+03  0.00000000000E+00 0.  1.
         21    1    1    2  503  501  0.37972981314E+02 -0.62080821134E+02  0.33707621023E+03  0.34484249617E+03  0.00000000000E+00 0. -1.
         21    1    1    2  504  502 -0.20908724531E+02 -0.43221298226E+02 -0.40587679166E+03  0.40870677190E+03  0.00000000000E+00 0.  1.
         21    1    1    2  505  503 -0.48384344593E+02 -0.10210612709E+01  0.11351951082E+02  0.49708693014E+02  0.00000000000E+00 0. -1.
         -2    1    1    2    0  504  0.31320087809E+02  0.10632318063E+03  0.26847678786E+03  0.29045714358E+03  0.00000000000E+00 0. -1.
<scales pt_clust_3="14000.00000" pt_clust_4="48.01308" pt_clust_5="65.28861" pt_clust_6="76.26868"></scales>
<clustering>
<clus scale="   48.013">  2  4  1 -1</clus>
<clus scale="   65.289">  2  5  1 -1</clus>
<clus scale="   76.269">  2  6  1 -1</clus>
<clus scale="   48.013">  2  3  1 -1</clus>
</clustering>
</event>
<event>
 6    0  0.1631680E+002  0.1454688E+03  0.7546771E-02  0.1206154E+00
         -1   -1    0    0    0  501 -0.00000000000E+00  0.00000000000E+00  0.59365920295E+03  0.59365920295E+03  0.00000000000E+00 0.  1.
         21   -1    0    0  503  502  0.00000000000E+00 -0.00000000000E+00 -0.38457913872E+03  0.38457913872E+03  0.00000000000E+00 0.  1.
         21    1    1    2  503  501  0.23370347612E+02  0.19389476513E+02 -0.22291886367E+03  0.22497765384E+03  0.00000000000E+00 0.  1.
         21    1    1    2  504  505  0.44678729607E+02 -0.32836070215E+02  0.21406734902E+03  0.22113169448E+03  0.00000000000E+00 0.  1.
         21    1    1    2  505  502 -0.92729839952E+02  0.10028634271E+03 -0.12032740816E+03  0.18202982972E+03  0.00000000000E+00 0.  1.
         -1    1    1    2    0  504  0.24680762733E+02 -0.86839749009E+02  0.33825898704E+03  0.35009916363E+03  0.00000000000E+00 0.  1.
<scales pt_clust_3="30.36651" pt_clust_4="36.11846" pt_clust_5="138.03590" pt_clust_6="36.11846"></scales>
<clustering>
<clus scale="   30.367">  2  3  1 -1</clus>
<clus scale="   36.118">  4  6 -1 -1</clus>
<clus scale="  138.036">  2  5  1 -1</clus>
<clus scale="   30.367">  2  3  1 -1</clus>
</clustering>
</event>
<event>
 6    0  0.1631680E+002  0.7298384E+02  0.7546771E-02  0.1350231E+00
         21   -1    0    0  504  502  0.00000000000E+00  0.00000000000E+00  0.25612880778E+03  0.25612880778E+03  0.00000000000E+00 0. -1.
          2   -1    0    0  505    0 -0.00000000000E+00 -0.00000000000E+00 -0.32993867921E+03  0.32993867921E+03  0.00000000000E+00 0.  1.
         21    1    1    2  503  501  0.48469333868E+02  0.11033561003E+02  0.46266988105E+02  0.67909130331E+02  0.00000000000E+00 0. -1.
         21    1    1    2  504  503  0.94472703774E+01  0.46547040659E+02  0.17743299846E+03  0.18368001212E+03  0.00000000000E+00 0. -1.
         21    1    1    2  505  502 -0.35076246490E+02  0.39650620042E+02 -0.10649242988E+03  0.11892498627E+03  0.00000000000E+00 0.  1.
          2    1    1    2  501    0 -0.22840357756E+02 -0.97231221704E+02 -0.19101742811E+03  0.21555335826E+03  0.00000000000E+00 0.  1.
<scales pt_clust_3="14000.00000" pt_clust_4="47.49608" pt_clust_5="55.37951" pt_clust_6="72.98384"></scales>
<clustering>
<clus scale="   47.496">  1  4  2 -1</clus>
<clus scale="   55.380">  2  5  1 -1</clus>
<clus scale="   72.984">  2  6  1 -1</clus>
<clus scale="   47.496">  1  3  2 -1</clus>
</clustering>
</event>
<event>
 6    0  0.1631680E+002  0.9349989E+02  0.7546771E-02  0.1294591E+00
         21   -1    0    0  503  502  0.00000000000E+00  0.00000000000E+00  0.11422694376E+03  0.11422694376E+03  0.00000000000E+00 0. -1.
          2   -1    0    0  505    0 -0.00000000000E+00 -0.00000000000E+00 -0.21053789242E+04  0.21053789242E+04  0.00000000000E+00 0.  1.
         21    1    1    2  503  501 -0.10052666420E+02 -0.68466490836E+02  0.76991061605E+02  0.10351975675E+03  0.00000000000E+00 0. -1.
         21    1    1    2  504  502 -0.39428175193E+02  0.35946864239E+02 -0.25394080812E+02  0.59089909358E+02  0.00000000000E+00 0.  1.
         21    1    1    2  505  504  0.68773536263E+02 -0.66120179705E+02 -0.16060111415E+04  0.16088422745E+04  0.00000000000E+00 0.  1.
          2    1    1    2  501    0 -0.19292694650E+02  0.98639806302E+02 -0.43673781970E+03  0.44815392737E+03  0.00000000000E+00 0.  1.
<scales pt_clust_3="58.36701" pt_clust_4="53.35502" pt_clust_5="93.49989" pt_clust_6="14000.00000"></scales>
<clustering>
<clus scale="   53.355">  1  4  2 -1</clus>
<clus scale="   58.367">  1  3  2 -1</clus>
<clus scale="   93.500">  2  5  1 -1</clus>
<clus scale="   53.355">  1  3  2 -1</clus>
</clustering>
</event>
<event>
 6    0  0.1631680E+002  0.9951700E+02  0.7546771E-02  0.1281315E+00
         21   -1    0    0  501  502  0.00000000000E+00  0.00000000000E+00  0.16743201811E+03  0.16743201811E+03  0.00000000000E+00 0.  1.
          3   -1    0    0  505    0 -0.00000000000E+00 -0.00000000000E+00 -0.10165248218E+03  0.10165248218E+03  0.00000000000E+00 0. -1.
         21    1    1    2  503  502  0.16742234969E+02 -0.56582908902E+02  0.17319964566E+02  0.61497229077E+02  0.00000000000E+00 0.  1.
         21    1    1    2  504  503 -0.42177392325E+02 -0.10571054129E+02 -0.15410518348E+02  0.46132024500E+02  0.00000000000E+00 0.  1.
         21    1    1    2  505  504 -0.48292133730E+02  0.99997782411E-02  0.25472445236E+02  0.54598312671E+02  0.00000000000E+00 0.  1.
          3    1    1    2  501    0  0.73727291085E+02  0.67143963253E+02  0.38397644475E+02  0.10685693404E+03  0.00000000000E+00 0. -1.
<scales pt_clust_3="59.00786" pt_clust_4="39.68460" pt_clust_5="39.68460" pt_clust_6="90.30253"></scales>
<clustering>
<clus scale="   39.685">  4  5 -1 -1</clus>
<clus scale="   59.008">  1  3  2 -1</clus>
<clus scale="   90.303">  1  6  2 -1</clus>
<clus scale="   59.008">  1  3  2 -1</clus>
</clustering>
</event>
<event>
 6    0  0.1631680E+002  0.2304220E+03  0.7546771E-02  0.1126343E+00
         21   -1    0    0  503  502  0.00000000000E+00  0.00000000000E+00  0.99359958546E+03  0.99359958546E+03  0.00000000000E+00 0.  1.
         -3   -1    0    0    0  501 -0.00000000000E+00 -0.00000000000E+00 -0.14116573402E+04  0.14116573402E+04  0.00000000000E+00 0. -1.
         21    1    1    2  503  505 -0.33124722102E+02  0.39196380391E+01  0.20693083731E+02  0.39253209945E+02  0.00000000000E+00 0.  1.
         21    1    1    2  504  502 -0.17859292583E+03  0.93575669033E+02  0.93054971655E+03  0.95214211857E+03  0.00000000000E+00 0.  1.
         21    1    1    2  505  501  0.48077148132E+02  0.12143019697E+02 -0.94246586269E+03  0.94376944612E+03  0.00000000000E+00 0. -1.
         -3    1    1    2    0  504  0.16364049980E+03 -0.10963832677E+03 -0.42683469235E+03  0.47009215104E+03  0.00000000000E+00 0. -1.
<scales pt_clust_3="33.35582" pt_clust_4="14000.00000" pt_clust_5="49.56587" pt_clust_6="230.42204"></scales>
<clustering>
<clus scale="   33.356">  1  3  2 -1</clus>
<clus scale="   49.566">  2  5  1 -1</clus>
<clus scale="  230.422">  2  6  1 -1</clus>
<clus scale="   33.356">  1  3  2 -1</clus>
</clustering>
</event>
<event>
 6    0  0.1631680E+002  0.5913832E+02  0.7546771E-02  0.1401484E+00
          2   -1    0    0  505    0 -0.00000000000E+00  0.00000000000E+00  0.42468719351E+04  0.42468719351E+04  0.00000000000E+00 0. -1.
         21   -1    0    0  504  502  0.00000000000E+00 -0.00000000000E+00 -0.60934836992E+02  0.60934836992E+02  0.00000000000E+00 0. -1.
         21    1    1    2  503  502 -0.25683077715E+02  0.19660385516E+02  0.41617041278E+02  0.52707963007E+02  0.00000000000E+00 0.  1.
         21    1    1    2  504  501  0.60921953436E+02 -0.64801970348E+02 -0.15935106033E+02  0.90358770331E+02  0.00000000000E+00 0. -1.
         21    1    1    2  505  503 -0.35541143344E+01 -0.48783436971E+02  0.37367650757E+03  0.37686415027E+03  0.00000000000E+00 0. -1.
          2    1    1    2  501    0 -0.31684761386E+02  0.93925021802E+02  0.37865786553E+04  0.37878758885E+04  0.00000000000E+00 0. -1.
<scales pt_clust_3="32.34426" pt_clust_4="14000.00000" pt_clust_5="48.40846" pt_clust_6="59.13832"></scales>
<clustering>
<clus scale="   32.344">  2  3  1 -1</clus>
<clus scale="   48.408">  1  5  2 -1</clus>
<clus scale="   59.138">  1  6  2 -1</clus>
<clus scale="   32.344">  2  3  1 -1</clus>
</clustering>
</event>
<event>
 6    0  0.1631680E+002  0.1002322E+03  0.7546771E-02  0.1279808E+00
          1   -1    0    0  505    0 -0.00000000000E+00  0.00000000000E+00  0.15159822013E+03  0.15159822013E+03  0.00000000000E+00 0. -1.
         21   -1    0    0  501  502  0.00000000000E+00 -0.00000000000E+00 -0.25560821799E+03  0.25560821799E+03  0.00000000000E+00 0.  1.
         21    1    1    2  503  502 -0.81513707237E+02 -0.62197511121E+02 -0.16714104777E+03  0.19608453459E+03  0.00000000000E+00 0.  1.
         21    1    1    2  504  503  0.49244102134E+02  0.10290922633E+02 -0.82168628033E+01  0.50974518320E+02  0.00000000000E+00 0.  1.
         21    1    1    2  505  504 -0.47707469871E+01 -0.36114118671E+02 -0.64222232353E+01  0.36989654574E+02  0.00000000000E+00 0.  1.
          1    1    1    2  501    0  0.37040352091E+02  0.88020707160E+02  0.77770135947E+02  0.12315773064E+03  0.00000000000E+00 0. -1.
<scales pt_clust_3="100.23223" pt_clust_4="48.71611" pt_clust_5="36.42787" pt_clust_6="14000.00000"></scales>
<clustering>
<clus scale="   36.428">  1  5  2 -1</clus>
<clus scale="   48.716">  1  4  2 -1</clus>
<clus scale="  100.232">  2  3  1 -1</clus>
<clus scale="  100.232">  2  3  1 -1</clus>
</clustering>
</event>
<event>
 6    0  0.1631680E+002  0.8978166E+02  0.7546771E-02  0.1303381E+00
          2   -1    0    0  505    0 -0.00000000000E+00  0.00000000000E+00  0.30101028142E+04  0.30101028142E+04  0.00000000000E+00 0.  1.
         21   -1    0    0  504  502  0.00000000000E+00 -0.00000000000E+00 -0.38987716853E+02  0.38987716853E+02  0.00000000000E+00 0.  1.
         21    1    1    2  503  502  0.37838854702E+02  0.78412775662E+02  0.13695215862E+03  0.16228442952E+03  0.00000000000E+00 0.  1.
         21    1    1    2  504  501 -0.66615084326E+02 -0.65844798252E+02  0.77249667424E+02  0.12141094693E+03  0.00000000000E+00 0.  1.
         21    1    1    2  505  503 -0.45522175680E+02  0.48691081152E+02  0.33493761994E+03  0.34150592837E+03  0.00000000000E+00 0.  1.
          2    1    1    2  501    0  0.74298405304E+02 -0.61259058562E+02  0.24219756513E+04  0.24238892262E+04  0.00000000000E+00 0.  1.
<scales pt_clust_3="14000.00000" pt_clust_4="89.78166" pt_clust_5="66.65651" pt_clust_6="37.18519"></scales>
<clustering>
<clus scale="   66.657">  1  5  2 -1</clus>
<clus scale="   37.185">  1  6  2 -1</clus>
<clus scale="   89.782">  2  4  1 -1</clus>
<clus scale="   89.782">  2  3  1 -1</clus>
</clustering>
</event>
<event>
 6    0  0.1631680E+002  0.7066579E+02  0.7546771E-02  0.1357844E+00
          2   -1    0    0  505    0 -0.00000000000E+00  0.00000000000E+00  0.71405049766E+03  0.71405049766E+03  0.00000000000E+00 0.  1.
         21   -1    0    0  503  502  0.00000000000E+00 -0.00000000000E+00 -0.26957077462E+03  0.26957077462E+03  0.00000000000E+00 0.  1.
         21    1    1    2  503  501  0.10421121386E+03  0.68832064992E+02 -0.13947890549E+03  0.18722231529E+03  0.00000000000E+00 0.  1.
         21    1    1    2  504  502 -0.36359474713E+02 -0.35007617502E+02 -0.93564921157E+02  0.10631057876E+03  0.00000000000E+00 0.  1.
         21    1    1    2  505  504 -0.36007040503E+02 -0.17291693917E+02  0.63506706417E+02  0.75024072165E+02  0.00000000000E+00 0.  1.
          2    1    1    2  501    0 -0.31844698640E+02 -0.16532753573E+02  0.61401684327E+03  0.61506430607E+03  0.00000000000E+00 0.  1.
<scales pt_clust_3="14000.00000" pt_clust_4="52.68073" pt_clust_5="70.66579" pt_clust_6="35.88059"></scales>
<clustering>
<clus scale="   35.881">  1  6  2 -1</clus>
<clus scale="   52.681">  2  4  1 -1</clus>
<clus scale="   70.666">  1  5  2 -1</clus>
<clus scale="   52.681">  2  3  1 -1</clus>
</clustering>
</event>
<event>
 6    0  0.1631680E+002  0.1755924E+03  0.7546771E-02  0.1172138E+00
          2   -1    0    0  505    0 -0.00000000000E+00  0.00000000000E+00  0.11104978327E+04  0.11104978327E+04  0.00000000000E+00 0.  1.
         21   -1    0    0  504  502  0.00000000000E+00 -0.00000000000E+00 -0.16097273126E+03  0.16097273126E+03  0.00000000000E+00 0.  1.
         21    1    1    2  503  502  0.13616127516E+03  0.11015051398E+03 -0.65353434905E+02  0.18693341071E+03  0.00000000000E+00 0.  1.
         21    1    1    2  504  501  0.29324056672E+02 -0.41641306268E+02  0.88269331923E+00  0.50937980279E+02  0.00000000000E+00 0. -1.
         21    1    1    2  505  503 -0.17307788482E+02 -0.36144193876E+02  0.11229603976E+03  0.11923239005E+03  0.00000000000E+00 0.  1.
          2    1    1    2  501    0 -0.14817754335E+03 -0.32365013841E+02  0.90169980325E+03  0.91436678290E+03  0.00000000000E+00 0.  1.
<scales pt_clust_3="14000.00000" pt_clust_4="51.44858" pt_clust_5="40.07446" pt_clust_6="175.59237"></scales>
<clustering>
<clus scale="   40.074">  1  5  2 -1</clus>
<clus scale="   51.449">  2  4  1 -1</clus>
<clus scale="  175.592">  1  6  2 -1</clus>
<clus scale="   51.449">  2  3  1 -1</clus>
</clustering>
</event>
<event>
 6    0  0.1631680E+002  0.8681186E+02  0.7546771E-02  0.1310761E+00
          2   -1    0    0  503    0 -0.00000000000E+00  0.00000000000E+00  0.17336659136E+04  0.17336659136E+04  0.00000000000E+00 0.  1.
         21   -1    0    0  504  502  0.00000000000E+00 -0.00000000000E+00 -0.25055375033E+03  0.25055375033E+03  0.00000000000E+00 0.  1.
         21    1    1    2  503  502  0.51644392441E+02 -0.34419978997E+02  0.25063837501E+01  0.62114090062E+02  0.00000000000E+00 0. -1.
         21    1    1    2  504  505  0.45289385010E+02  0.24651629234E+02 -0.21180578612E+03  0.21799202337E+03  0.00000000000E+00 0.  1.
         21    1    1    2  505  501 -0.82830179027E+02 -0.39079654646E+02  0.38613729225E+03  0.39685018134E+03  0.00000000000E+00 0.  1.
          2    1    1    2  501    0 -0.14103598423E+02  0.48848004409E+02  0.13062742734E+04  0.13072633692E+04  0.00000000000E+00 0.  1.
<scales pt_clust_3="14000.00000" pt_clust_4="51.64456" pt_clust_5="86.81186" pt_clust_6="50.84328"></scales>
<clustering>
<clus scale="   50.843">  1  6  2 -1</clus>
<clus scale="   51.645">  2  4  1 -1</clus>
<clus scale="   86.812">  1  5  2 -1</clus>
<clus scale="   51.645">  2  3  1 -1</clus>
</clustering>
</event>
<event>
 6    0  0.1631680E+002  0.1381099E+03  0.7546771E-02  0.1215895E+00
          2   -1    0    0  505    0 -0.00000000000E+00  0.00000000000E+00  0.20777731232E+04  0.20777731232E+04  0.00000000000E+00 0. -1.
         21   -1    0    0  504  502  0.00000000000E+00 -0.00000000000E+00 -0.33503606611E+03  0.33503606611E+03  0.00000000000E+00 0. -1.
         21    1    1    2  503  501  0.30009963278E+02  0.63646754441E+02  0.16185043903E+02  0.72204313534E+02  0.00000000000E+00 0. -1.
         21    1    1    2  504  503 -0.11674977278E+02  0.32649284307E+02 -0.29836851570E+03  0.30037651709E+03  0.00000000000E+00 0. -1.
         21    1    1    2  505  502  0.52320712723E+02  0.30359236038E+02  0.18581676622E+03  0.19541497077E+03  0.00000000000E+00 0.  1.
          2    1    1    2  501    0 -0.70655698722E+02 -0.12665527479E+03  0.18391037627E+04  0.18448133880E+04  0.00000000000E+00 0. -1.
<scales pt_clust_3="138.10985" pt_clust_4="34.67392" pt_clust_5="61.50837" pt_clust_6="14000.00000"></scales>
<clustering>
<clus scale="   34.674">  2  4  1 -1</clus>
<clus scale="   61.508">  2  5  1 -1</clus>
<clus scale="  138.110">  2  3  1 -1</clus>
<clus scale="   34.674">  2  3  1 -1</clus>
</clustering>
</event>
<event>
 6    0  0.1631680E+002  0.1223755E+03  0.7546771E-02  0.1239229E+00
          2   -1    0    0  503    0 -0.00000000000E+00  0.00000000000E+00  0.33372113002E+04  0.33372113002E+04  0.00000000000E+00 0. -1.
         21   -1    0    0  504  502  0.00000000000E+00 -0.00000000000E+00 -0.29420836328E+02  0.29420836328E+02  0.00000000000E+00 0.  1.
         21    1    1    2  503  502 -0.26369552269E+02  0.20383075277E+02  0.14796018917E+03  0.15166753319E+03  0.00000000000E+00 0.  1.
         21    1    1    2  504  505  0.34373215803E+02 -0.81741938045E+02  0.76295751163E+02  0.11697993010E+03  0.00000000000E+00 0.  1.
         21    1    1    2  505  501  0.81907133341E+02 -0.37473026016E+02  0.35731015558E+03  0.36848819988E+03  0.00000000000E+00 0.  1.
          2    1    1    2  501    0 -0.89910796876E+02  0.98831888784E+02  0.27262243679E+04  0.27294964734E+04  0.00000000000E+00 0. -1.
<scales pt_clust_3="33.32901" pt_clust_4="68.34826" pt_clust_5="122.37546" pt_clust_6="14000.00000"></scales>
<clustering>
<clus scale="   33.329">  2  3  1 -1</clus>
<clus scale="   68.348">  2  4  1 -1</clus>
<clus scale="  122.375">  2  5  1 -1</clus>
<clus scale="   33.329">  2  3  1 -1</clus>
</clustering>
</event>
<event>
 6    0  0.1631680E+002  0.8308163E+02  0.7546771E-02  0.1320527E+00
          2   -1    0    0  503    0 -0.00000000000E+00  0.00000000000E+00  0.31180824084E+03  0.31180824084E+03  0.00000000000E+00 0. -1.
         21   -1    0    0  505  502  0.00000000000E+00 -0.00000000000E+00 -0.11736084561E+03  0.11736084561E+03  0.00000000000E+00 0.  1.
         21    1    1    2  503  504 -0.32504487028E+01  0.69165828760E+02  0.67993270464E+02  0.97044124568E+02  0.00000000000E+00 0.  1.
         21    1    1    2  504  502  0.91320874958E+02  0.54415633787E+01 -0.36043185219E+02  0.98327127568E+02  0.00000000000E+00 0.  1.
         21    1    1    2  505  501 -0.58644645880E+02 -0.59234047907E+02  0.17659875002E+02  0.85204096773E+02  0.00000000000E+00 0.  1.
          2    1    1    2  501    0 -0.29425780376E+02 -0.15373344232E+02  0.14483743499E+03  0.14859373754E+03  0.00000000000E+00 0. -1.
<scales pt_clust_3="64.05082" pt_clust_4="14000.00000" pt_clust_5="83.08163" pt_clust_6="33.19964"></scales>
<clustering>
<clus scale="   33.200">  1  6  2 -1</clus>
<clus scale="   64.051">  1  3  2 -1</clus>
<clus scale="   83.082">  1  5  2 -1</clus>
<clus scale="   83.082">  2  3  1 -1</clus>
</clustering>
</event>
<event>
 6    0  0.1631680E+002  0.1206121E+03  0.7546771E-02  0.1242091E+00
         21   -1    0    0  501  502  0.00000000000E+00  0.00000000000E+00  0.34517377622E+03  0.34517377622E+03  0.00000000000E+00 0. -1.
          1   -1    0    0  503    0 -0.00000000000E+00 -0.00000000000E+00 -0.13370191394E+03  0.13370191394E+03  0.00000000000E+00 0. -1.
         21    1    1    2  503  505 -0.27060580021E+02  0.36527893672E+02  0.56487430515E+02  0.72507874147E+02  0.00000000000E+00 0. -1.
         21    1    1    2  504  502  0.10418428368E+02  0.29514497795E+02  0.18862643865E+03  0.19120560292E+03  0.00000000000E+00 0. -1.
         21    1    1    2  505  504 -0.65425484966E+02  0.12114700047E+02  0.42204480614E+02  0.78793897125E+02  0.00000000000E+00 0. -1.
          1    1    1    2  501    0  0.82067636619E+02 -0.78157091514E+02 -0.75846487496E+02  0.13636831597E+03  0.00000000000E+00 0. -1.
<scales pt_clust_3="42.74803" pt_clust_4="31.29935" pt_clust_5="42.74803" pt_clust_6="110.97265"></scales>
<clustering>
<clus scale="   31.299">  1  4  2 -1</clus>
<clus scale="   42.748">  3  5 -1 -1</clus>
<clus scale="  110.973">  2  6  1 -1</clus>
<clus scale="   31.299">  1  3  2 -1</clus>
</clustering>
</event>
<event>
 6    0  0.1631680E+002  0.7485787E+02  0.7546771E-02  0.1344312E+00
         21   -1    0    0  503  502  0.00000000000E+00  0.00000000000E+00  0.19639611089E+03  0.19639611089E+03  0.00000000000E+00 0. -1.
          1   -1    0    0  505    0 -0.00000000000E+00 -0.00000000000E+00 -0.13030645062E+04  0.13030645062E+04  0.00000000000E+00 0. -1.
         21    1    1    2  503  501 -0.33309908747E+02  0.32193620930E+02  0.17741392172E+03  0.18336215223E+03  0.00000000000E+00 0. -1.
         21    1    1    2  504  502  0.78297172712E+02  0.12077016459E+02 -0.16342088760E+03  0.18161136551E+03  0.00000000000E+00 0. -1.
         21    1    1    2  505  504  0.12928596342E+02  0.42403390564E+02 -0.68870549750E+03  0.69013075459E+03  0.00000000000E+00 0. -1.
          1    1    1    2  501    0 -0.57915860307E+02 -0.86674027953E+02 -0.43195593192E+03  0.44435634475E+03  0.00000000000E+00 0. -1.
<scales pt_clust_3="46.42288" pt_clust_4="14000.00000" pt_clust_5="44.33053" pt_clust_6="74.85787"></scales>
<clustering>
<clus scale="   44.331">  2  5  1 -1</clus>
<clus scale="   46.423">  1  3  2 -1</clus>
<clus scale="   74.858">  2  6  1 -1</clus>
<clus scale="   46.423">  1  3  2 -1</clus>
</clustering>
</event>
<event>
 6    0  0.1631680E+002  0.9138810E+02  0.7546771E-02  0.1299525E+00
          2   -1    0    0  505    0 -0.00000000000E+00  0.00000000000E+00  0.19869862746E+04  0.19869862746E+04  0.00000000000E+00 0.  1.
         21   -1    0    0  503  502  0.00000000000E+00 -0.00000000000E+00 -0.20929572974E+03  0.20929572974E+03  0.00000000000E+00 0.  1.
         21    1    1    2  503  501 -0.59783700547E+02 -0.27191232058E+02  0.31161805781E+03  0.31846391931E+03  0.00000000000E+00 0.  1.
         21    1    1    2  504  502 -0.12971629400E+02 -0.28510685046E+02 -0.19713389340E+03  0.19960684922E+03  0.00000000000E+00 0.  1.
         21    1    1    2  505  504  0.79190698459E+02  0.12040108138E+03  0.82541112546E+03  0.83789683921E+03  0.00000000000E+00 0.  1.
          2    1    1    2  501    0 -0.64353685123E+01 -0.64699164281E+02  0.83779525501E+03  0.84031439661E+03  0.00000000000E+00 0.  1.
<scales pt_clust_3="91.38810" pt_clust_4="31.32287" pt_clust_5="14000.00000" pt_clust_6="68.44714"></scales>
<clustering>
<clus scale="   31.323">  2  4  1 -1</clus>
<clus scale="   68.447">  1  6  2 -1</clus>
<clus scale="   91.388">  2  3  1 -1</clus>
<clus scale="   31.323">  2  3  1 -1</clus>
</clustering>
</event>
<event>
 6    0  0.1631680E+002  0.8213568E+02  0.7546771E-02  0.1323098E+00
          2   -1    0    0  504    0 -0.00000000000E+00  0.00000000000E+00  0.48488917556E+03  0.48488917556E+03  0.00000000000E+00 0. -1.
         21   -1    0    0  503  502  0.00000000000E+00 -0.00000000000E+00 -0.49646971020E+03  0.49646971020E+03  0.00000000000E+00 0. -1.
         21    1    1    2  503  501 -0.18229793232E+02  0.49886947022E+02 -0.54190433875E+02  0.75879087817E+02  0.00000000000E+00 0.  1.
         21    1    1    2  504  505  0.58551073182E+02 -0.28955041500E+02  0.13273205354E+03  0.14793383871E+03  0.00000000000E+00 0.  1.
         21    1    1    2  505  502  0.66644225563E+02  0.17126991398E+02 -0.41123549650E+03  0.41695253953E+03  0.00000000000E+00 0. -1.
          2    1    1    2  501    0 -0.10696550551E+03 -0.38058896920E+02  0.32111334221E+03  0.34059341971E+03  0.00000000000E+00 0. -1.
<scales pt_clust_3="53.11340" pt_clust_4="64.64512" pt_clust_5="14000.00000" pt_clust_6="82.13568"></scales>
<clustering>
<clus scale="   53.113">  2  3  1 -1</clus>
<clus scale="   64.645">  1  4  2 -1</clus>
<clus scale="   82.136">  1  6  2 -1</clus>
<clus scale="   53.113">  2  3  1 -1</clus>
</clustering>
</event>
<event>
 6    0  0.1631680E+002  0.2069115E+03  0.7546771E-02  0.1144035E+00
          2   -1    0    0  503    0 -0.00000000000E+00  0.00000000000E+00  0.17201080297E+04  0.17201080297E+04  0.00000000000E+00 0.  1.
         21   -1    0    0  505  502  0.00000000000E+00 -0.00000000000E+00 -0.28265288709E+03  0.28265288709E+03  0.00000000000E+00 0. -1.
         21    1    1    2  503  502 -0.16499741496E+03 -0.14709497882E+03  0.44149594716E+03  0.49374057064E+03  0.00000000000E+00 0.  1.
         21    1    1    2  504  501  0.91907838757E+02 -0.15337958122E+02  0.23918256500E+03  0.25669165001E+03  0.00000000000E+00 0.  1.
         21    1    1    2  505  504 -0.54843713855E+02  0.59274387411E+01 -0.23437246789E+03  0.24077670399E+03  0.00000000000E+00 0. -1.
          2    1    1    2  501    0  0.12793329006E+03  0.15650549820E+03  0.99114909836E+03  0.10115519922E+04  0.00000000000E+00 0.  1.
<scales pt_clust_3="14000.00000" pt_clust_4="82.48594" pt_clust_5="55.16310" pt_clust_6="206.91154"></scales>
<clustering>
<clus scale="   55.163">  2  5  1 -1</clus>
<clus scale="   82.486">  2  4  1 -1</clus>
<clus scale="  206.912">  1  6  2 -1</clus>
<clus scale="   55.163">  2  3  1 -1</clus>
</clustering>
</event>
<event>
 6    0  0.1631680E+002  0.1663118E+03  0.7546771E-02  0.1181749E+00
         21   -1    0    0  503  502  0.00000000000E+00  0.00000000000E+00  0.82564790369E+03  0.82564790369E+03  0.00000000000E+00 0.  1.
         -3   -1    0    0    0  501 -0.00000000000E+00 -0.00000000000E+00 -0.25317298970E+03  0.25317298970E+03  0.00000000000E+00 0.  1.
         21    1    1    2  503  504 -0.36075693664E+02 -0.66063337597E+01  0.60238940512E+03  0.60350484234E+03  0.00000000000E+00 0.  1.
         21    1    1    2  504  501  0.30703780679E+02 -0.19879454860E+02 -0.84097146791E+02  0.91707387772E+02  0.00000000000E+00 0.  1.
         21    1    1    2  505  502  0.97807682122E+02 -0.13489439150E+03  0.96952037368E+02  0.19277587269E+03  0.00000000000E+00 0.  1.
         -3    1    1    2    0  505 -0.92435769138E+02  0.16138018012E+03 -0.42769381706E+02  0.19083279059E+03  0.00000000000E+00 0.  1.
<scales pt_clust_3="36.58586" pt_clust_4="36.57752" pt_clust_5="14000.00000" pt_clust_6="166.31185"></scales>
<clustering>
<clus scale="   36.578">  2  4  1 -1</clus>
<clus scale="   36.586">  1  3  2 -1</clus>
<clus scale="  166.312">  2  6  1 -1</clus>
<clus scale="   36.586">  1  3  2 -1</clus>
</clustering>
</event>
<event>
 6    0  0.1631680E+002  0.1206580E+03  0.7546771E-02  0.1242016E+00
          2   -1    0    0  504    0 -0.00000000000E+00  0.00000000000E+00  0.78616980618E+03  0.78616980618E+03  0.00000000000E+00 0.  1.
         21   -1    0    0  501  502  0.00000000000E+00 -0.00000000000E+00 -0.25511616990E+03  0.25511616990E+03  0.00000000000E+00 0. -1.
         21    1    1    2  503  505 -0.17999365767E+02  0.31837275880E+02 -0.31471984080E+02  0.48250130418E+02  0.00000000000E+00 0. -1.
         21    1    1    2  504  503 -0.19469679659E+02  0.95169247508E+02  0.13146506696E+03  0.16346044759E+03  0.00000000000E+00 0.  1.
         21    1    1    2  505  502  0.35156678971E+02  0.42388181975E+01 -0.19077626802E+03  0.19403490432E+03  0.00000000000E+00 0. -1.
          2    1    1    2  501    0  0.23123664550E+01 -0.13124534158E+03  0.62183682142E+03  0.63554049375E+03  0.00000000000E+00 0.  1.
<scales pt_clust_3="34.80421" pt_clust_4="14000.00000" pt_clust_5="35.41129" pt_clust_6="120.65795"></scales>
<clustering>
<clus scale="   35.411">  2  5  1 -1</clus>
<clus scale="   34.804">  2  3  1 -1</clus>
<clus scale="  120.658">  1  6  2 -1</clus>
<clus scale="   35.411">  2  3  1 -1</clus>
</clustering>
</event>
<event>
 6    0  0.1631680E+002  0.1505788E+03  0.7546771E-02  0.1199764E+00
          2   -1    0    0  505    0 -0.00000000000E+00  0.00000000000E+00  0.64034218085E+03  0.64034218085E+03  0.00000000000E+00 0.  1.
         21   -1    0    0  503  502  0.00000000000E+00 -0.00000000000E+00 -0.16144496454E+03  0.16144496454E+03  0.00000000000E+00 0. -1.
         21    1    1    2  503  501  0.32591720089E+02 -0.15841427865E+03  0.87621425924E+02  0.18394243170E+03  0.00000000000E+00 0. -1.
         21    1    1    2  504  502 -0.29412875180E+01  0.14697339598E+03 -0.50543595620E+02  0.15544930156E+03  0.00000000000E+00 0. -1.
         21    1    1    2  505  504 -0.86757817730E+01  0.54018518955E+02  0.76753133171E+02  0.94256633883E+02  0.00000000000E+00 0. -1.
          2    1    1    2  501    0 -0.20974650798E+02 -0.42577636289E+02  0.36506625284E+03  0.36813877825E+03  0.00000000000E+00 0.  1.
<scales pt_clust_3="150.57884" pt_clust_4="14000.00000" pt_clust_5="43.47313" pt_clust_6="47.46358"></scales>
<clustering>
<clus scale="   47.464">  1  6  2 -1</clus>
<clus scale="   43.473">  1  5  2 -1</clus>
<clus scale="  150.579">  1  3  2 -1</clus>
<clus scale="  150.579">  2  3  1 -1</clus>
</clustering>
</event>
<event>
 6    0  0.1631680E+002  0.1642203E+03  0.7546771E-02  0.1184013E+00
         21   -1    0    0  501  502  0.00000000000E+00  0.00000000000E+00  0.32194128117E+03  0.32194128117E+03  0.00000000000E+00 0.  1.
          1   -1    0    0  505    0 -0.00000000000E+00 -0.00000000000E+00 -0.61282730881E+03  0.61282730881E+03  0.00000000000E+00 0. -1.
         21    1    1    2  503  504  0.17183749345E+03 -0.97468160187E+02  0.13025294672E+03  0.23663050634E+03  0.00000000000E+00 0.  1.
         21    1    1    2  504  502 -0.27721452126E+02  0.20287423431E+02  0.11793457397E+03  0.12283575292E+03  0.00000000000E+00 0. -1.
         21    1    1    2  505  503 -0.25803212595E+02  0.17894819503E+02 -0.15039386947E+02  0.34816856621E+02  0.00000000000E+00 0. -1.
          1    1    1    2  501    0 -0.11831282873E+03  0.59285917253E+02 -0.52403416137E+03  0.54048547410E+03  0.00000000000E+00 0. -1.
<scales pt_clust_3="14000.00000" pt_clust_4="34.48283" pt_clust_5="31.40112" pt_clust_6="164.22026"></scales>
<clustering>
<clus scale="   31.401">  2  5  1 -1</clus>
<clus scale="   34.483">  1  4  2 -1</clus>
<clus scale="  164.220">  2  6  1 -1</clus>
<clus scale="   34.483">  1  3  2 -1</clus>
</clustering>
</event>
<event>
 6    0  0.1631680E+002  0.1044984E+03  0.7546771E-02  0.1271111E+00
         21   -1    0    0  501  502  0.00000000000E+00  0.00000000000E+00  0.10538713643E+04  0.10538713643E+04  0.00000000000E+00 0.  1.
          2   -1    0    0  504    0 -0.00000000000E+00 -0.00000000000E+00 -0.72232719424E+02  0.72232719424E+02  0.00000000000E+00 0.  1.
         21    1    1    2  503  502  0.33258573415E+01  0.10724064407E+03  0.72488964163E+03  0.73278687871E+03  0.00000000000E+00 0.  1.
         21    1    1    2  504  505  0.40925829392E+02  0.22401487617E+02  0.30203180232E+02  0.55578613288E+02  0.00000000000E+00 0.  1.
         21    1    1    2  505  503 -0.10333380998E+03 -0.53561685308E+02  0.20986284975E+03  0.23997738670E+03  0.00000000000E+00 0.  1.
          2    1    1    2  501    0  0.59082123247E+02 -0.76080446374E+02  0.16682973234E+02  0.97761205004E+02  0.00000000000E+00 0.  1.
<scales pt_clust_3="104.49839" pt_clust_4="46.65566" pt_clust_5="104.59587" pt_clust_6="14000.00000"></scales>
<clustering>
<clus scale="   46.656">  2  4  1 -1</clus>
<clus scale="  104.596">  2  5  1 -1</clus>
<clus scale="  104.498">  1  3  2 -1</clus>
<clus scale="  104.498">  1  3  2 -1</clus>
</clustering>
</event>
<event>
 6    0  0.1631680E+002  0.9977519E+02  0.7546771E-02  0.1280769E+00
         21   -1    0    0  504  502  0.00000000000E+00  0.00000000000E+00  0.41716740759E+03  0.41716740759E+03  0.00000000000E+00 0.  1.
          2   -1    0    0  502    0 -0.00000000000E+00 -0.00000000000E+00 -0.21818081784E+04  0.21818081784E+04  0.00000000000E+00 0.  1.
         21    1    1    2  503  501  0.14204956780E+02 -0.68323630888E+02 -0.16432001310E+03  0.17852441301E+03  0.00000000000E+00 0. -1.
         21    1    1    2  504  505 -0.45654747361E+02 -0.21163484116E+02  0.14672480980E+03  0.15511421221E+03  0.00000000000E+00 0.  1.
         21    1    1    2  505  503 -0.25651126434E+02  0.96842642113E+02  0.24903283624E+03  0.26842844698E+03  0.00000000000E+00 0.  1.
          2    1    1    2  501    0  0.57100917015E+02 -0.73555271094E+01 -0.19960784037E+04  0.19969085138E+04  0.00000000000E+00 0.  1.
<scales pt_clust_3="99.77519" pt_clust_4="50.32146" pt_clust_5="14000.00000" pt_clust_6="57.50637"></scales>
<clustering>
<clus scale="   50.321">  1  4  2 -1</clus>
<clus scale="   57.506">  2  6  1 -1</clus>
<clus scale="   99.775">  2  3  1 -1</clus>
<clus scale="   50.321">  1  3  2 -1</clus>
</clustering>
</event>
<event>
 6    0  0.1816568E+002  0.2412482E+03  0.7546771E-02  0.1118964E+00
          2   -1    0    0  505    0 -0.00000000000E+00  0.00000000000E+00  0.15824790063E+04  0.15824790063E+04  0.00000000000E+00 0. -1.
         21   -1    0    0  503  502  0.00000000000E+00 -0.00000000000E+00 -0.35815685475E+03  0.35815685475E+03  0.00000000000E+00 0. -1.
         21    1    1    2  503  501  0.25630193309E+03  0.64940351894E+02 -0.26030050226E+03  0.37103137561E+03  0.00000000000E+00 0. -1.
         21    1    1    2  504  502 -0.42755914047E+02 -0.63313442044E+01  0.33464685787E+02  0.54662960954E+02  0.00000000000E+00 0. -1.
         21    1    1    2  505  504  0.25903827853E+02 -0.34991903521E+02 -0.43831093284E+00  0.43538876030E+02  0.00000000000E+00 0. -1.
          2    1    1    2  501    0 -0.23944984690E+03 -0.23617104168E+02  0.14515962789E+04  0.14714026484E+04  0.00000000000E+00 0. -1.
<scales pt_clust_3="241.24821" pt_clust_4="43.22215" pt_clust_5="42.31799" pt_clust_6="14000.00000"></scales>
<clustering>
<clus scale="   43.222">  2  4  1 -1</clus>
<clus scale="   42.318">  2  5  1 -1</clus>
<clus scale="  241.248">  2  3  1 -1</clus>
<clus scale="   43.222">  2  3  1 -1</clus>
</clustering>
</event>
<event>
 6    0  0.1631680E+002  0.1639033E+03  0.7546771E-02  0.1184359E+00
         21   -1    0    0  504  502  0.00000000000E+00  0.00000000000E+00  0.56613958587E+03  0.56613958587E+03  0.00000000000E+00 0.  1.
          1   -1    0    0  505    0 -0.00000000000E+00 -0.00000000000E+00 -0.13905186834E+04  0.13905186834E+04  0.00000000000E+00 0.  1.
         21    1    1    2  503  502  0.11320563398E+03  0.60730557314E+02  0.63482419292E+02  0.14329596545E+03  0.00000000000E+00 0. -1.
         21    1    1    2  504  501 -0.25597264355E+03  0.14312034732E+02  0.41737115369E+03  0.48982191510E+03  0.00000000000E+00 0.  1.
         21    1    1    2  505  503 -0.10411958676E+02  0.30828596693E+02 -0.16093989730E+03  0.16419641227E+03  0.00000000000E+00 0. -1.
          1    1    1    2  501    0  0.15317896825E+03 -0.10587118874E+03 -0.11442927732E+04  0.11593439764E+04  0.00000000000E+00 0.  1.
<scales pt_clust_3="128.64647" pt_clust_4="163.90330" pt_clust_5="32.53938" pt_clust_6="14000.00000"></scales>
<clustering>
<clus scale="   32.539">  2  5  1 -1</clus>
<clus scale="  128.646">  1  3  2 -1</clus>
<clus scale="  163.903">  1  4  2 -1</clus>
<clus scale="  128.646">  1  3  2 -1</clus>
</clustering>
</event>
<event>
 6    0  0.1631680E+002  0.9784135E+02  0.7546771E-02  0.1284902E+00
          2   -1    0    0  505    0 -0.00000000000E+00  0.00000000000E+00  0.19268985117E+04  0.19268985117E+04  0.00000000000E+00 0. -1.
         21   -1    0    0  503  502  0.00000000000E+00 -0.00000000000E+00 -0.32811330954E+02  0.32811330954E+02  0.00000000000E+00 0.  1.
         21    1    1    2  503  501  0.28301420457E+02 -0.14032891176E+02 -0.74328494389E+01  0.32452113728E+02  0.00000000000E+00 0.  1.
         21    1    1    2  504  502  0.10110454658E+03 -0.34280086462E+02  0.61307290037E+03  0.62229867012E+03  0.00000000000E+00 0.  1.
         21    1    1    2  505  504 -0.23784697335E+02  0.70774687990E+02  0.85537597824E+03  0.85862846006E+03  0.00000000000E+00 0. -1.
          2    1    1    2  501    0 -0.10562126970E+03 -0.22461710352E+02  0.43307115162E+03  0.44633059878E+03  0.00000000000E+00 0. -1.
<scales pt_clust_3="31.58944" pt_clust_4="97.84135" pt_clust_5="71.89964" pt_clust_6="14000.00000"></scales>
<clustering>
<clus scale="   31.589">  2  3  1 -1</clus>
<clus scale="   71.900">  1  5  2 -1</clus>
<clus scale="   97.841">  1  4  2 -1</clus>
<clus scale="   31.589">  2  3  1 -1</clus>
</clustering>
</event>
<event>
 6    0  0.1631680E+002  0.1213020E+03  0.7546771E-02  0.1240964E+00
          2   -1    0    0  505    0 -0.00000000000E+00  0.00000000000E+00  0.20811913902E+04  0.20811913902E+04  0.00000000000E+00 0. -1.
         21   -1    0    0  501  502  0.00000000000E+00 -0.00000000000E+00 -0.38502995764E+02  0.38502995764E+02  0.00000000000E+00 0.  1.
         21    1    1    2  503  504  0.14912911493E+02  0.10910845489E+03  0.16418248628E+03  0.19769405317E+03  0.00000000000E+00 0.  1.
         21    1    1    2  504  502  0.31577006035E+02  0.13797266372E+02  0.20015098094E+01  0.34517791224E+02  0.00000000000E+00 0.  1.
         21    1    1    2  505  503  0.41048748293E+02 -0.50009526344E+02  0.30149308726E+03  0.30835699137E+03  0.00000000000E+00 0. -1.
          2    1    1    2  501    0 -0.87538665821E+02 -0.72896194914E+02  0.15750113111E+04  0.15791255502E+04  0.00000000000E+00 0. -1.
<scales pt_clust_3="121.30201" pt_clust_4="34.45971" pt_clust_5="66.34205" pt_clust_6="14000.00000"></scales>
<clustering>
<clus scale="   34.460">  2  4  1 -1</clus>
<clus scale="   66.342">  1  5  2 -1</clus>
<clus scale="  121.302">  2  3  1 -1</clus>
<clus scale="   34.460">  2  3  1 -1</clus>
</clustering>
</event>
<event>
 6    0  0.1631680E+002  0.8403232E+02  0.7546771E-02  0.1317983E+00
         21   -1    0    0  501  502  0.00000000000E+00  0.00000000000E+00  0.18643676435E+03  0.18643676435E+03  0.00000000000E+00 0. -1.
          2   -1    0    0  503    0 -0.00000000000E+00 -0.00000000000E+00 -0.39827038914E+04  0.39827038914E+04  0.00000000000E+00 0.  1.
         21    1    1    2  503  505  0.11290635871E+02  0.59884735348E+02 -0.25219993361E+04  0.25227354818E+04  0.00000000000E+00 0.  1.
         21    1    1    2  504  502 -0.14801743700E+02  0.29665513558E+02  0.17387482061E+03  0.17700730932E+03  0.00000000000E+00 0. -1.
         21    1    1    2  505  504 -0.70959388216E+02 -0.55209527799E+02 -0.20866162742E+03  0.22720695741E+03  0.00000000000E+00 0. -1.
          2    1    1    2  501    0  0.74470496046E+02 -0.34340721107E+02 -0.12394809842E+04  0.12421909072E+04  0.00000000000E+00 0.  1.
<scales pt_clust_3="61.82748" pt_clust_4="33.15319" pt_clust_5="84.03232" pt_clust_6="14000.00000"></scales>
<clustering>
<clus scale="   33.153">  1  4  2 -1</clus>
<clus scale="   61.827">  2  3  1 -1</clus>
<clus scale="   84.032">  1  5  2 -1</clus>
<clus scale="   33.153">  1  3  2 -1</clus>
</clustering>
</event>
<event>
 6    0  0.1631680E+002  0.1616880E+03  0.7546771E-02  0.1186804E+00
          2   -1    0    0  504    0 -0.00000000000E+00  0.00000000000E+00  0.60553088213E+03  0.60553088213E+03  0.00000000000E+00 0.  1.
         21   -1    0    0  505  502  0.00000000000E+00 -0.00000000000E+00 -0.41920862104E+03  0.41920862104E+03  0.00000000000E+00 0. -1.
         21    1    1    2  503  501 -0.49223520673E+02 -0.12202687681E+03 -0.59446994128E+02  0.14438649092E+03  0.00000000000E+00 0. -1.
         21    1    1    2  504  502 -0.29578172456E+02  0.55614363532E+01  0.40175327960E+02  0.50198155712E+02  0.00000000000E+00 0.  1.
         21    1    1    2  505  503  0.12296616971E+03  0.13762398488E+03 -0.28368300715E+03  0.33843328538E+03  0.00000000000E+00 0. -1.
          2    1    1    2  501    0 -0.44164476583E+02 -0.21158544426E+02  0.48927693441E+03  0.49172157115E+03  0.00000000000E+00 0.  1.
<scales pt_clust_3="161.68800" pt_clust_4="30.09648" pt_clust_5="14000.00000" pt_clust_6="71.92492"></scales>
<clustering>
<clus scale="   30.096">  1  4  2 -1</clus>
<clus scale="   71.925">  1  6  2 -1</clus>
<clus scale="  161.688">  1  3  2 -1</clus>
<clus scale="  161.688">  2  3  1 -1</clus>
</clustering>
</event>
<event>
 6    0  0.1631680E+002  0.9585194E+02  0.7546771E-02  0.1289269E+00
         21   -1    0    0  504  502  0.00000000000E+00  0.00000000000E+00  0.19407779012E+03  0.19407779012E+03  0.00000000000E+00 0. -1.
          2   -1    0    0  503    0 -0.00000000000E+00 -0.00000000000E+00 -0.90021160435E+03  0.90021160435E+03  0.00000000000E+00 0. -1.
         21    1    1    2  503  505  0.43820807131E+02  0.74782205332E+01 -0.78730372555E+02  0.90413817985E+02  0.00000000000E+00 0.  1.
         21    1    1    2  504  501 -0.11453746263E+03  0.41644223191E+02 -0.42561893114E+02  0.12909138785E+03  0.00000000000E+00 0. -1.
         21    1    1    2  505  502  0.46221674976E+02  0.25712945766E+02  0.13793640027E+03  0.14772964948E+03  0.00000000000E+00 0. -1.
          2    1    1    2  501    0  0.24494980521E+02 -0.74835389491E+02 -0.72277794883E+03  0.72705453915E+03  0.00000000000E+00 0. -1.
<scales pt_clust_3="44.45432" pt_clust_4="95.85194" pt_clust_5="53.14413" pt_clust_6="14000.00000"></scales>
<clustering>
<clus scale="   44.454">  2  3  1 -1</clus>
<clus scale="   53.144">  1  5  2 -1</clus>
<clus scale="   95.852">  1  4  2 -1</clus>
<clus scale="   53.144">  1  3  2 -1</clus>
</clustering>
</event>
<event>
 6    0  0.1631680E+002  0.9780107E+02  0.7546771E-02  0.1284989E+00
          2   -1    0    0  504    0 -0.00000000000E+00  0.00000000000E+00  0.33961870177E+03  0.33961870177E+03  0.00000000000E+00 0. -1.
         21   -1    0    0  503  502  0.00000000000E+00 -0.00000000000E+00 -0.21048701321E+03  0.21048701321E+03  0.00000000000E+00 0. -1.
         21    1    1    2  503  505 -0.31926311754E+02  0.24754615144E+02 -0.21544907697E+02  0.45784969159E+02  0.00000000000E+00 0. -1.
         21    1    1    2  504  502  0.83820543658E+02 -0.52999335532E+02 -0.12981054937E+03  0.16335725216E+03  0.00000000000E+00 0. -1.
         21    1    1    2  505  501 -0.11052647869E+01 -0.55935600247E+02  0.15096525734E+02  0.57947545888E+02  0.00000000000E+00 0. -1.
          2    1    1    2  501    0 -0.50788967117E+02  0.84180320635E+02  0.26539061989E+03  0.28301594777E+03  0.00000000000E+00 0. -1.
<scales pt_clust_3="40.39901" pt_clust_4="97.80107" pt_clust_5="53.16924" pt_clust_6="14000.00000"></scales>
<clustering>
<clus scale="   40.399">  2  3  1 -1</clus>
<clus scale="   53.169">  2  5  1 -1</clus>
<clus scale="   97.801">  2  4  1 -1</clus>
<clus scale="   40.399">  2  3  1 -1</clus>
</clustering>
</event>
<event>
 6    0  0.1631680E+002  0.7299821E+02  0.7546771E-02  0.1350184E+00
         21   -1    0    0  503  502  0.00000000000E+00  0.00000000000E+00  0.97089954208E+02  0.97089954208E+02  0.00000000000E+00 0. -1.
          2   -1    0    0  505    0 -0.00000000000E+00 -0.00000000000E+00 -0.10993013358E+04  0.10993013358E+04  0.00000000000E+00 0. -1.
         21    1    1    2  503  501 -0.25296386596E+01 -0.80736763981E+02  0.60726302453E+02  0.10105695394E+03  0.00000000000E+00 0. -1.
         21    1    1    2  504  502 -0.15885394409E+02  0.48469182281E+02 -0.53070163236E+02  0.73607401886E+02  0.00000000000E+00 0. -1.
         21    1    1    2  505  504 -0.47834010822E+02 -0.22397378124E+02 -0.18477076570E+03  0.19217172267E+03  0.00000000000E+00 0. -1.
          2    1    1    2  501    0  0.66249043890E+02  0.54664959824E+02 -0.82509675507E+03  0.82955521147E+03  0.00000000000E+00 0. -1.
<scales pt_clust_3="39.57424" pt_clust_4="51.00595" pt_clust_5="72.99821" pt_clust_6="14000.00000"></scales>
<clustering>
<clus scale="   51.006">  1  4  2 -1</clus>
<clus scale="   39.574">  1  3  2 -1</clus>
<clus scale="   72.998">  1  5  2 -1</clus>
<clus scale="   51.006">  1  3  2 -1</clus>
</clustering>
</event>
<event>
 6    0  0.1631680E+002  0.8743243E+02  0.7546771E-02  0.1309191E+00
         21   -1    0    0  503  502  0.00000000000E+00  0.00000000000E+00  0.27125978854E+03  0.27125978854E+03  0.00000000000E+00 0. -1.
          3   -1    0    0  505    0 -0.00000000000E+00 -0.00000000000E+00 -0.41819175426E+03  0.41819175426E+03  0.00000000000E+00 0.  1.
         21    1    1    2  503  501  0.28643182078E+02  0.22553678115E+02 -0.92592335384E+01  0.37614274973E+02  0.00000000000E+00 0. -1.
         21    1    1    2  504  502  0.32674049480E+02  0.76147507202E+01  0.22970619345E+03  0.23214330326E+03  0.00000000000E+00 0. -1.
         21    1    1    2  505  504  0.13401707911E+02 -0.87959352290E+02 -0.89509418194E+02  0.12620772312E+03  0.00000000000E+00 0. -1.
          3    1    1    2  501    0 -0.74718939469E+02  0.57790923455E+02 -0.27786950744E+03  0.29348624144E+03  0.00000000000E+00 0.  1.
<scales pt_clust_3="47.40056" pt_clust_4="33.54963" pt_clust_5="87.43243" pt_clust_6="14000.00000"></scales>
<clustering>
<clus scale="   33.550">  1  4  2 -1</clus>
<clus scale="   47.401">  1  3  2 -1</clus>
<clus scale="   87.432">  1  5  2 -1</clus>
<clus scale="   33.550">  1  3  2 -1</clus>
</clustering>
</event>
<event>
 6    0  0.1631680E+002  0.1021841E+03  0.7546771E-02  0.1275769E+00
          1   -1    0    0  505    0 -0.00000000000E+00  0.00000000000E+00  0.44656621652E+03  0.44656621652E+03  0.00000000000E+00 0. -1.
         21   -1    0    0  501  502  0.00000000000E+00 -0.00000000000E+00 -0.11491449027E+04  0.11491449027E+04  0.00000000000E+00 0.  1.
         21    1    1    2  503  502  0.22043252784E+02  0.40397846686E+02 -0.51464633541E+03  0.51669985636E+03  0.00000000000E+00 0.  1.
         21    1    1    2  504  503  0.60429653142E+02 -0.99444355712E+02 -0.59900895578E+03  0.61020705663E+03  0.00000000000E+00 0.  1.
         21    1    1    2  505  504  0.36770297805E+01 -0.49312612645E+02  0.18944252079E+02  0.52954121659E+02  0.00000000000E+00 0. -1.
          1    1    1    2  501    0 -0.86149935707E+02  0.10835912167E+03  0.39213235290E+03  0.41585008460E+03  0.00000000000E+00 0. -1.
<scales pt_clust_3="46.02055" pt_clust_4="102.18411" pt_clust_5="48.41672" pt_clust_6="14000.00000"></scales>
<clustering>
<clus scale="   46.021">  2  3  1 -1</clus>
<clus scale="   48.417">  1  5  2 -1</clus>
<clus scale="  102.184">  2  4  1 -1</clus>
<clus scale="   46.021">  2  3  1 -1</clus>
</clustering>
</event>
<event>
 6    0  0.1631680E+002  0.8628554E+02  0.7546771E-02  0.1312105E+00
         21   -1    0    0  504  502  0.00000000000E+00  0.00000000000E+00  0.81954249387E+02  0.81954249387E+02  0.00000000000E+00 0.  1.
          1   -1    0    0  503    0 -0.00000000000E+00 -0.00000000000E+00 -0.44822674100E+03  0.44822674100E+03  0.00000000000E+00 0. -1.
         21    1    1    2  503  502 -0.32949508681E+02  0.14918138802E+02 -0.12900615394E+03  0.13398062823E+03  0.00000000000E+00 0.  1.
         21    1    1    2  504  505  0.66086238106E+02  0.44308549805E+00  0.20120542329E+02  0.69082728777E+02  0.00000000000E+00 0.  1.
         21    1    1    2  505  501  0.12694085865E+02  0.65225532154E+02 -0.15726674827E+02  0.68284977571E+02  0.00000000000E+00 0.  1.
          1    1    1    2  501    0 -0.45830815289E+02 -0.80586756455E+02 -0.24166020517E+03  0.25883265580E+03  0.00000000000E+00 0. -1.
<scales pt_clust_3="36.16934" pt_clust_4="63.55954" pt_clust_5="86.28554" pt_clust_6="14000.00000"></scales>
<clustering>
<clus scale="   36.169">  2  3  1 -1</clus>
<clus scale="   63.560">  1  4  2 -1</clus>
<clus scale="   86.286">  1  5  2 -1</clus>
<clus scale="   63.560">  1  3  2 -1</clus>
</clustering>
</event>
<event>
 6    0  0.1631680E+002  0.6927687E+02  0.7546771E-02  0.1362569E+00
         -2   -1    0    0    0  501 -0.00000000000E+00  0.00000000000E+00  0.23970793152E+03  0.23970793152E+03  0.00000000000E+00 0. -1.
         21   -1    0    0  504  502  0.00000000000E+00 -0.00000000000E+00 -0.30534349864E+03  0.30534349864E+03  0.00000000000E+00 0.  1.
         21    1    1    2  503  501  0.19815295196E+02 -0.25381331082E+02  0.14000252816E+02  0.35112176949E+02  0.00000000000E+00 0. -1.
         21    1    1    2  504  505 -0.23754759057E+02  0.23554547960E+02 -0.53565721715E+02  0.63153716045E+02  0.00000000000E+00 0.  1.
         21    1    1    2  505  503  0.35690934753E+02 -0.87917716700E+02 -0.21512194990E+03  0.23511873822E+03  0.00000000000E+00 0.  1.
         -2    1    1    2    0  502 -0.31751470893E+02  0.89744499822E+02  0.18905185168E+03  0.21166679894E+03  0.00000000000E+00 0. -1.
<scales pt_clust_3="32.20028" pt_clust_4="32.74143" pt_clust_5="14000.00000" pt_clust_6="69.27687"></scales>
<clustering>
<clus scale="   32.200">  1  3  2 -1</clus>
<clus scale="   32.741">  2  4  1 -1</clus>
<clus scale="   69.277">  1  6  2 -1</clus>
<clus scale="   32.741">  2  3  1 -1</clus>
</clustering>
</event>
<event>
 6    0  0.1631680E+002  0.8392331E+02  0.7546771E-02  0.1318272E+00
          2   -1    0    0  505    0 -0.00000000000E+00  0.00000000000E+00  0.21091199908E+04  0.21091199908E+04  0.00000000000E+00 0.  1.
         21   -1    0    0  503  502  0.00000000000E+00 -0.00000000000E+00 -0.92450353739E+02  0.92450353739E+02  0.00000000000E+00 0.  1.
         21    1    1    2  503  504  0.22084374251E+02  0.43597977271E+02 -0.17476764370E+02  0.51903183920E+02  0.00000000000E+00 0.  1.
         21    1    1    2  504  501  0.62661784541E+02 -0.50763043359E+02 -0.20563862439E+02  0.83224144641E+02  0.00000000000E+00 0.  1.
         21    1    1    2  505  502  0.24628794017E+02  0.39247823510E+02  0.12405343145E+03  0.13242440485E+03  0.00000000000E+00 0.  1.
          2    1    1    2  501    0 -0.10937495281E+03 -0.32082757422E+02  0.19306568325E+04  0.19340186112E+04  0.00000000000E+00 0.  1.
<scales pt_clust_3="49.27328" pt_clust_4="83.92331" pt_clust_5="46.33540" pt_clust_6="14000.00000"></scales>
<clustering>
<clus scale="   46.335">  1  5  2 -1</clus>
<clus scale="   49.273">  2  3  1 -1</clus>
<clus scale="   83.923">  2  4  1 -1</clus>
<clus scale="   49.273">  2  3  1 -1</clus>
</clustering>
</event>
<event>
 6    0  0.1631680E+002  0.1424879E+03  0.7546771E-02  0.1210020E+00
          2   -1    0    0  504    0 -0.00000000000E+00  0.00000000000E+00  0.59571982286E+03  0.59571982286E+03  0.00000000000E+00 0.  1.
         21   -1    0    0  505  502  0.00000000000E+00 -0.00000000000E+00 -0.15762544846E+04  0.15762544846E+04  0.00000000000E+00 0. -1.
         21    1    1    2  503  501 -0.65440338890E+01  0.13764653373E+03 -0.31852981508E+03  0.34705998865E+03  0.00000000000E+00 0. -1.
         21    1    1    2  504  502 -0.51339350287E+02  0.99566143832E+01 -0.86371741209E+01  0.53004375618E+02  0.00000000000E+00 0.  1.
         21    1    1    2  505  503 -0.10967025943E+03 -0.47796608287E+02 -0.11925522467E+04  0.11985378354E+04  0.00000000000E+00 0. -1.
          2    1    1    2  501    0  0.16755364361E+03 -0.99806539823E+02  0.53918457425E+03  0.57337210779E+03  0.00000000000E+00 0.  1.
<scales pt_clust_3="14000.00000" pt_clust_4="52.29592" pt_clust_5="119.85804" pt_clust_6="142.48789"></scales>
<clustering>
<clus scale="   52.296">  1  4  2 -1</clus>
<clus scale="  119.858">  2  5  1 -1</clus>
<clus scale="  142.488">  1  6  2 -1</clus>
<clus scale="  119.858">  2  3  1 -1</clus>
</clustering>
</event>
<event>
 6    0  0.1631680E+002  0.9760574E+02  0.7546771E-02  0.1285413E+00
          2   -1    0    0  505    0 -0.00000000000E+00  0.00000000000E+00  0.22998477025E+04  0.22998477025E+04  0.00000000000E+00 0.  1.
         21   -1    0    0  503  502  0.00000000000E+00 -0.00000000000E+00 -0.60025414707E+03  0.60025414707E+03  0.00000000000E+00 0.  1.
         21    1    1    2  503  501  0.37489693035E+02  0.61068105626E+02 -0.56207170856E+03  0.56662103401E+03  0.00000000000E+00 0.  1.
         21    1    1    2  504  502 -0.87876130738E+01  0.32138001659E+02 -0.23047083704E+02  0.40512237181E+02  0.00000000000E+00 0.  1.
         21    1    1    2  505  504 -0.24089873911E+02  0.47031003564E+02  0.51561046194E+03  0.51831108977E+03  0.00000000000E+00 0.  1.
          2    1    1    2  501    0 -0.46122060504E+01 -0.14023711085E+03  0.17691018857E+04  0.17746574886E+04  0.00000000000E+00 0.  1.
<scales pt_clust_3="14000.00000" pt_clust_4="33.31776" pt_clust_5="52.91909" pt_clust_6="97.60574"></scales>
<clustering>
<clus scale="   33.318">  2  4  1 -1</clus>
<clus scale="   52.919">  1  5  2 -1</clus>
<clus scale="   97.606">  1  6  2 -1</clus>
<clus scale="   33.318">  2  3  1 -1</clus>
</clustering>
</event>
<event>
 6    0  0.1631680E+002  0.7004367E+02  0.7546771E-02  0.1359945E+00
         21   -1    0    0  504  502  0.00000000000E+00  0.00000000000E+00  0.12507114835E+04  0.12507114835E+04  0.00000000000E+00 0. -1.
          1   -1    0    0  505    0 -0.00000000000E+00 -0.00000000000E+00 -0.94430868234E+03  0.94430868234E+03  0.00000000000E+00 0. -1.
         21    1    1    2  503  502 -0.76260942001E+02  0.53323405879E+01  0.93491450928E+03  0.93803481001E+03  0.00000000000E+00 0. -1.
         21    1    1    2  504  501  0.67144431449E+02  0.37672653242E+02 -0.19731159334E+03  0.21180053906E+03  0.00000000000E+00 0. -1.
         21    1    1    2  505  503  0.49919950817E+02 -0.41525648320E+02  0.30298513936E+03  0.30986509264E+03  0.00000000000E+00 0. -1.
          1    1    1    2  501    0 -0.40803440265E+02 -0.14793455098E+01 -0.73418525418E+03  0.73531972410E+03  0.00000000000E+00 0. -1.
<scales pt_clust_3="70.04367" pt_clust_4="45.37178" pt_clust_5="14000.00000" pt_clust_6="40.83025"></scales>
<clustering>
<clus scale="   40.830">  2  6  1 -1</clus>
<clus scale="   45.372">  2  4  1 -1</clus>
<clus scale="   70.044">  1  3  2 -1</clus>
<clus scale="   70.044">  1  3  2 -1</clus>
</clustering>
</event>
<event>
 6    0  0.1631680E+002  0.5894215E+02  0.7546771E-02  0.1402325E+00
         21   -1    0    0  504  502  0.00000000000E+00  0.00000000000E+00  0.70767488699E+03  0.70767488699E+03  0.00000000000E+00 0.  1.
          1   -1    0    0  503    0 -0.00000000000E+00 -0.00000000000E+00 -0.17301908156E+04  0.17301908156E+04  0.00000000000E+00 0. -1.
         21    1    1    2  503  505 -0.21784716896E+02 -0.30420602867E+02 -0.25182787846E+03  0.25459235522E+03  0.00000000000E+00 0.  1.
         21    1    1    2  504  501 -0.82606832686E+02 -0.40681139062E+02  0.12889455580E+02  0.92978395055E+02  0.00000000000E+00 0.  1.
         21    1    1    2  505  502  0.58039725567E+02  0.27744852904E+01  0.65087734952E+03  0.65346586110E+03  0.00000000000E+00 0.  1.
          1    1    1    2  501    0  0.46351824015E+02  0.68327256638E+02 -0.14344548552E+04  0.14368290912E+04  0.00000000000E+00 0. -1.
<scales pt_clust_3="37.41640" pt_clust_4="14000.00000" pt_clust_5="58.94215" pt_clust_6="46.21755"></scales>
<clustering>
<clus scale="   37.416">  2  3  1 -1</clus>
<clus scale="   46.218">  2  6  1 -1</clus>
<clus scale="   58.942">  1  5  2 -1</clus>
<clus scale="   58.942">  1  3  2 -1</clus>
</clustering>
</event>
<event>
 6    0  0.1631680E+002  0.1472076E+03  0.7546771E-02  0.1203947E+00
         21   -1    0    0  501  502  0.00000000000E+00  0.00000000000E+00  0.87675750221E+02  0.87675750221E+02  0.00000000000E+00 0.  1.
          1   -1    0    0  504    0 -0.00000000000E+00 -0.00000000000E+00 -0.12001092184E+04  0.12001092184E+04  0.00000000000E+00 0. -1.
         21    1    1    2  503  502  0.25053085990E+02 -0.14961238796E+03 -0.11833467523E+02  0.15215634953E+03  0.00000000000E+00 0.  1.
         21    1    1    2  504  505  0.32842942241E+02  0.41615506233E+02 -0.15557717274E+03  0.16436169228E+03  0.00000000000E+00 0.  1.
         21    1    1    2  505  503 -0.73802520680E+02  0.17072008674E+01 -0.13258579838E+03  0.15175216811E+03  0.00000000000E+00 0. -1.
          1    1    1    2  501    0  0.15906492450E+02  0.10628968086E+03 -0.81243702953E+03  0.81951475869E+03  0.00000000000E+00 0. -1.
<scales pt_clust_3="147.20758" pt_clust_4="53.01424" pt_clust_5="69.70686" pt_clust_6="14000.00000"></scales>
<clustering>
<clus scale="   53.014">  2  4  1 -1</clus>
<clus scale="   69.707">  2  5  1 -1</clus>
<clus scale="  147.208">  1  3  2 -1</clus>
<clus scale="  147.208">  1  3  2 -1</clus>
</clustering>
</event>
<event>
 6    0  0.1631680E+002  0.1665903E+03  0.7546771E-02  0.1181451E+00
         21   -1    0    0  501  502  0.00000000000E+00  0.00000000000E+00  0.25970727510E+03  0.25970727510E+03  0.00000000000E+00 0.  1.
          1   -1    0    0  504    0 -0.00000000000E+00 -0.00000000000E+00 -0.57568897693E+03  0.57568897693E+03  0.00000000000E+00 0.  1.
         21    1    1    2  503  502 -0.68518595766E+02 -0.10680744051E+03  0.57948907035E+02  0.13950162415E+03  0.00000000000E+00 0.  1.
         21    1    1    2  504  505 -0.48964387994E+02 -0.70970412610E+02 -0.68968578545E+02  0.11041275100E+03  0.00000000000E+00 0.  1.
         21    1    1    2  505  503 -0.28051208521E+02 -0.82747531772E+02 -0.27147662993E+03  0.28519043622E+03  0.00000000000E+00 0.  1.
          1    1    1    2  501    0  0.14553419228E+03  0.26052538489E+03 -0.33485400397E+02  0.30029144066E+03  0.00000000000E+00 0.  1.
<scales pt_clust_3="134.12654" pt_clust_4="86.22245" pt_clust_5="14000.00000" pt_clust_6="166.59034"></scales>
<clustering>
<clus scale="   86.222">  2  4  1 -1</clus>
<clus scale="  134.127">  1  3  2 -1</clus>
<clus scale="  166.590">  1  6  2 -1</clus>
<clus scale="  134.127">  1  3  2 -1</clus>
</clustering>
</event>
<event>
 6    0  0.1631680E+002  0.3292977E+03  0.7546771E-02  0.1071448E+00
         21   -1    0    0  505  502  0.00000000000E+00  0.00000000000E+00  0.22851052093E+03  0.22851052093E+03  0.00000000000E+00 0. -1.
          2   -1    0    0  503    0 -0.00000000000E+00 -0.00000000000E+00 -0.19767852972E+04  0.19767852972E+04  0.00000000000E+00 0. -1.
         21    1    1    2  503  502 -0.20707113656E+02  0.24453809546E+02 -0.97736278972E+03  0.97788792613E+03  0.00000000000E+00 0. -1.
         21    1    1    2  504  501  0.19207892612E+03  0.18978485617E+03  0.44538252436E+02  0.27367181335E+03  0.00000000000E+00 0. -1.
         21    1    1    2  505  504  0.58672898220E+02 -0.41989269784E+01  0.19976384576E+02  0.62122426820E+02  0.00000000000E+00 0.  1.
          2    1    1    2  501    0 -0.23004471069E+03 -0.21003973873E+03 -0.83542662354E+03  0.89161365180E+03  0.00000000000E+00 0. -1.
<scales pt_clust_3="32.04330" pt_clust_4="49.33781" pt_clust_5="49.33781" pt_clust_6="311.70491"></scales>
<clustering>
<clus scale="   32.043">  2  3  1 -1</clus>
<clus scale="   49.338">  4  5 -1 -1</clus>
<clus scale="  311.705">  2  6  1 -1</clus>
<clus scale="  329.298">  1  3  2 -1</clus>
</clustering>
</event>
<event>
 6    0  0.1631680E+002  0.2541395E+03  0.7546771E-02  0.1110716E+00
          2   -1    0    0  504    0 -0.00000000000E+00  0.00000000000E+00  0.66517502991E+03  0.66517502991E+03  0.00000000000E+00 0.  1.
         21   -1    0    0  505  502  0.00000000000E+00 -0.00000000000E+00 -0.41865731766E+03  0.41865731766E+03  0.00000000000E+00 0.  1.
         21    1    1    2  503  502 -0.17419224431E+03  0.27595653467E+03  0.31393730482E+02  0.32784220796E+03  0.00000000000E+00 0.  1.
         21    1    1    2  504  503 -0.75415757507E+00  0.75778354890E+02  0.24986412351E+03  0.26110344318E+03  0.00000000000E+00 0.  1.
         21    1    1    2  505  501  0.36729561823E+02 -0.14564184272E+03 -0.15783671417E+03  0.21788307736E+03  0.00000000000E+00 0.  1.
          2    1    1    2  501    0  0.13821684006E+03 -0.20609304684E+03  0.12309657243E+03  0.27700361907E+03  0.00000000000E+00 0.  1.
<scales pt_clust_3="254.13951" pt_clust_4="75.78211" pt_clust_5="144.80962" pt_clust_6="14000.00000"></scales>
<clustering>
<clus scale="   75.782">  1  4  2 -1</clus>
<clus scale="  144.810">  2  5  1 -1</clus>
<clus scale="  254.140">  2  3  1 -1</clus>
<clus scale="  144.810">  2  3  1 -1</clus>
</clustering>
</event>
<event>
 6    0  0.1631680E+002  0.3064119E+03  0.7546771E-02  0.1082079E+00
         21   -1    0    0  504  502  0.00000000000E+00  0.00000000000E+00  0.25371293270E+03  0.25371293270E+03  0.00000000000E+00 0. -1.
          2   -1    0    0  503    0 -0.00000000000E+00 -0.00000000000E+00 -0.20762675278E+04  0.20762675278E+04  0.00000000000E+00 0. -1.
         21    1    1    2  503  505  0.14177791792E+03 -0.22392778004E+03  0.68430620808E+02  0.27372865862E+03  0.00000000000E+00 0. -1.
         21    1    1    2  504  501  0.20678169203E+01  0.59667086731E+02 -0.56003622862E+03  0.56320956532E+03  0.00000000000E+00 0. -1.
         21    1    1    2  505  502  0.39063036432E+02  0.53166859332E+01  0.65106770516E+02  0.76112282397E+02  0.00000000000E+00 0. -1.
          2    1    1    2  501    0 -0.18290877128E+03  0.15894400738E+03 -0.13960557578E+04  0.14169299542E+04  0.00000000000E+00 0. -1.
<scales pt_clust_3="282.35766" pt_clust_4="59.28051" pt_clust_5="39.42319" pt_clust_6="59.28051"></scales>
<clustering>
<clus scale="   39.423">  1  5  2 -1</clus>
<clus scale="   59.281">  4  6 -1 -1</clus>
<clus scale="  282.358">  1  3  2 -1</clus>
<clus scale="   39.423">  1  3  2 -1</clus>
</clustering>
</event>
<event>
 6    0  0.1631680E+002  0.1507462E+03  0.7546771E-02  0.1199559E+00
         -4   -1    0    0    0  501 -0.00000000000E+00  0.00000000000E+00  0.14211920878E+04  0.14211920878E+04  0.00000000000E+00 0. -1.
         21   -1    0    0  505  502  0.00000000000E+00 -0.00000000000E+00 -0.36037078389E+02  0.36037078389E+02  0.00000000000E+00 0.  1.
         21    1    1    2  503  501  0.67677655994E+02  0.32596810578E+02  0.46460023380E+03  0.47063382202E+03  0.00000000000E+00 0.  1.
         21    1    1    2  504  503  0.47106561723E+02  0.47856038700E+02  0.19619328731E+03  0.20736690812E+03  0.00000000000E+00 0.  1.
         21    1    1    2  505  504 -0.31718698231E+02  0.34243504252E+02  0.60228206734E+01  0.47063444092E+02  0.00000000000E+00 0.  1.
         -4    1    1    2    0  502 -0.83065519487E+02 -0.11469635353E+03  0.71833866760E+03  0.73216499193E+03  0.00000000000E+00 0. -1.
<scales pt_clust_3="57.00477" pt_clust_4="57.00477" pt_clust_5="46.67648" pt_clust_6="139.05240"></scales>
<clustering>
<clus scale="   46.676">  2  5  1 -1</clus>
<clus scale="   57.005">  3  4 -1 -1</clus>
<clus scale="  139.052">  1  6  2 -1</clus>
<clus scale="   46.676">  2  3  1 -1</clus>
</clustering>
</event>
<event>
 6    0  0.1631680E+002  0.1057432E+03  0.7546771E-02  0.1268662E+00
          2   -1    0    0  503    0 -0.00000000000E+00  0.00000000000E+00  0.18879348277E+04  0.18879348277E+04  0.00000000000E+00 0.  1.
         21   -1    0    0  501  502  0.00000000000E+00 -0.00000000000E+00 -0.17754585787E+02  0.17754585787E+02  0.00000000000E+00 0.  1.
         21    1    1    2  503  504 -0.44017196100E+02 -0.13786791800E+02  0.83679077050E+03  0.83806108535E+03  0.00000000000E+00 0.  1.
         21    1    1    2  504  505  0.33982861299E+02  0.95929433944E+02  0.36487227772E+03  0.37879951189E+03  0.00000000000E+00 0.  1.
         21    1    1    2  505  502  0.21264495506E+02  0.21669171830E+02  0.33202147915E+02  0.44990158958E+02  0.00000000000E+00 0.  1.
          2    1    1    2  501    0 -0.11230160705E+02 -0.10381181397E+03  0.63531504577E+03  0.64383865729E+03  0.00000000000E+00 0.  1.
<scales pt_clust_3="44.69883" pt_clust_4="105.74316" pt_clust_5="30.36004" pt_clust_6="14000.00000"></scales>
<clustering>
<clus scale="   30.360">  2  5  1 -1</clus>
<clus scale="   44.699">  1  3  2 -1</clus>
<clus scale="  105.743">  2  4  1 -1</clus>
<clus scale="   30.360">  2  3  1 -1</clus>
</clustering>
</event>
<event>
 6    0  0.1631680E+002  0.1195293E+03  0.7546771E-02  0.1243876E+00
         21   -1    0    0  505  502  0.00000000000E+00  0.00000000000E+00  0.12752756276E+03  0.12752756276E+03  0.00000000000E+00 0.  1.
         -3   -1    0    0    0  501 -0.00000000000E+00 -0.00000000000E+00 -0.17751399560E+03  0.17751399560E+03  0.00000000000E+00 0.  1.
         21    1    1    2  503  504 -0.52863218670E+02  0.19995188580E+02  0.17946674701E+02  0.59299330412E+02  0.00000000000E+00 0.  1.
         21    1    1    2  504  501 -0.30048973906E+02  0.10029145461E+01 -0.41257423312E+02  0.51050187548E+02  0.00000000000E+00 0.  1.
         21    1    1    2  505  503 -0.50036854921E+02 -0.20396699997E+02  0.13703552178E+02  0.55744951013E+02  0.00000000000E+00 0.  1.
         -3    1    1    2    0  502  0.13294904750E+03 -0.60140312881E+00 -0.40379236404E+02  0.13894708939E+03  0.00000000000E+00 0.  1.
<scales pt_clust_3="39.69782" pt_clust_4="30.06571" pt_clust_5="39.69782" pt_clust_6="112.43840"></scales>
<clustering>
<clus scale="   30.066">  2  4  1 -1</clus>
<clus scale="   39.698">  3  5 -1 -1</clus>
<clus scale="  112.438">  2  6  1 -1</clus>
<clus scale="  119.529">  1  3  2 -1</clus>
</clustering>
</event>
<event>
 6    0  0.1631680E+002  0.6714914E+02  0.7546771E-02  0.1370065E+00
          1   -1    0    0  505    0 -0.00000000000E+00  0.00000000000E+00  0.13804410495E+04  0.13804410495E+04  0.00000000000E+00 0. -1.
         21   -1    0    0  504  502  0.00000000000E+00 -0.00000000000E+00 -0.15085061743E+03  0.15085061743E+03  0.00000000000E+00 0.  1.
         21    1    1    2  503  502  0.17945234861E+01 -0.35104110457E+02 -0.13678562408E+02  0.37717661050E+02  0.00000000000E+00 0. -1.
         21    1    1    2  504  501  0.92084467357E+01  0.97626523497E+02 -0.97636161122E+02  0.13837829866E+03  0.00000000000E+00 0.  1.
         21    1    1    2  505  503  0.45110513068E+02  0.47507613017E+02  0.65412854566E+03  0.65740100846E+03  0.00000000000E+00 0.  1.
          1    1    1    2  501    0 -0.56113483290E+02 -0.11003002606E+03  0.68677660996E+03  0.69779469877E+03  0.00000000000E+00 0. -1.
<scales pt_clust_3="35.14995" pt_clust_4="14000.00000" pt_clust_5="65.19703" pt_clust_6="67.14914"></scales>
<clustering>
<clus scale="   35.150">  2  3  1 -1</clus>
<clus scale="   65.197">  1  5  2 -1</clus>
<clus scale="   67.149">  1  6  2 -1</clus>
<clus scale="   35.150">  2  3  1 -1</clus>
</clustering>
</event>
<event>
 6    0  0.1631680E+002  0.2095815E+03  0.7546771E-02  0.1141898E+00
         21   -1    0    0  504  502  0.00000000000E+00  0.00000000000E+00  0.43264929797E+03  0.43264929797E+03  0.00000000000E+00 0.  1.
          3   -1    0    0  503    0 -0.00000000000E+00 -0.00000000000E+00 -0.43691243902E+03  0.43691243902E+03  0.00000000000E+00 0. -1.
         21    1    1    2  503  502 -0.12505781938E+03  0.35303931401E+02 -0.72029887226E+02  0.14857365316E+03  0.00000000000E+00 0. -1.
         21    1    1    2  504  505  0.65136434431E+02 -0.30228559266E+02  0.16605346105E+03  0.18091509836E+03  0.00000000000E+00 0.  1.
         21    1    1    2  505  501  0.14866667711E+03  0.19163623788E+02  0.18737972732E+03  0.23995872056E+03  0.00000000000E+00 0.  1.
          3    1    1    2  501    0 -0.88745292162E+02 -0.24238995923E+02 -0.28566644220E+03  0.30011426491E+03  0.00000000000E+00 0. -1.
<scales pt_clust_3="193.74945" pt_clust_4="55.30855" pt_clust_5="55.30855" pt_clust_6="91.99596"></scales>
<clustering>
<clus scale="   55.309">  4  5 -1 -1</clus>
<clus scale="   91.996">  2  6  1 -1</clus>
<clus scale="  193.749">  2  3  1 -1</clus>
<clus scale="  209.581">  1  3  2 -1</clus>
</clustering>
</event>
<event>
 6    0  0.1631680E+002  0.1142758E+03  0.7546771E-02  0.1252851E+00
          2   -1    0    0  505    0 -0.00000000000E+00  0.00000000000E+00  0.16693574741E+04  0.16693574741E+04  0.00000000000E+00 0. -1.
         21   -1    0    0  504  502  0.00000000000E+00 -0.00000000000E+00 -0.22811459612E+03  0.22811459612E+03  0.00000000000E+00 0. -1.
         21    1    1    2  503  502  0.79386227783E+02  0.16076435384E+03  0.19490200922E+03  0.26482851777E+03  0.00000000000E+00 0. -1.
         21    1    1    2  504  501 -0.14987247348E+02 -0.70047402452E+02 -0.18292376517E+03  0.19644938289E+03  0.00000000000E+00 0. -1.
         21    1    1    2  505  503 -0.27518916778E+02 -0.17324238003E+02  0.11916275355E+03  0.12351996533E+03  0.00000000000E+00 0. -1.
          2    1    1    2  501    0 -0.36880063657E+02 -0.73392713383E+02  0.13101018803E+04  0.13126742042E+04  0.00000000000E+00 0. -1.
<scales pt_clust_3="14000.00000" pt_clust_4="71.73202" pt_clust_5="32.51800" pt_clust_6="114.27579"></scales>
<clustering>
<clus scale="   32.518">  1  5  2 -1</clus>
<clus scale="   71.732">  2  4  1 -1</clus>
<clus scale="  114.276">  1  6  2 -1</clus>
<clus scale="   71.732">  2  3  1 -1</clus>
</clustering>
</event>
<event>
 6    0  0.1631680E+002  0.1452945E+03  0.7546771E-02  0.1206377E+00
         21   -1    0    0  505  502  0.00000000000E+00  0.00000000000E+00  0.29443846238E+03  0.29443846238E+03  0.00000000000E+00 0. -1.
         -1   -1    0    0    0  501 -0.00000000000E+00 -0.00000000000E+00 -0.78607140577E+03  0.78607140577E+03  0.00000000000E+00 0.  1.
         21    1    1    2  503  502 -0.58137782565E+02 -0.35595434284E+02  0.38042739644E+01  0.68275245908E+02  0.00000000000E+00 0. -1.
         21    1    1    2  504  501 -0.88685558025E+02  0.70909721728E+02 -0.10727539150E+03  0.15620923935E+03  0.00000000000E+00 0. -1.
         21    1    1    2  505  504  0.27695222162E+01  0.33308285966E+02  0.22243083329E+03  0.22492796128E+03  0.00000000000E+00 0. -1.
         -1    1    1    2    0  503  0.14405381837E+03 -0.68622573410E+02 -0.61059265914E+03  0.63109742161E+03  0.00000000000E+00 0.  1.
<scales pt_clust_3="59.70820" pt_clust_4="145.29453" pt_clust_5="33.42323" pt_clust_6="14000.00000"></scales>
<clustering>
<clus scale="   33.423">  1  5  2 -1</clus>
<clus scale="   59.708">  1  3  2 -1</clus>
<clus scale="  145.295">  1  4  2 -1</clus>
<clus scale="   33.423">  1  3  2 -1</clus>
</clustering>
</event>
<event>
 6    0  0.1631680E+002  0.2875312E+03  0.7546771E-02  0.1091645E+00
          2   -1    0    0  504    0 -0.00000000000E+00  0.00000000000E+00  0.98629049045E+03  0.98629049045E+03  0.00000000000E+00 0. -1.
         21   -1    0    0  505  502  0.00000000000E+00 -0.00000000000E+00 -0.26011346558E+03  0.26011346558E+03  0.00000000000E+00 0.  1.
         21    1    1    2  503  501 -0.50614627244E+02 -0.20700901198E+02  0.11087051723E+03  0.12362297275E+03  0.00000000000E+00 0.  1.
         21    1    1    2  504  502 -0.39049923154E+02 -0.56161445781E+02 -0.90081835774E+02  0.11310942325E+03  0.00000000000E+00 0. -1.
         21    1    1    2  505  503  0.30029611026E+03 -0.56392935304E+01  0.35283510514E+02  0.30241442026E+03  0.00000000000E+00 0.  1.
          2    1    1    2  501    0 -0.21063155986E+03  0.82501640510E+02  0.67010483290E+03  0.70725713978E+03  0.00000000000E+00 0. -1.
<scales pt_clust_3="44.98263" pt_clust_4="68.40325" pt_clust_5="272.58731" pt_clust_6="44.98263"></scales>
<clustering>
<clus scale="   44.983">  3  6 -1 -1</clus>
<clus scale="   68.403">  2  4  1 -1</clus>
<clus scale="  272.587">  2  5  1 -1</clus>
<clus scale="   68.403">  2  3  1 -1</clus>
</clustering>
</event>
<event>
 6    0  0.1631680E+002  0.1164810E+03  0.7546771E-02  0.1249018E+00
         21   -1    0    0  504  502  0.00000000000E+00  0.00000000000E+00  0.14791516158E+04  0.14791516158E+04  0.00000000000E+00 0.  1.
          1   -1    0    0  505    0 -0.00000000000E+00 -0.00000000000E+00 -0.63586018026E+03  0.63586018026E+03  0.00000000000E+00 0.  1.
         21    1    1    2  503  502 -0.37370748054E+02 -0.19514490716E+02  0.61787666889E+02  0.74800427390E+02  0.00000000000E+00 0. -1.
         21    1    1    2  504  501 -0.30380009435E+02 -0.75327482629E+02  0.13937638602E+04  0.13961285301E+04  0.00000000000E+00 0.  1.
         21    1    1    2  505  503 -0.53337597153E+02  0.16920574007E+02 -0.17142981135E+03  0.18033132094E+03  0.00000000000E+00 0.  1.
          1    1    1    2  501    0  0.12108835464E+03  0.77921399338E+02 -0.44083028022E+03  0.46375151759E+03  0.00000000000E+00 0.  1.
<scales pt_clust_3="42.15908" pt_clust_4="116.48096" pt_clust_5="56.05101" pt_clust_6="14000.00000"></scales>
<clustering>
<clus scale="   42.159">  1  3  2 -1</clus>
<clus scale="   56.051">  2  5  1 -1</clus>
<clus scale="  116.481">  1  4  2 -1</clus>
<clus scale="   42.159">  1  3  2 -1</clus>
</clustering>
</event>
<event>
 6    0  0.1631680E+002  0.1126041E+03  0.7546771E-02  0.1255822E+00
          2   -1    0    0  505    0 -0.00000000000E+00  0.00000000000E+00  0.85750173799E+03  0.85750173799E+03  0.00000000000E+00 0.  1.
         21   -1    0    0  504  502  0.00000000000E+00 -0.00000000000E+00 -0.94533392849E+02  0.94533392849E+02  0.00000000000E+00 0.  1.
         21    1    1    2  503  502  0.24600132644E+02 -0.25984779838E+02 -0.88299575072E+01  0.36855711347E+02  0.00000000000E+00 0.  1.
         21    1    1    2  504  501 -0.66078713112E+02  0.68087338276E+02 -0.13625211285E+02  0.95853681947E+02  0.00000000000E+00 0.  1.
         21    1    1    2  505  503  0.13156202472E+03 -0.90996170463E+01  0.53866309033E+03  0.55457127068E+03  0.00000000000E+00 0.  1.
          2    1    1    2  501    0 -0.90083444253E+02 -0.33002941393E+02  0.24676042361E+03  0.26475446687E+03  0.00000000000E+00 0.  1.
<scales pt_clust_3="35.78233" pt_clust_4="67.56164" pt_clust_5="112.60412" pt_clust_6="14000.00000"></scales>
<clustering>
<clus scale="   35.782">  2  3  1 -1</clus>
<clus scale="   67.562">  2  4  1 -1</clus>
<clus scale="  112.604">  1  5  2 -1</clus>
<clus scale="   35.782">  2  3  1 -1</clus>
</clustering>
</event>
<event>
 6    0  0.1631680E+002  0.8249660E+02  0.7546771E-02  0.1322112E+00
         21   -1    0    0  503  502  0.00000000000E+00  0.00000000000E+00  0.10134222351E+03  0.10134222351E+03  0.00000000000E+00 0. -1.
          2   -1    0    0  504    0 -0.00000000000E+00 -0.00000000000E+00 -0.72492926744E+03  0.72492926744E+03  0.00000000000E+00 0. -1.
         21    1    1    2  503  501  0.55073852240E+01  0.87381216865E+02  0.35467879937E+02  0.94465754960E+02  0.00000000000E+00 0. -1.
         21    1    1    2  504  505  0.41795635215E+02  0.29179931950E+02 -0.71632843934E+02  0.87918188572E+02  0.00000000000E+00 0. -1.
         21    1    1    2  505  502  0.32149417581E+02 -0.71321209182E+02 -0.38114688762E+02  0.87023154559E+02  0.00000000000E+00 0.  1.
          2    1    1    2  501    0 -0.79452438021E+02 -0.45239939634E+02 -0.54930739116E+03  0.55686439286E+03  0.00000000000E+00 0. -1.
<scales pt_clust_3="14000.00000" pt_clust_4="50.97395" pt_clust_5="82.49660" pt_clust_6="48.08157"></scales>
<clustering>
<clus scale="   50.974">  2  4  1 -1</clus>
<clus scale="   48.082">  2  6  1 -1</clus>
<clus scale="   82.497">  2  5  1 -1</clus>
<clus scale="   82.497">  1  3  2 -1</clus>
</clustering>
</event>
<event>
 6    0  0.1631680E+002  0.8588703E+02  0.7546771E-02  0.1313129E+00
          2   -1    0    0  503    0 -0.00000000000E+00  0.00000000000E+00  0.21424628968E+03  0.21424628968E+03  0.00000000000E+00 0. -1.
         21   -1    0    0  505  502  0.00000000000E+00 -0.00000000000E+00 -0.15999058228E+03  0.15999058228E+03  0.00000000000E+00 0.  1.
         21    1    1    2  503  504  0.17773421699E+02 -0.31595809598E+02  0.29708283729E+02  0.46869732505E+02  0.00000000000E+00 0. -1.
         21    1    1    2  504  502  0.74837259483E+02  0.87923699920E+02 -0.91958220611E+02  0.14760591706E+03  0.00000000000E+00 0.  1.
         21    1    1    2  505  501 -0.24399456224E+02 -0.20811968846E+02 -0.83345118130E+01  0.33135111263E+02  0.00000000000E+00 0.  1.
          2    1    1    2  501    0 -0.68211224957E+02 -0.35515921476E+02  0.12484015610E+03  0.14662611112E+03  0.00000000000E+00 0. -1.
<scales pt_clust_3="36.68363" pt_clust_4="85.88703" pt_clust_5="32.06979" pt_clust_6="14000.00000"></scales>
<clustering>
<clus scale="   32.070">  2  5  1 -1</clus>
<clus scale="   36.684">  1  3  2 -1</clus>
<clus scale="   85.887">  2  4  1 -1</clus>
<clus scale="   32.070">  2  3  1 -1</clus>
</clustering>
</event>
<event>
 6    0  0.1631680E+002  0.1708970E+03  0.7546771E-02  0.1176916E+00
          2   -1    0    0  505    0 -0.00000000000E+00  0.00000000000E+00  0.16863776306E+04  0.16863776306E+04  0.00000000000E+00 0. -1.
         21   -1    0    0  503  502  0.00000000000E+00 -0.00000000000E+00 -0.22699651501E+03  0.22699651501E+03  0.00000000000E+00 0.  1.
         21    1    1    2  503  504 -0.66978324354E+02 -0.82674494974E+01 -0.12229917142E+02  0.68585840578E+02  0.00000000000E+00 0.  1.
         21    1    1    2  504  501 -0.34292752991E+02 -0.43134222376E+02  0.35880190852E+02  0.65756688962E+02  0.00000000000E+00 0.  1.
         21    1    1    2  505  502 -0.28009130142E+02 -0.43075634641E+02 -0.16371610867E+03  0.17158958567E+03  0.00000000000E+00 0.  1.
          2    1    1    2  501    0  0.12928020749E+03  0.94477306515E+02  0.15994469506E+04  0.16074420304E+04  0.00000000000E+00 0. -1.
<scales pt_clust_3="57.65235" pt_clust_4="57.65235" pt_clust_5="51.38114" pt_clust_6="156.89227"></scales>
<clustering>
<clus scale="   51.381">  2  5  1 -1</clus>
<clus scale="   57.652">  3  4 -1 -1</clus>
<clus scale="  156.892">  1  6  2 -1</clus>
<clus scale="   51.381">  2  3  1 -1</clus>
</clustering>
</event>
<event>
 6    0  0.1631680E+002  0.1274048E+03  0.7546771E-02  0.1231358E+00
         -2   -1    0    0    0  501 -0.00000000000E+00  0.00000000000E+00  0.24086668935E+03  0.24086668935E+03  0.00000000000E+00 0. -1.
         21   -1    0    0  504  502  0.00000000000E+00 -0.00000000000E+00 -0.10556966637E+04  0.10556966637E+04  0.00000000000E+00 0. -1.
         21    1    1    2  503  501  0.44875662057E+02  0.40304320065E+02  0.40884370849E+02  0.72868340455E+02  0.00000000000E+00 0. -1.
         21    1    1    2  504  505  0.52888648641E+02 -0.11730093007E+03 -0.10053116686E+04  0.10135128358E+04  0.00000000000E+00 0. -1.
         21    1    1    2  505  503 -0.24453535093E+01  0.34099518986E+02  0.96785063287E+01  0.35530697061E+02  0.00000000000E+00 0.  1.
         -2    1    1    2    0  502 -0.95318957188E+02  0.42897091016E+02  0.13991881703E+03  0.17465147975E+03  0.00000000000E+00 0. -1.
<scales pt_clust_3="95.88403" pt_clust_4="127.40478" pt_clust_5="32.44667" pt_clust_6="14000.00000"></scales>
<clustering>
<clus scale="   32.447">  3  5 -1 -1</clus>
<clus scale="   95.884">  1  3  2 -1</clus>
<clus scale="  127.405">  2  4  1 -1</clus>
<clus scale="  127.405">  2  3  1 -1</clus>
</clustering>
</event>
<event>
 6    0  0.1631680E+002  0.1410282E+03  0.7546771E-02  0.1211952E+00
         21   -1    0    0  503  502  0.00000000000E+00  0.00000000000E+00  0.51575640332E+03  0.51575640332E+03  0.00000000000E+00 0. -1.
          2   -1    0    0  504    0 -0.00000000000E+00 -0.00000000000E+00 -0.11124750524E+04  0.11124750524E+04  0.00000000000E+00 0.  1.
         21    1    1    2  503  505 -0.11620372269E+03 -0.81563830676E+02  0.48870056536E+03  0.50890490883E+03  0.00000000000E+00 0. -1.
         21    1    1    2  504  502 -0.35877696157E+02  0.30430709348E+02 -0.30006671141E+03  0.30373223149E+03  0.00000000000E+00 0.  1.
         21    1    1    2  505  501  0.13679166809E+03 -0.26783728451E+02 -0.45747259720E+03  0.47823687201E+03  0.00000000000E+00 0.  1.
          2    1    1    2  501    0  0.15289750761E+02  0.77916849779E+02 -0.32787990587E+03  0.33735744342E+03  0.00000000000E+00 0.  1.
<scales pt_clust_3="141.02822" pt_clust_4="47.04505" pt_clust_5="14000.00000" pt_clust_6="90.40583"></scales>
<clustering>
<clus scale="   47.045">  2  4  1 -1</clus>
<clus scale="   90.406">  2  6  1 -1</clus>
<clus scale="  141.028">  1  3  2 -1</clus>
<clus scale="  141.028">  1  3  2 -1</clus>
</clustering>
</event>
<event>
 6    0  0.1631680E+002  0.2033855E+03  0.7546771E-02  0.1146914E+00
          1   -1    0    0  505    0 -0.00000000000E+00  0.00000000000E+00  0.36927877731E+03  0.36927877731E+03  0.00000000000E+00 0. -1.
         21   -1    0    0  504  502  0.00000000000E+00 -0.00000000000E+00 -0.32471801536E+03  0.32471801536E+03  0.00000000000E+00 0.  1.
         21    1    1    2  503  501  0.19808927070E+02 -0.56779376132E+02  0.55431849579E+02  0.81786191337E+02  0.00000000000E+00 0. -1.
         21    1    1    2  504  503 -0.44316971229E+02 -0.42794572724E+02 -0.74963032269E+02  0.97030024222E+02  0.00000000000E+00 0.  1.
         21    1    1    2  505  502 -0.92473636902E+02  0.17586634654E+03 -0.15729604048E+03  0.25342136791E+03  0.00000000000E+00 0.  1.
          1    1    1    2  501    0  0.11698168106E+03 -0.76292397682E+02  0.22138798511E+03  0.26175920920E+03  0.00000000000E+00 0. -1.
<scales pt_clust_3="46.28078" pt_clust_4="61.60657" pt_clust_5="190.76479" pt_clust_6="46.28078"></scales>
<clustering>
<clus scale="   46.281">  3  6 -1 -1</clus>
<clus scale="   61.607">  2  4  1 -1</clus>
<clus scale="  190.765">  2  5  1 -1</clus>
<clus scale="   61.607">  2  3  1 -1</clus>
</clustering>
</event>
<event>
 6    0  0.1631680E+002  0.9798473E+02  0.7546771E-02  0.1284592E+00
         21   -1    0    0  505  502  0.00000000000E+00  0.00000000000E+00  0.46395494692E+02  0.46395494692E+02  0.00000000000E+00 0. -1.
          2   -1    0    0  504    0 -0.00000000000E+00 -0.00000000000E+00 -0.18411761153E+04  0.18411761153E+04  0.00000000000E+00 0. -1.
         21    1    1    2  503  502 -0.16210068232E+02  0.48593124630E+02 -0.12016880552E+03  0.13063154249E+03  0.00000000000E+00 0.  1.
         21    1    1    2  504  503 -0.40282903885E+02 -0.52566852074E+02 -0.36422219541E+03  0.37019426510E+03  0.00000000000E+00 0. -1.
         21    1    1    2  505  501 -0.78780814208E+02 -0.25417725858E+02 -0.15180522157E+02  0.84160119581E+02  0.00000000000E+00 0. -1.
          2    1    1    2  501    0  0.13527378632E+03  0.29391453303E+02 -0.12952090975E+04  0.13025856828E+04  0.00000000000E+00 0. -1.
<scales pt_clust_3="51.22556" pt_clust_4="64.21791" pt_clust_5="14000.00000" pt_clust_6="97.98473"></scales>
<clustering>
<clus scale="   51.226">  1  3  2 -1</clus>
<clus scale="   64.218">  2  4  1 -1</clus>
<clus scale="   97.985">  2  6  1 -1</clus>
<clus scale="   51.226">  1  3  2 -1</clus>
</clustering>
</event>
<event>
 6    0  0.1631680E+002  0.1165655E+03  0.7546771E-02  0.1248873E+00
         21   -1    0    0  503  502  0.00000000000E+00  0.00000000000E+00  0.23618997483E+03  0.23618997483E+03  0.00000000000E+00 0.  1.
          2   -1    0    0  504    0 -0.00000000000E+00 -0.00000000000E+00 -0.43686905367E+03  0.43686905367E+03  0.00000000000E+00 0.  1.
         21    1    1    2  503  501  0.32414915210E+02  0.47458455977E+02  0.58457315714E+02  0.81977372075E+02  0.00000000000E+00 0.  1.
         21    1    1    2  504  505 -0.40610558970E+02  0.14633522401E+02 -0.23380919376E+03  0.23776058665E+03  0.00000000000E+00 0.  1.
         21    1    1    2  505  502 -0.40696892136E+02  0.73152124855E+02  0.12166413735E+03  0.14768084750E+03  0.00000000000E+00 0.  1.
          2    1    1    2  501    0  0.48892535896E+02 -0.13524410323E+03 -0.14699133815E+03  0.20564022227E+03  0.00000000000E+00 0.  1.
<scales pt_clust_3="56.89168" pt_clust_4="43.16662" pt_clust_5="14000.00000" pt_clust_6="116.56551"></scales>
<clustering>
<clus scale="   43.167">  2  4  1 -1</clus>
<clus scale="   56.892">  1  3  2 -1</clus>
<clus scale="  116.566">  2  6  1 -1</clus>
<clus scale="   56.892">  1  3  2 -1</clus>
</clustering>
</event>
<event>
 6    0  0.1631680E+002  0.1325825E+03  0.7546771E-02  0.1223673E+00
         21   -1    0    0  505  502  0.00000000000E+00  0.00000000000E+00  0.17892882534E+04  0.17892882534E+04  0.00000000000E+00 0.  1.
          2   -1    0    0  503    0 -0.00000000000E+00 -0.00000000000E+00 -0.22585122517E+03  0.22585122517E+03  0.00000000000E+00 0.  1.
         21    1    1    2  503  504  0.76565065828E+02 -0.26838772868E+02 -0.27858555582E+02  0.85782446651E+02  0.00000000000E+00 0.  1.
         21    1    1    2  504  502 -0.21179091119E+03  0.52122430502E+02  0.79685790276E+03  0.82616866016E+03  0.00000000000E+00 0.  1.
         21    1    1    2  505  501  0.10596008673E+03 -0.39571546513E+02  0.94367983928E+03  0.95043415676E+03  0.00000000000E+00 0.  1.
          2    1    1    2  501    0  0.29265758634E+02  0.14287888879E+02 -0.14924215825E+03  0.15275421498E+03  0.00000000000E+00 0.  1.
<scales pt_clust_3="100.06681" pt_clust_4="14000.00000" pt_clust_5="132.58253" pt_clust_6="32.56729"></scales>
<clustering>
<clus scale="   32.567">  2  6  1 -1</clus>
<clus scale="  100.067">  2  3  1 -1</clus>
<clus scale="  132.583">  1  5  2 -1</clus>
<clus scale="  132.583">  1  3  2 -1</clus>
</clustering>
</event>
<event>
 6    0  0.1631680E+002  0.1668418E+03  0.7546771E-02  0.1181182E+00
         21   -1    0    0  504  502  0.00000000000E+00  0.00000000000E+00  0.91137337860E+02  0.91137337860E+02  0.00000000000E+00 0.  1.
          1   -1    0    0  505    0 -0.00000000000E+00 -0.00000000000E+00 -0.61472762380E+03  0.61472762380E+03  0.00000000000E+00 0.  1.
         21    1    1    2  503  502  0.39304830865E+02  0.18068578663E+02 -0.26814190455E+01  0.43342049701E+02  0.00000000000E+00 0.  1.
         21    1    1    2  504  501 -0.30115965812E+02  0.39427697253E+02 -0.93041419525E+02  0.10544297252E+03  0.00000000000E+00 0.  1.
         21    1    1    2  505  503 -0.20763924917E+02 -0.16696741234E+03 -0.69249740246E+02  0.18194720082E+03  0.00000000000E+00 0.  1.
          1    1    1    2  501    0  0.11575059864E+02  0.10947113642E+03 -0.35861770712E+03  0.37513273862E+03  0.00000000000E+00 0.  1.
<scales pt_clust_3="43.25903" pt_clust_4="43.90526" pt_clust_5="152.95019" pt_clust_6="43.90526"></scales>
<clustering>
<clus scale="   43.259">  1  3  2 -1</clus>
<clus scale="   43.905">  4  6 -1 -1</clus>
<clus scale="  152.950">  1  5  2 -1</clus>
<clus scale="   43.259">  1  3  2 -1</clus>
</clustering>
</event>
<event>
 6    0  0.1631680E+002  0.1241424E+03  0.7546771E-02  0.1236416E+00
          2   -1    0    0  504    0 -0.00000000000E+00  0.00000000000E+00  0.24155398389E+04  0.24155398389E+04  0.00000000000E+00 0. -1.
         21   -1    0    0  503  502  0.00000000000E+00 -0.00000000000E+00 -0.79959687209E+02  0.79959687209E+02  0.00000000000E+00 0. -1.
         21    1    1    2  503  501 -0.35387075981E+02 -0.12262248851E+03  0.13345504860E+03  0.18465852223E+03  0.00000000000E+00 0. -1.
         21    1    1    2  504  505 -0.29403005344E+02 -0.51254283541E+02  0.66305046027E+03  0.66567818890E+03  0.00000000000E+00 0.  1.
         21    1    1    2  505  502 -0.31726309715E+02  0.25520999790E+02 -0.39481488397E+02  0.56715677589E+02  0.00000000000E+00 0. -1.
          2    1    1    2  501    0  0.96516391039E+02  0.14835577226E+03  0.15785561313E+04  0.15884471374E+04  0.00000000000E+00 0. -1.
<scales pt_clust_3="14000.00000" pt_clust_4="58.85076" pt_clust_5="40.71707" pt_clust_6="124.14239"></scales>
<clustering>
<clus scale="   40.717">  2  5  1 -1</clus>
<clus scale="   58.851">  1  4  2 -1</clus>
<clus scale="  124.142">  1  6  2 -1</clus>
<clus scale="   40.717">  2  3  1 -1</clus>
</clustering>
</event>
<event>
 6    0  0.1631680E+002  0.1216793E+03  0.7546771E-02  0.1240352E+00
         21   -1    0    0  503  502  0.00000000000E+00  0.00000000000E+00  0.15296122911E+03  0.15296122911E+03  0.00000000000E+00 0. -1.
          2   -1    0    0  505    0 -0.00000000000E+00 -0.00000000000E+00 -0.27535303038E+04  0.27535303038E+04  0.00000000000E+00 0.  1.
         21    1    1    2  503  501  0.61593714964E+02  0.33831503246E+02  0.12567928267E+03  0.14399179986E+03  0.00000000000E+00 0. -1.
         21    1    1    2  504  502 -0.85238258154E+01 -0.61512351328E+02 -0.76133183303E+02  0.98248086863E+02  0.00000000000E+00 0. -1.
         21    1    1    2  505  504  0.70856867550E+02 -0.35684580033E+02 -0.30965959271E+03  0.31966098963E+03  0.00000000000E+00 0. -1.
          2    1    1    2  501    0 -0.12392675670E+03  0.63365428115E+02 -0.23404555814E+04  0.23445906566E+04  0.00000000000E+00 0.  1.
<scales pt_clust_3="58.88675" pt_clust_4="62.10012" pt_clust_5="14000.00000" pt_clust_6="121.67935"></scales>
<clustering>
<clus scale="   62.100">  1  4  2 -1</clus>
<clus scale="   58.887">  1  3  2 -1</clus>
<clus scale="  121.679">  2  6  1 -1</clus>
<clus scale="   62.100">  1  3  2 -1</clus>
</clustering>
</event>
<event>
 6    0  0.1631680E+002  0.2767814E+03  0.7546771E-02  0.1097460E+00
          2   -1    0    0  505    0 -0.00000000000E+00  0.00000000000E+00  0.17102616611E+04  0.17102616611E+04  0.00000000000E+00 0. -1.
         21   -1    0    0  504  502  0.00000000000E+00 -0.00000000000E+00 -0.21546845223E+03  0.21546845223E+03  0.00000000000E+00 0.  1.
         21    1    1    2  503  502 -0.30409053486E+03 -0.28843346492E+02  0.51467542498E+03  0.59849292820E+03  0.00000000000E+00 0. -1.
         21    1    1    2  504  501  0.26575610519E+03  0.55572025993E+02 -0.61806276308E+02  0.27845030672E+03  0.00000000000E+00 0.  1.
         21    1    1    2  505  503 -0.33066781851E+02 -0.22953781996E+02  0.21193637817E+03  0.21572509488E+03  0.00000000000E+00 0. -1.
          2    1    1    2  501    0  0.71401211518E+02 -0.37748975054E+01  0.82998768198E+03  0.83306178348E+03  0.00000000000E+00 0. -1.
<scales pt_clust_3="14000.00000" pt_clust_4="276.78140" pt_clust_5="40.25280" pt_clust_6="55.54354"></scales>
<clustering>
<clus scale="   40.253">  1  5  2 -1</clus>
<clus scale="   55.544">  1  6  2 -1</clus>
<clus scale="  276.781">  2  4  1 -1</clus>
<clus scale="  276.781">  2  3  1 -1</clus>
</clustering>
</event>
<event>
 6    0  0.1631680E+002  0.3842141E+03  0.7546771E-02  0.1049387E+00
          2   -1    0    0  504    0 -0.00000000000E+00  0.00000000000E+00  0.26639877151E+04  0.26639877151E+04  0.00000000000E+00 0. -1.
         21   -1    0    0  501  502  0.00000000000E+00 -0.00000000000E+00 -0.87317686303E+02  0.87317686303E+02  0.00000000000E+00 0. -1.
         21    1    1    2  503  505  0.10256801824E+03  0.20413761168E+03  0.10710444876E+04  0.10951386475E+04  0.00000000000E+00 0.  1.
         21    1    1    2  504  503  0.11848191953E+03  0.99129632550E+02  0.92345484798E+03  0.93628708501E+03  0.00000000000E+00 0. -1.
         21    1    1    2  505  502 -0.44128861678E+02  0.23691558319E+02  0.91125183941E+02  0.10398290973E+03  0.00000000000E+00 0.  1.
          2    1    1    2  501    0 -0.17692107609E+03 -0.32695880255E+03  0.49104550926E+03  0.61589675912E+03  0.00000000000E+00 0. -1.
<scales pt_clust_3="72.36889" pt_clust_4="72.36889" pt_clust_5="50.08639" pt_clust_6="373.88723"></scales>
<clustering>
<clus scale="   50.086">  2  5  1 -1</clus>
<clus scale="   72.369">  3  4 -1 -1</clus>
<clus scale="  373.887">  2  6  1 -1</clus>
<clus scale="   50.086">  2  3  1 -1</clus>
</clustering>
</event>
<event>
 6    0  0.1631680E+002  0.3312529E+03  0.7546771E-02  0.1070584E+00
         21   -1    0    0  505  502  0.00000000000E+00  0.00000000000E+00  0.84150266445E+03  0.84150266445E+03  0.00000000000E+00 0. -1.
          2   -1    0    0  504    0 -0.00000000000E+00 -0.00000000000E+00 -0.84790470543E+03  0.84790470543E+03  0.00000000000E+00 0.  1.
         21    1    1    2  503  502  0.26237103098E+02 -0.11426765030E+03  0.49940704263E+03  0.51298428408E+03  0.00000000000E+00 0. -1.
         21    1    1    2  504  503  0.36931555518E+02 -0.43873715932E+02 -0.88837105922E+02  0.10573965260E+03  0.00000000000E+00 0.  1.
         21    1    1    2  505  501  0.71732155613E+02  0.42150229589E+03  0.13163242705E+03  0.44736649790E+03  0.00000000000E+00 0. -1.
          2    1    1    2  501    0 -0.13490081423E+03 -0.26336092967E+03 -0.54860440473E+03  0.62331693531E+03  0.00000000000E+00 0.  1.
<scales pt_clust_3="117.70284" pt_clust_4="57.34843" pt_clust_5="14000.00000" pt_clust_6="331.25291"></scales>
<clustering>
<clus scale="   57.348">  2  4  1 -1</clus>
<clus scale="  117.703">  1  3  2 -1</clus>
<clus scale="  331.253">  2  6  1 -1</clus>
<clus scale="  117.703">  1  3  2 -1</clus>
</clustering>
</event>
<event>
 6    0  0.1631680E+002  0.7277010E+02  0.7546771E-02  0.1350919E+00
         -1   -1    0    0    0  501 -0.00000000000E+00  0.00000000000E+00  0.54088352570E+03  0.54088352570E+03  0.00000000000E+00 0.  1.
         21   -1    0    0  505  502  0.00000000000E+00 -0.00000000000E+00 -0.12605346304E+03  0.12605346304E+03  0.00000000000E+00 0. -1.
         21    1    1    2  503  501 -0.15980710831E+02 -0.40650706324E+02  0.18168079711E+03  0.18685763319E+03  0.00000000000E+00 0.  1.
         21    1    1    2  504  502 -0.54747751706E+02 -0.47721283475E+02  0.10608105800E+03  0.12856060081E+03  0.00000000000E+00 0.  1.
         21    1    1    2  505  503  0.74639433262E+02  0.16542285593E+00 -0.90151730615E+02  0.11704019350E+03  0.00000000000E+00 0. -1.
         -1    1    1    2    0  504 -0.39109707249E+01  0.88206566943E+02  0.21721993816E+03  0.23447856124E+03  0.00000000000E+00 0.  1.
<scales pt_clust_3="43.67909" pt_clust_4="14000.00000" pt_clust_5="72.77010" pt_clust_6="64.01855"></scales>
<clustering>
<clus scale="   43.679">  1  3  2 -1</clus>
<clus scale="   64.019">  1  6  2 -1</clus>
<clus scale="   72.770">  2  5  1 -1</clus>
<clus scale="   72.770">  2  3  1 -1</clus>
</clustering>
</event>
<event>
 6    0  0.1631680E+002  0.1001980E+03  0.7546771E-02  0.1279880E+00
         -4   -1    0    0    0  501 -0.00000000000E+00  0.00000000000E+00  0.10479195842E+03  0.10479195842E+03  0.00000000000E+00 0. -1.
         21   -1    0    0  504  502  0.00000000000E+00 -0.00000000000E+00 -0.96505670405E+03  0.96505670405E+03  0.00000000000E+00 0. -1.
         21    1    1    2  503  505  0.11850306136E+02 -0.13415690984E+03 -0.23806359223E+03  0.27351925007E+03  0.00000000000E+00 0. -1.
         21    1    1    2  504  501 -0.32625996176E+02  0.12645170256E+02  0.14506343132E+02  0.37878621257E+02  0.00000000000E+00 0. -1.
         21    1    1    2  505  502 -0.55178456566E+02  0.78832359537E+02 -0.66102894424E+03  0.66799585935E+03  0.00000000000E+00 0. -1.
         -4    1    1    2    0  503  0.75954146605E+02  0.42679380050E+02  0.24321447703E+02  0.90454931796E+02  0.00000000000E+00 0. -1.
<scales pt_clust_3="14000.00000" pt_clust_4="34.99080" pt_clust_5="100.19796" pt_clust_6="73.57097"></scales>
<clustering>
<clus scale="   34.991">  1  4  2 -1</clus>
<clus scale="   73.571">  1  6  2 -1</clus>
<clus scale="  100.198">  2  5  1 -1</clus>
<clus scale="  100.198">  2  3  1 -1</clus>
</clustering>
</event>
<event>
 6    0  0.1631680E+002  0.7648086E+02  0.7546771E-02  0.1339346E+00
          1   -1    0    0  504    0 -0.00000000000E+00  0.00000000000E+00  0.42240425758E+04  0.42240425758E+04  0.00000000000E+00 0.  1.
         21   -1    0    0  503  502  0.00000000000E+00 -0.00000000000E+00 -0.90452976012E+02  0.90452976012E+02  0.00000000000E+00 0. -1.
         21    1    1    2  503  501 -0.78851044549E+01  0.30728783868E+02  0.85688751976E+02  0.91372836475E+02  0.00000000000E+00 0.  1.
         21    1    1    2  504  505 -0.81535728402E+02  0.44923370990E+01  0.22336685019E+04  0.22351606726E+04  0.00000000000E+00 0.  1.
         21    1    1    2  505  502  0.19250991531E+02 -0.59836800759E+02 -0.74665436317E+02  0.97601079812E+02  0.00000000000E+00 0. -1.
          1    1    1    2  501    0  0.70169841326E+02  0.24615679793E+02  0.18888977823E+04  0.18903609629E+04  0.00000000000E+00 0.  1.
<scales pt_clust_3="31.72433" pt_clust_4="14000.00000" pt_clust_5="31.77958" pt_clust_6="76.48086"></scales>
<clustering>
<clus scale="   31.724">  2  3  1 -1</clus>
<clus scale="   31.780">  2  5  1 -1</clus>
<clus scale="   76.481">  1  6  2 -1</clus>
<clus scale="   31.724">  2  3  1 -1</clus>
</clustering>
</event>
<event>
 6    0  0.1631680E+002  0.8075703E+02  0.7546771E-02  0.1326917E+00
         21   -1    0    0  501  502  0.00000000000E+00  0.00000000000E+00  0.38929575317E+03  0.38929575317E+03  0.00000000000E+00 0.  1.
          4   -1    0    0  504    0 -0.00000000000E+00 -0.00000000000E+00 -0.89584722971E+02  0.89584722971E+02  0.00000000000E+00 0. -1.
         21    1    1    2  503  502 -0.30241432249E+01 -0.42393017909E+02  0.12804241986E+03  0.13491172926E+03  0.00000000000E+00 0. -1.
         21    1    1    2  504  505  0.43122619653E+02  0.65132923338E+01 -0.19215112877E+02  0.47657149156E+02  0.00000000000E+00 0.  1.
         21    1    1    2  505  503 -0.29256886888E+02  0.11043392430E+03  0.18912559269E+03  0.22095272543E+03  0.00000000000E+00 0.  1.
          4    1    1    2  501    0 -0.10841589540E+02 -0.74554198721E+02  0.17581305324E+01  0.75358872295E+02  0.00000000000E+00 0. -1.
<scales pt_clust_3="42.50075" pt_clust_4="43.15822" pt_clust_5="14000.00000" pt_clust_6="80.75703"></scales>
<clustering>
<clus scale="   42.501">  1  3  2 -1</clus>
<clus scale="   43.158">  2  4  1 -1</clus>
<clus scale="   80.757">  2  6  1 -1</clus>
<clus scale="   42.501">  1  3  2 -1</clus>
</clustering>
</event>
<event>
 6    0  0.1631680E+002  0.1467895E+03  0.7546771E-02  0.1204474E+00
         21   -1    0    0  504  502  0.00000000000E+00  0.00000000000E+00  0.46238030915E+03  0.46238030915E+03  0.00000000000E+00 0. -1.
          1   -1    0    0  503    0 -0.00000000000E+00 -0.00000000000E+00 -0.79614884972E+03  0.79614884972E+03  0.00000000000E+00 0.  1.
         21    1    1    2  503  502  0.97754314691E+02 -0.58348571989E+02 -0.55454969181E+03  0.56611467264E+03  0.00000000000E+00 0.  1.
         21    1    1    2  504  505  0.10454968583E+03  0.73116491903E+02  0.39576412866E+03  0.41581955670E+03  0.00000000000E+00 0. -1.
         21    1    1    2  505  501 -0.33016171015E+02 -0.12643095862E+02 -0.33500906940E+01  0.35512512290E+02  0.00000000000E+00 0. -1.
          1    1    1    2  501    0 -0.16928782950E+03 -0.21248240518E+01 -0.17163288673E+03  0.24108241724E+03  0.00000000000E+00 0.  1.
<scales pt_clust_3="113.84402" pt_clust_4="129.63972" pt_clust_5="31.46386" pt_clust_6="31.46386"></scales>
<clustering>
<clus scale="   31.464">  5  6 -1 -1</clus>
<clus scale="  113.844">  2  3  1 -1</clus>
<clus scale="  129.640">  1  4  2 -1</clus>
<clus scale="  129.640">  1  3  2 -1</clus>
</clustering>
</event>
<event>
 6    0  0.1631680E+002  0.1239988E+03  0.7546771E-02  0.1236642E+00
          1   -1    0    0  504    0 -0.00000000000E+00  0.00000000000E+00  0.28718415151E+03  0.28718415151E+03  0.00000000000E+00 0.  1.
         21   -1    0    0  505  502  0.00000000000E+00 -0.00000000000E+00 -0.31875204878E+03  0.31875204878E+03  0.00000000000E+00 0. -1.
         21    1    1    2  503  501 -0.13861270368E+03 -0.41002884374E+02  0.13418601740E+03  0.19723236401E+03  0.00000000000E+00 0. -1.
         21    1    1    2  504  502  0.50176828825E+01 -0.59317797060E+02 -0.31579019690E+02  0.67387036395E+02  0.00000000000E+00 0. -1.
         21    1    1    2  505  503  0.29881051600E+02  0.82348271651E+02 -0.19918638975E+03  0.21759901872E+03  0.00000000000E+00 0. -1.
          1    1    1    2  501    0  0.10371396920E+03  0.17972409783E+02  0.65011494773E+02  0.12371778115E+03  0.00000000000E+00 0.  1.
<scales pt_clust_3="14000.00000" pt_clust_4="59.52964" pt_clust_5="49.67876" pt_clust_6="123.99876"></scales>
<clustering>
<clus scale="   59.530">  2  4  1 -1</clus>
<clus scale="   49.679">  2  5  1 -1</clus>
<clus scale="  123.999">  1  6  2 -1</clus>
<clus scale="   59.530">  2  3  1 -1</clus>
</clustering>
</event>
<event>
 6    0  0.1631680E+002  0.1274654E+03  0.7546771E-02  0.1231266E+00
          2   -1    0    0  505    0 -0.00000000000E+00  0.00000000000E+00  0.36896507490E+03  0.36896507490E+03  0.00000000000E+00 0. -1.
         21   -1    0    0  504  502  0.00000000000E+00 -0.00000000000E+00 -0.16994475700E+03  0.16994475700E+03  0.00000000000E+00 0. -1.
         21    1    1    2  503  502  0.15392049292E+03  0.15435861775E+02 -0.25916344582E+02  0.15684846472E+03  0.00000000000E+00 0. -1.
         21    1    1    2  504  501 -0.39002033052E+02  0.27826109079E+02 -0.46831136071E+02  0.66997061386E+02  0.00000000000E+00 0. -1.
         21    1    1    2  505  503 -0.12949601437E+02  0.30759253369E+02  0.59013146497E+02  0.67796572956E+02  0.00000000000E+00 0.  1.
          2    1    1    2  501    0 -0.10196885843E+03 -0.74021224222E+02  0.21275465207E+03  0.24726773283E+03  0.00000000000E+00 0. -1.
<scales pt_clust_3="14000.00000" pt_clust_4="48.85164" pt_clust_5="33.37400" pt_clust_6="127.46540"></scales>
<clustering>
<clus scale="   33.374">  1  5  2 -1</clus>
<clus scale="   48.852">  2  4  1 -1</clus>
<clus scale="  127.465">  1  6  2 -1</clus>
<clus scale="   48.852">  2  3  1 -1</clus>
</clustering>
</event>
<event>
 6    0  0.1631680E+002  0.1701365E+03  0.7546771E-02  0.1177706E+00
         21   -1    0    0  501  502  0.00000000000E+00  0.00000000000E+00  0.31554098736E+02  0.31554098736E+02  0.00000000000E+00 0. -1.
          2   -1    0    0  505    0 -0.00000000000E+00 -0.00000000000E+00 -0.22201920243E+04  0.22201920243E+04  0.00000000000E+00 0. -1.
         21    1    1    2  503  504  0.15961764476E+03  0.16808521914E+02 -0.62494207131E+03  0.64522314855E+03  0.00000000000E+00 0. -1.
         21    1    1    2  504  502 -0.17710940583E+03  0.33754878210E+02 -0.45036268221E+03  0.48511202723E+03  0.00000000000E+00 0. -1.
         21    1    1    2  505  503 -0.23150475013E+02  0.31413379011E+02 -0.22299586315E+03  0.22638440728E+03  0.00000000000E+00 0. -1.
          2    1    1    2  501    0  0.40642236080E+02 -0.81976779135E+02 -0.89033730885E+03  0.89502653995E+03  0.00000000000E+00 0. -1.
<scales pt_clust_3="170.13654" pt_clust_4="14000.00000" pt_clust_5="39.02236" pt_clust_6="74.37016"></scales>
<clustering>
<clus scale="   39.022">  2  5  1 -1</clus>
<clus scale="   74.370">  2  6  1 -1</clus>
<clus scale="  170.137">  2  3  1 -1</clus>
<clus scale="  170.137">  1  3  2 -1</clus>
</clustering>
</event>
<event>
 6    0  0.1631680E+002  0.1129171E+03  0.7546771E-02  0.1255261E+00
         21   -1    0    0  505  502  0.00000000000E+00  0.00000000000E+00  0.14982937370E+04  0.14982937370E+04  0.00000000000E+00 0.  1.
          2   -1    0    0  503    0 -0.00000000000E+00 -0.00000000000E+00 -0.33900277750E+03  0.33900277750E+03  0.00000000000E+00 0.  1.
         21    1    1    2  503  504 -0.22435348932E+02  0.26989078335E+02 -0.28190377368E+02  0.45016137187E+02  0.00000000000E+00 0.  1.
         21    1    1    2  504  502 -0.59132740280E+02 -0.98724071495E+00  0.24030515639E+03  0.24747570346E+03  0.00000000000E+00 0.  1.
         21    1    1    2  505  501  0.26096793020E+01 -0.97578564860E+02  0.12344998928E+04  0.12383530886E+04  0.00000000000E+00 0.  1.
          2    1    1    2  501    0  0.78958409910E+02  0.71576727240E+02 -0.28732371237E+03  0.30645158519E+03  0.00000000000E+00 0.  1.
<scales pt_clust_3="35.09637" pt_clust_4="59.40248" pt_clust_5="14000.00000" pt_clust_6="112.91708"></scales>
<clustering>
<clus scale="   35.096">  2  3  1 -1</clus>
<clus scale="   59.402">  1  4  2 -1</clus>
<clus scale="  112.917">  2  6  1 -1</clus>
<clus scale="   59.402">  1  3  2 -1</clus>
</clustering>
</event>
<event>
 6    0  0.1631680E+002  0.1027231E+03  0.7546771E-02  0.1274672E+00
         21   -1    0    0  503  502  0.00000000000E+00  0.00000000000E+00  0.86835495285E+03  0.86835495285E+03  0.00000000000E+00 0.  1.
          2   -1    0    0  505    0 -0.00000000000E+00 -0.00000000000E+00 -0.13992182505E+04  0.13992182505E+04  0.00000000000E+00 0.  1.
         21    1    1    2  503  501 -0.16967658914E+02 -0.32332054485E+02  0.51222717614E+03  0.51352696441E+03  0.00000000000E+00 0.  1.
         21    1    1    2  504  502  0.91401591386E+02  0.25999176117E+02  0.34007136061E+03  0.35309876575E+03  0.00000000000E+00 0.  1.
         21    1    1    2  505  504 -0.45799015376E+02 -0.98936703722E+02 -0.83007680187E+03  0.83720578005E+03  0.00000000000E+00 0.  1.
          2    1    1    2  501    0 -0.28634917096E+02  0.10526958209E+03 -0.55308503252E+03  0.56374169314E+03  0.00000000000E+00 0.  1.
<scales pt_clust_3="36.51388" pt_clust_4="75.06195" pt_clust_5="102.72312" pt_clust_6="14000.00000"></scales>
<clustering>
<clus scale="   36.514">  1  3  2 -1</clus>
<clus scale="   75.062">  1  4  2 -1</clus>
<clus scale="  102.723">  2  5  1 -1</clus>
<clus scale="   36.514">  1  3  2 -1</clus>
</clustering>
</event>
<event>
 6    0  0.1631680E+002  0.1073067E+03  0.7546771E-02  0.1265640E+00
         -2   -1    0    0    0  501 -0.00000000000E+00  0.00000000000E+00  0.69607833987E+03  0.69607833987E+03  0.00000000000E+00 0. -1.
         21   -1    0    0  504  502  0.00000000000E+00 -0.00000000000E+00 -0.73482559964E+02  0.73482559964E+02  0.00000000000E+00 0. -1.
         21    1    1    2  503  502 -0.33496017087E+01  0.32460418233E+02 -0.20675947809E+02  0.38631507882E+02  0.00000000000E+00 0. -1.
         21    1    1    2  504  505  0.34459786948E+02  0.94694297132E+01 -0.12044201541E+02  0.37712197050E+02  0.00000000000E+00 0. -1.
         21    1    1    2  505  501 -0.10992152825E+03 -0.82498480945E+02  0.39719047308E+03  0.42029634026E+03  0.00000000000E+00 0. -1.
         -2    1    1    2    0  503  0.78811343015E+02  0.40568632999E+02  0.25812545618E+03  0.27292085464E+03  0.00000000000E+00 0. -1.
<scales pt_clust_3="32.63278" pt_clust_4="42.87385" pt_clust_5="14000.00000" pt_clust_6="107.30670"></scales>
<clustering>
<clus scale="   32.633">  2  3  1 -1</clus>
<clus scale="   42.874">  2  4  1 -1</clus>
<clus scale="  107.307">  1  6  2 -1</clus>
<clus scale="   32.633">  2  3  1 -1</clus>
</clustering>
</event>
<event>
 6    0  0.1631680E+002  0.1087220E+03  0.7546771E-02  0.1262955E+00
          2   -1    0    0  503    0 -0.00000000000E+00  0.00000000000E+00  0.72920755916E+03  0.72920755916E+03  0.00000000000E+00 0. -1.
         21   -1    0    0  504  502  0.00000000000E+00 -0.00000000000E+00 -0.33924747185E+03  0.33924747185E+03  0.00000000000E+00 0. -1.
         21    1    1    2  503  505 -0.30701109867E+02  0.84982452692E+01  0.38660938453E+02  0.50094375750E+02  0.00000000000E+00 0. -1.
         21    1    1    2  504  501  0.11126661863E+03 -0.95202456755E+02 -0.82869566188E+02  0.16825912514E+03  0.00000000000E+00 0. -1.
         21    1    1    2  505  502 -0.47093704894E+02  0.88319669497E+02 -0.19545194476E+03  0.21958971690E+03  0.00000000000E+00 0. -1.
          2    1    1    2  501    0 -0.33471803869E+02 -0.16154580109E+01  0.62962065980E+03  0.63051181321E+03  0.00000000000E+00 0. -1.
<scales pt_clust_3="31.85559" pt_clust_4="14000.00000" pt_clust_5="108.72199" pt_clust_6="62.02880"></scales>
<clustering>
<clus scale="   31.856">  1  3  2 -1</clus>
<clus scale="   62.029">  1  6  2 -1</clus>
<clus scale="  108.722">  2  5  1 -1</clus>
<clus scale="  108.722">  2  3  1 -1</clus>
</clustering>
</event>
<event>
 6    0  0.1631680E+002  0.7777589E+02  0.7546771E-02  0.1335484E+00
         21   -1    0    0  505  502  0.00000000000E+00  0.00000000000E+00  0.20304612988E+04  0.20304612988E+04  0.00000000000E+00 0.  1.
         -2   -1    0    0    0  501 -0.00000000000E+00 -0.00000000000E+00 -0.62373277333E+03  0.62373277333E+03  0.00000000000E+00 0.  1.
         21    1    1    2  503  502  0.65058689185E+02 -0.65647239696E+02  0.54600953123E+03  0.55377667097E+03  0.00000000000E+00 0.  1.
         21    1    1    2  504  501 -0.37896534101E+02 -0.24117380234E+02 -0.13427439449E+02  0.46883808040E+02  0.00000000000E+00 0. -1.
         21    1    1    2  505  504 -0.78322365029E+02  0.59722433479E+01  0.14586897323E+04  0.14608031338E+04  0.00000000000E+00 0.  1.
         -2    1    1    2    0  503  0.51160209945E+02  0.83792376582E+02 -0.58454329861E+03  0.59273045932E+03  0.00000000000E+00 0.  1.
<scales pt_clust_3="14000.00000" pt_clust_4="44.91988" pt_clust_5="77.77589" pt_clust_6="61.39620"></scales>
<clustering>
<clus scale="   44.920">  2  4  1 -1</clus>
<clus scale="   61.396">  2  6  1 -1</clus>
<clus scale="   77.776">  1  5  2 -1</clus>
<clus scale="   77.776">  1  3  2 -1</clus>
</clustering>
</event>
<event>
 6    0  0.1631680E+002  0.7981803E+02  0.7546771E-02  0.1329569E+00
         21   -1    0    0  503  502  0.00000000000E+00  0.00000000000E+00  0.42320757763E+03  0.42320757763E+03  0.00000000000E+00 0.  1.
          2   -1    0    0  504    0 -0.00000000000E+00 -0.00000000000E+00 -0.12655410092E+03  0.12655410092E+03  0.00000000000E+00 0.  1.
         21    1    1    2  503  501 -0.26295430276E+02 -0.57793943614E+02  0.61669885902E+02  0.88514204505E+02  0.00000000000E+00 0.  1.
         21    1    1    2  504  505 -0.34348221750E+02  0.41644376778E+01  0.58678697092E+01  0.35093799644E+02  0.00000000000E+00 0.  1.
         21    1    1    2  505  502  0.10361510154E+03  0.20365320153E+02  0.31068510960E+03  0.32814032495E+03  0.00000000000E+00 0.  1.
          2    1    1    2  501    0 -0.42971449511E+02  0.33264185783E+02 -0.81569388502E+02  0.98013349445E+02  0.00000000000E+00 0.  1.
<scales pt_clust_3="64.86662" pt_clust_4="34.59975" pt_clust_5="14000.00000" pt_clust_6="79.81803"></scales>
<clustering>
<clus scale="   34.600">  2  4  1 -1</clus>
<clus scale="   64.867">  1  3  2 -1</clus>
<clus scale="   79.818">  2  6  1 -1</clus>
<clus scale="   64.867">  1  3  2 -1</clus>
</clustering>
</event>
<event>
 6    0  0.1631680E+002  0.1248319E+03  0.7546771E-02  0.1235332E+00
          2   -1    0    0  503    0 -0.00000000000E+00  0.00000000000E+00  0.17190226713E+04  0.17190226713E+04  0.00000000000E+00 0.  1.
         21   -1    0    0  501  502  0.00000000000E+00 -0.00000000000E+00 -0.12231660196E+03  0.12231660196E+03  0.00000000000E+00 0. -1.
         21    1    1    2  503  505 -0.33942283664E+02  0.88847463411E+01  0.49056144521E+03  0.49181454722E+03  0.00000000000E+00 0.  1.
         21    1    1    2  504  502  0.80467279732E+02 -0.58423339533E+02 -0.46353698837E+02  0.10971296690E+03  0.00000000000E+00 0. -1.
         21    1    1    2  505  504 -0.86272226462E+02 -0.71850363767E+02  0.38764498442E+02  0.11877734705E+03  0.00000000000E+00 0. -1.
          2    1    1    2  501    0  0.39747230393E+02  0.12138895696E+03  0.11137338245E+04  0.11210344120E+04  0.00000000000E+00 0.  1.
<scales pt_clust_3="35.08586" pt_clust_4="98.59698" pt_clust_5="124.83185" pt_clust_6="14000.00000"></scales>
<clustering>
<clus scale="   35.086">  1  3  2 -1</clus>
<clus scale="   98.597">  2  4  1 -1</clus>
<clus scale="  124.832">  2  5  1 -1</clus>
<clus scale="   98.597">  2  3  1 -1</clus>
</clustering>
</event>
<event>
 6    0  0.1631680E+002  0.1199538E+03  0.7546771E-02  0.1243173E+00
         21   -1    0    0  503  502  0.00000000000E+00  0.00000000000E+00  0.11758257296E+03  0.11758257296E+03  0.00000000000E+00 0.  1.
         -1   -1    0    0    0  501 -0.00000000000E+00 -0.00000000000E+00 -0.39586999027E+03  0.39586999027E+03  0.00000000000E+00 0.  1.
         21    1    1    2  503  504 -0.12905648250E+03 -0.53168317057E+02 -0.53060840271E+02  0.14932480833E+03  0.00000000000E+00 0.  1.
         21    1    1    2  504  501  0.18871788566E+02 -0.46489680697E+02 -0.91163839585E+02  0.10405902394E+03  0.00000000000E+00 0.  1.
         21    1    1    2  505  502  0.49261169210E+02 -0.15469953302E+02  0.22572418242E+02  0.56351542236E+02  0.00000000000E+00 0.  1.
         -1    1    1    2    0  505  0.60923524721E+02  0.11512795106E+03 -0.15663515570E+03  0.20371718872E+03  0.00000000000E+00 0.  1.
<scales pt_clust_3="14000.00000" pt_clust_4="50.17405" pt_clust_5="53.48638" pt_clust_6="119.95383"></scales>
<clustering>
<clus scale="   50.174">  2  4  1 -1</clus>
<clus scale="   53.486">  1  5  2 -1</clus>
<clus scale="  119.954">  2  6  1 -1</clus>
<clus scale="   53.486">  1  3  2 -1</clus>
</clustering>
</event>
<event>
 6    0  0.1631680E+002  0.8055945E+02  0.7546771E-02  0.1327471E+00
         21   -1    0    0  504  502  0.00000000000E+00  0.00000000000E+00  0.17064505781E+03  0.17064505781E+03  0.00000000000E+00 0. -1.
          2   -1    0    0  503    0 -0.00000000000E+00 -0.00000000000E+00 -0.18398339969E+04  0.18398339969E+04  0.00000000000E+00 0.  1.
         21    1    1    2  503  505  0.40236601952E+02  0.23932528605E+02 -0.44888078778E+03  0.45131553452E+03  0.00000000000E+00 0.  1.
         21    1    1    2  504  501  0.24693766994E+01 -0.51784334691E+02 -0.52652292988E+02  0.73891671368E+02  0.00000000000E+00 0.  1.
         21    1    1    2  505  502 -0.77237023156E+02  0.84780561258E+02  0.13714155836E+03  0.17877669967E+03  0.00000000000E+00 0. -1.
          2    1    1    2  501    0  0.34531044505E+02 -0.56928755171E+02 -0.13047974167E+04  0.13064951492E+04  0.00000000000E+00 0.  1.
<scales pt_clust_3="46.81613" pt_clust_4="50.87688" pt_clust_5="80.55945" pt_clust_6="14000.00000"></scales>
<clustering>
<clus scale="   46.816">  2  3  1 -1</clus>
<clus scale="   50.877">  1  4  2 -1</clus>
<clus scale="   80.559">  1  5  2 -1</clus>
<clus scale="   50.877">  1  3  2 -1</clus>
</clustering>
</event>
<event>
 6    0  0.1631680E+002  0.7927599E+02  0.7546771E-02  0.1331119E+00
         21   -1    0    0  503  502  0.00000000000E+00  0.00000000000E+00  0.48751797509E+03  0.48751797509E+03  0.00000000000E+00 0.  1.
          3   -1    0    0  504    0 -0.00000000000E+00 -0.00000000000E+00 -0.81384767753E+02  0.81384767753E+02  0.00000000000E+00 0. -1.
         21    1    1    2  503  505 -0.61522755474E+01  0.52929688635E+02  0.15122856908E+03  0.16034176792E+03  0.00000000000E+00 0.  1.
         21    1    1    2  504  502  0.72411088683E+01  0.50278861241E+02  0.12156508901E+02  0.52231965825E+02  0.00000000000E+00 0.  1.
         21    1    1    2  505  501  0.33325653382E+02 -0.13386043531E+03  0.26970690588E+03  0.30293733740E+03  0.00000000000E+00 0.  1.
          3    1    1    2  501    0 -0.34414486703E+02  0.30651885431E+02 -0.26958776519E+02  0.53391671700E+02  0.00000000000E+00 0. -1.
<scales pt_clust_3="57.19242" pt_clust_4="79.27599" pt_clust_5="14000.00000" pt_clust_6="46.08574"></scales>
<clustering>
<clus scale="   46.086">  2  6  1 -1</clus>
<clus scale="   57.192">  1  3  2 -1</clus>
<clus scale="   79.276">  2  4  1 -1</clus>
<clus scale="   57.192">  1  3  2 -1</clus>
</clustering>
</event>
<event>
 6    0  0.1631680E+002  0.9618844E+02  0.7546771E-02  0.1288522E+00
         21   -1    0    0  503  502  0.00000000000E+00  0.00000000000E+00  0.29685961463E+03  0.29685961463E+03  0.00000000000E+00 0.  1.
          2   -1    0    0  504    0 -0.00000000000E+00 -0.00000000000E+00 -0.56816044586E+03  0.56816044586E+03  0.00000000000E+00 0. -1.
         21    1    1    2  503  501  0.58334019821E+02  0.96423417733E+02  0.13930163831E+03  0.17917946253E+03  0.00000000000E+00 0.  1.
         21    1    1    2  504  505  0.18153296345E+02  0.28980504977E+02 -0.24196697720E+02  0.41891431313E+02  0.00000000000E+00 0.  1.
         21    1    1    2  505  502 -0.62433595902E+02 -0.18735462254E+01  0.11310089366E+03  0.12920246213E+03  0.00000000000E+00 0.  1.
          2    1    1    2  501    0 -0.14053720264E+02 -0.12353037648E+03 -0.49950666547E+03  0.51474670453E+03  0.00000000000E+00 0. -1.
<scales pt_clust_3="96.18844" pt_clust_4="34.19666" pt_clust_5="62.17710" pt_clust_6="14000.00000"></scales>
<clustering>
<clus scale="   34.197">  2  4  1 -1</clus>
<clus scale="   62.177">  1  5  2 -1</clus>
<clus scale="   96.188">  1  3  2 -1</clus>
<clus scale="   62.177">  1  3  2 -1</clus>
</clustering>
</event>
<event>
 6    0  0.1631680E+002  0.1067102E+03  0.7546771E-02  0.1266786E+00
          2   -1    0    0  504    0 -0.00000000000E+00  0.00000000000E+00  0.12382473855E+04  0.12382473855E+04  0.00000000000E+00 0. -1.
         21   -1    0    0  503  502  0.00000000000E+00 -0.00000000000E+00 -0.18402871294E+03  0.18402871294E+03  0.00000000000E+00 0.  1.
         21    1    1    2  503  501 -0.92646754851E+02  0.54949261166E+02 -0.13896717983E+03  0.17582582164E+03  0.00000000000E+00 0.  1.
         21    1    1    2  504  505  0.47026066521E+02 -0.39230951301E+02  0.21216490253E+03  0.22082677450E+03  0.00000000000E+00 0. -1.
         21    1    1    2  505  502  0.62880848827E+02 -0.86488257595E+02  0.11686758180E+03  0.15840533932E+03  0.00000000000E+00 0. -1.
          2    1    1    2  501    0 -0.17260160498E+02  0.70769947729E+02  0.86415336804E+03  0.86721816294E+03  0.00000000000E+00 0. -1.
<scales pt_clust_3="14000.00000" pt_clust_4="61.24148" pt_clust_5="106.71021" pt_clust_6="43.80168"></scales>
<clustering>
<clus scale="   61.241">  1  4  2 -1</clus>
<clus scale="   43.802">  1  6  2 -1</clus>
<clus scale="  106.710">  1  5  2 -1</clus>
<clus scale="  106.710">  2  3  1 -1</clus>
</clustering>
</event>
<event>
 6    0  0.1631680E+002  0.1011046E+03  0.7546771E-02  0.1277990E+00
         -1   -1    0    0    0  501 -0.00000000000E+00  0.00000000000E+00  0.69336893567E+03  0.69336893567E+03  0.00000000000E+00 0. -1.
         21   -1    0    0  504  502  0.00000000000E+00 -0.00000000000E+00 -0.65372091715E+03  0.65372091715E+03  0.00000000000E+00 0. -1.
         21    1    1    2  503  501  0.51850565816E+02  0.22175289189E+02  0.12913357268E+03  0.14091027010E+03  0.00000000000E+00 0.  1.
         21    1    1    2  504  503 -0.10473244128E+03  0.44280677793E+02 -0.28501992584E+03  0.30686482498E+03  0.00000000000E+00 0.  1.
         21    1    1    2  505  502  0.94392266325E+02 -0.11831778991E+02 -0.34324543592E+03  0.35618439075E+03  0.00000000000E+00 0. -1.
         -1    1    1    2    0  505 -0.41510390864E+02 -0.54624187991E+02  0.53877980761E+03  0.54313036700E+03  0.00000000000E+00 0. -1.
<scales pt_clust_3="56.39348" pt_clust_4="101.10460" pt_clust_5="14000.00000" pt_clust_6="34.26897"></scales>
<clustering>
<clus scale="   56.393">  1  3  2 -1</clus>
<clus scale="   34.269">  1  6  2 -1</clus>
<clus scale="  101.105">  1  4  2 -1</clus>
<clus scale="  101.105">  2  3  1 -1</clus>
</clustering>
</event>
<event>
 6    0  0.1631680E+002  0.6076892E+02  0.7546771E-02  0.1394633E+00
          2   -1    0    0  504    0 -0.00000000000E+00  0.00000000000E+00  0.21232074517E+04  0.21232074517E+04  0.00000000000E+00 0.  1.
         21   -1    0    0  505  502  0.00000000000E+00 -0.00000000000E+00 -0.10629354685E+03  0.10629354685E+03  0.00000000000E+00 0.  1.
         21    1    1    2  503  502  0.19753896891E+02 -0.36021227792E+02 -0.17169090704E+02  0.44525531661E+02  0.00000000000E+00 0.  1.
         21    1    1    2  504  503 -0.64817761100E+02  0.69593291644E+02 -0.37787880810E+02  0.10233519596E+03  0.00000000000E+00 0.  1.
         21    1    1    2  505  501  0.47984234436E+02 -0.68312283142E+02  0.32917435844E+03  0.33959507216E+03  0.00000000000E+00 0.  1.
          2    1    1    2  501    0 -0.29203702277E+01  0.34740219290E+02  0.17426965180E+04  0.17430451988E+04  0.00000000000E+00 0.  1.
<scales pt_clust_3="39.93945" pt_clust_4="14000.00000" pt_clust_5="60.76892" pt_clust_6="34.86275"></scales>
<clustering>
<clus scale="   34.863">  1  6  2 -1</clus>
<clus scale="   39.939">  2  3  1 -1</clus>
<clus scale="   60.769">  1  5  2 -1</clus>
<clus scale="   39.939">  2  3  1 -1</clus>
</clustering>
</event>
<event>
 6    0  0.1631680E+002  0.6177608E+02  0.7546771E-02  0.1390526E+00
          2   -1    0    0  504    0 -0.00000000000E+00  0.00000000000E+00  0.22028041744E+04  0.22028041744E+04  0.00000000000E+00 0.  1.
         21   -1    0    0  505  502  0.00000000000E+00 -0.00000000000E+00 -0.59020684944E+02  0.59020684944E+02  0.00000000000E+00 0. -1.
         21    1    1    2  503  502 -0.10083886951E+02  0.32051598154E+02  0.31494372473E+02  0.46053069580E+02  0.00000000000E+00 0.  1.
         21    1    1    2  504  503  0.51236136030E+02 -0.25068978438E+02  0.14437615500E+04  0.14448878879E+04  0.00000000000E+00 0.  1.
         21    1    1    2  505  501  0.23279215390E+02 -0.68338546245E+02 -0.21355728529E+02  0.75287089949E+02  0.00000000000E+00 0. -1.
          2    1    1    2  501    0 -0.64431464469E+02  0.61355926529E+02  0.68988329557E+03  0.69559681198E+03  0.00000000000E+00 0.  1.
<scales pt_clust_3="33.60044" pt_clust_4="61.77608" pt_clust_5="40.83049" pt_clust_6="14000.00000"></scales>
<clustering>
<clus scale="   33.600">  2  3  1 -1</clus>
<clus scale="   40.830">  2  5  1 -1</clus>
<clus scale="   61.776">  1  4  2 -1</clus>
<clus scale="   33.600">  2  3  1 -1</clus>
</clustering>
</event>
<event>
 6    0  0.1631680E+002  0.1995796E+03  0.7546771E-02  0.1150094E+00
          2   -1    0    0  505    0 -0.00000000000E+00  0.00000000000E+00  0.64872808807E+03  0.64872808807E+03  0.00000000000E+00 0. -1.
         21   -1    0    0  503  502  0.00000000000E+00 -0.00000000000E+00 -0.41905863638E+03  0.41905863638E+03  0.00000000000E+00 0. -1.
         21    1    1    2  503  501  0.13423460255E+03 -0.18356529378E+03 -0.24247923136E+03  0.33243243410E+03  0.00000000000E+00 0. -1.
         21    1    1    2  504  502 -0.68847586925E+02  0.15040192197E+03 -0.57756603253E+02  0.17520431952E+03  0.00000000000E+00 0. -1.
         21    1    1    2  505  504  0.78562509989E+01 -0.34119629843E+02  0.19361757106E+02  0.40009342142E+02  0.00000000000E+00 0. -1.
          2    1    1    2  501    0 -0.73243266623E+02  0.67283001645E+02  0.51054352919E+03  0.52014062869E+03  0.00000000000E+00 0. -1.
<scales pt_clust_3="199.57964" pt_clust_4="14000.00000" pt_clust_5="35.01242" pt_clust_6="77.20672"></scales>
<clustering>
<clus scale="   35.012">  1  5  2 -1</clus>
<clus scale="   77.207">  1  6  2 -1</clus>
<clus scale="  199.580">  2  3  1 -1</clus>
<clus scale="  199.580">  2  3  1 -1</clus>
</clustering>
</event>
<event>
 6    0  0.1631680E+002  0.8849763E+02  0.7546771E-02  0.1306531E+00
          1   -1    0    0  503    0 -0.00000000000E+00  0.00000000000E+00  0.12153304974E+04  0.12153304974E+04  0.00000000000E+00 0. -1.
         21   -1    0    0  504  502  0.00000000000E+00 -0.00000000000E+00 -0.31502310681E+02  0.31502310681E+02  0.00000000000E+00 0.  1.
         21    1    1    2  503  505  0.70957016857E+02  0.12314690748E+02  0.23607536220E+03  0.24681597697E+03  0.00000000000E+00 0.  1.
         21    1    1    2  504  501  0.57687406159E+02 -0.52609277851E+02  0.11622958341E+03  0.14001745964E+03  0.00000000000E+00 0.  1.
         21    1    1    2  505  502 -0.31936615631E+02  0.91419055725E+01  0.13772657059E+02  0.35961200452E+02  0.00000000000E+00 0.  1.
          1    1    1    2  501    0 -0.96707807386E+02  0.31152681530E+02  0.81775058406E+03  0.82403817102E+03  0.00000000000E+00 0. -1.
<scales pt_clust_3="14000.00000" pt_clust_4="61.33794" pt_clust_5="33.21930" pt_clust_6="88.49763"></scales>
<clustering>
<clus scale="   33.219">  2  5  1 -1</clus>
<clus scale="   61.338">  2  4  1 -1</clus>
<clus scale="   88.498">  1  6  2 -1</clus>
<clus scale="   33.219">  2  3  1 -1</clus>
</clustering>
</event>
<event>
 6    0  0.1631680E+002  0.1243817E+03  0.7546771E-02  0.1236039E+00
          2   -1    0    0  503    0 -0.00000000000E+00  0.00000000000E+00  0.30424734872E+04  0.30424734872E+04  0.00000000000E+00 0. -1.
         21   -1    0    0  504  502  0.00000000000E+00 -0.00000000000E+00 -0.19904908911E+04  0.19904908911E+04  0.00000000000E+00 0. -1.
         21    1    1    2  503  502  0.19132033069E+02  0.67846769412E+02 -0.15368849775E+04  0.15385007810E+04  0.00000000000E+00 0. -1.
         21    1    1    2  504  505  0.58173450784E+02  0.46220607921E+02 -0.42759583203E+03  0.43400309970E+03  0.00000000000E+00 0. -1.
         21    1    1    2  505  501 -0.17491582671E+02 -0.78655124136E+02  0.53586362214E+02  0.96768188123E+02  0.00000000000E+00 0.  1.
          2    1    1    2  501    0 -0.59813901182E+02 -0.35412253197E+02  0.29628770435E+04  0.29636923095E+04  0.00000000000E+00 0. -1.
<scales pt_clust_3="69.98105" pt_clust_4="124.38172" pt_clust_5="14000.00000" pt_clust_6="69.51065"></scales>
<clustering>
<clus scale="   69.511">  1  6  2 -1</clus>
<clus scale="   69.981">  2  3  1 -1</clus>
<clus scale="  124.382">  2  4  1 -1</clus>
<clus scale="   69.981">  2  3  1 -1</clus>
</clustering>
</event>
<event>
 6    0  0.1631680E+002  0.6643187E+02  0.7546771E-02  0.1372665E+00
         21   -1    0    0  505  502  0.00000000000E+00  0.00000000000E+00  0.67903593910E+03  0.67903593910E+03  0.00000000000E+00 0. -1.
         -1   -1    0    0    0  501 -0.00000000000E+00 -0.00000000000E+00 -0.27965841388E+03  0.27965841388E+03  0.00000000000E+00 0.  1.
         21    1    1    2  503  502 -0.30034719650E+02  0.12360981966E+02  0.57291449629E+03  0.57383438231E+03  0.00000000000E+00 0. -1.
         21    1    1    2  504  503  0.73311703084E+02  0.34800010868E+02  0.68861090748E+02  0.10643071166E+03  0.00000000000E+00 0.  1.
         21    1    1    2  505  501 -0.32492991076E+02  0.38456164152E+02 -0.99072578430E+02  0.11113076454E+03  0.00000000000E+00 0.  1.
         -1    1    1    2    0  504 -0.10783992357E+02 -0.85617156986E+02 -0.14332548339E+03  0.16729849446E+03  0.00000000000E+00 0.  1.
<scales pt_clust_3="32.47889" pt_clust_4="66.43187" pt_clust_5="51.99737" pt_clust_6="14000.00000"></scales>
<clustering>
<clus scale="   32.479">  1  3  2 -1</clus>
<clus scale="   51.997">  2  5  1 -1</clus>
<clus scale="   66.432">  1  4  2 -1</clus>
<clus scale="   32.479">  1  3  2 -1</clus>
</clustering>
</event>
<event>
 6    0  0.1631680E+002  0.2587276E+03  0.7546771E-02  0.1107910E+00
          2   -1    0    0  502    0 -0.00000000000E+00  0.00000000000E+00  0.19934418583E+04  0.19934418583E+04  0.00000000000E+00 0. -1.
         21   -1    0    0  504  502  0.00000000000E+00 -0.00000000000E+00 -0.77480761096E+02  0.77480761096E+02  0.00000000000E+00 0. -1.
         21    1    1    2  503  501 -0.97614380118E+02 -0.40889209229E+02  0.13849716830E+03  0.17430421757E+03  0.00000000000E+00 0. -1.
         21    1    1    2  504  505 -0.38341417742E+02 -0.42870581678E+02 -0.23671260492E+02  0.62195495505E+02  0.00000000000E+00 0. -1.
         21    1    1    2  505  503 -0.89862872123E+02 -0.26395638543E+02  0.38953050897E+03  0.40063210423E+03  0.00000000000E+00 0. -1.
          2    1    1    2  501    0  0.22581866998E+03  0.11015542945E+03  0.14116046804E+04  0.14337908021E+04  0.00000000000E+00 0. -1.
<scales pt_clust_3="95.88092" pt_clust_4="57.51479" pt_clust_5="95.88092" pt_clust_6="234.25710"></scales>
<clustering>
<clus scale="   57.515">  2  4  1 -1</clus>
<clus scale="   95.881">  3  5 -1 -1</clus>
<clus scale="  234.257">  1  6  2 -1</clus>
<clus scale="   57.515">  2  3  1 -1</clus>
</clustering>
</event>
<event>
 6    0  0.1631680E+002  0.1323010E+03  0.7546771E-02  0.1224081E+00
         21   -1    0    0  505  502  0.00000000000E+00  0.00000000000E+00  0.70855898093E+03  0.70855898093E+03  0.00000000000E+00 0.  1.
          1   -1    0    0  504    0 -0.00000000000E+00 -0.00000000000E+00 -0.49394685822E+03  0.49394685822E+03  0.00000000000E+00 0.  1.
         21    1    1    2  503  502  0.19763091977E+03  0.23833644222E+02  0.17956565764E+03  0.26808552450E+03  0.00000000000E+00 0. -1.
         21    1    1    2  504  503  0.32882793170E+02  0.38436796489E+02 -0.15423662860E+03  0.16231944743E+03  0.00000000000E+00 0.  1.
         21    1    1    2  505  501 -0.11870309888E+03 -0.21464724543E+02  0.46043576959E+03  0.47597506027E+03  0.00000000000E+00 0.  1.
          1    1    1    2  501    0 -0.11181061406E+03 -0.40805716168E+02 -0.27115267592E+03  0.29612580696E+03  0.00000000000E+00 0.  1.
<scales pt_clust_3="14000.00000" pt_clust_4="50.58325" pt_clust_5="132.30100" pt_clust_6="84.43632"></scales>
<clustering>
<clus scale="   50.583">  2  4  1 -1</clus>
<clus scale="   84.436">  2  6  1 -1</clus>
<clus scale="  132.301">  1  5  2 -1</clus>
<clus scale="  132.301">  1  3  2 -1</clus>
</clustering>
</event>
<event>
 6    0  0.1631680E+002  0.1800540E+03  0.7546771E-02  0.1167751E+00
         -4   -1    0    0    0  501 -0.00000000000E+00  0.00000000000E+00  0.68284691543E+03  0.68284691543E+03  0.00000000000E+00 0.  1.
         21   -1    0    0  504  502  0.00000000000E+00 -0.00000000000E+00 -0.41983116005E+03  0.41983116005E+03  0.00000000000E+00 0.  1.
         21    1    1    2  503  502 -0.61481968069E+02  0.38401018003E+02 -0.30752731849E+03  0.31595525348E+03  0.00000000000E+00 0.  1.
         21    1    1    2  504  505 -0.68330624426E+01 -0.45933307852E+02 -0.28292913460E+02  0.54378750120E+02  0.00000000000E+00 0.  1.
         21    1    1    2  505  501 -0.16127622210E+03 -0.22897499281E+02  0.38115012774E+03  0.41449937897E+03  0.00000000000E+00 0.  1.
         -4    1    1    2    0  503  0.22959125261E+03  0.30429789130E+02  0.21768585959E+03  0.31784469291E+03  0.00000000000E+00 0.  1.
<scales pt_clust_3="67.11232" pt_clust_4="46.43877" pt_clust_5="14000.00000" pt_clust_6="180.05396"></scales>
<clustering>
<clus scale="   46.439">  2  4  1 -1</clus>
<clus scale="   67.112">  2  3  1 -1</clus>
<clus scale="  180.054">  2  6  1 -1</clus>
<clus scale="   46.439">  2  3  1 -1</clus>
</clustering>
</event>
<event>
 6    0  0.1631680E+002  0.7445272E+02  0.7546771E-02  0.1345574E+00
         21   -1    0    0  504  502  0.00000000000E+00  0.00000000000E+00  0.18485556287E+03  0.18485556287E+03  0.00000000000E+00 0.  1.
          1   -1    0    0  503    0 -0.00000000000E+00 -0.00000000000E+00 -0.28542932681E+04  0.28542932681E+04  0.00000000000E+00 0.  1.
         21    1    1    2  503  505 -0.23020366421E+01  0.88537472440E+02 -0.21295390217E+02  0.91091586018E+02  0.00000000000E+00 0. -1.
         21    1    1    2  504  501  0.57926705098E+02  0.64323388406E+00 -0.12599134819E+03  0.13867132628E+03  0.00000000000E+00 0. -1.
         21    1    1    2  505  502  0.40358768087E+01 -0.40589033527E+02  0.14015421822E+03  0.14596904750E+03  0.00000000000E+00 0.  1.
          1    1    1    2  501    0 -0.59660545265E+02 -0.48591672797E+02 -0.26623051851E+04  0.26634168712E+04  0.00000000000E+00 0.  1.
<scales pt_clust_3="54.65590" pt_clust_4="14000.00000" pt_clust_5="40.78919" pt_clust_6="74.45272"></scales>
<clustering>
<clus scale="   40.789">  1  5  2 -1</clus>
<clus scale="   54.656">  1  3  2 -1</clus>
<clus scale="   74.453">  2  6  1 -1</clus>
<clus scale="   40.789">  1  3  2 -1</clus>
</clustering>
</event>
<event>
 6    0  0.1631680E+002  0.1212611E+03  0.7546771E-02  0.1241031E+00
         21   -1    0    0  503  502  0.00000000000E+00  0.00000000000E+00  0.13177727632E+03  0.13177727632E+03  0.00000000000E+00 0.  1.
          2   -1    0    0  505    0 -0.00000000000E+00 -0.00000000000E+00 -0.16894979277E+04  0.16894979277E+04  0.00000000000E+00 0.  1.
         21    1    1    2  503  501  0.21791574531E+02  0.29990198154E+02  0.69090320565E+02  0.78407634205E+02  0.00000000000E+00 0.  1.
         21    1    1    2  504  502 -0.65883954953E+02 -0.13362892898E+03 -0.63023559412E+02  0.16176945083E+03  0.00000000000E+00 0.  1.
         21    1    1    2  505  504  0.23418679479E+01 -0.61838737847E+02 -0.36150925628E+03  0.36676757793E+03  0.00000000000E+00 0.  1.
          2    1    1    2  501    0  0.41750512474E+02  0.16547746868E+03 -0.12022781563E+04  0.12143305411E+04  0.00000000000E+00 0.  1.
<scales pt_clust_3="37.07135" pt_clust_4="121.26115" pt_clust_5="60.57150" pt_clust_6="14000.00000"></scales>
<clustering>
<clus scale="   37.071">  1  3  2 -1</clus>
<clus scale="   60.571">  2  5  1 -1</clus>
<clus scale="  121.261">  1  4  2 -1</clus>
<clus scale="   37.071">  1  3  2 -1</clus>
</clustering>
</event>
<event>
 6    0  0.1631680E+002  0.1137186E+03  0.7546771E-02  0.1253835E+00
         -4   -1    0    0    0  501 -0.00000000000E+00  0.00000000000E+00  0.20666116560E+03  0.20666116560E+03  0.00000000000E+00 0.  1.
         21   -1    0    0  503  502  0.00000000000E+00 -0.00000000000E+00 -0.13188066369E+04  0.13188066369E+04  0.00000000000E+00 0. -1.
         21    1    1    2  503  504  0.12562831272E+02  0.54300650536E+02 -0.85822041878E+02  0.10233185355E+03  0.00000000000E+00 0.  1.
         21    1    1    2  504  501 -0.26033067992E+02  0.44843572306E+02  0.10011634405E+03  0.11274727913E+03  0.00000000000E+00 0.  1.
         21    1    1    2  505  502  0.85143531719E+02 -0.78860325880E+02 -0.12000599347E+04  0.12056584172E+04  0.00000000000E+00 0. -1.
         -4    1    1    2    0  505 -0.71673294999E+02 -0.20283896962E+02  0.73620161210E+02  0.10473025269E+03  0.00000000000E+00 0.  1.
<scales pt_clust_3="58.92242" pt_clust_4="51.85235" pt_clust_5="113.71859" pt_clust_6="14000.00000"></scales>
<clustering>
<clus scale="   51.852">  1  4  2 -1</clus>
<clus scale="   58.922">  1  3  2 -1</clus>
<clus scale="  113.719">  2  5  1 -1</clus>
<clus scale="  113.719">  2  3  1 -1</clus>
</clustering>
</event>
<event>
 6    0  0.1631680E+002  0.1470972E+03  0.7546771E-02  0.1204086E+00
         21   -1    0    0  505  502  0.00000000000E+00  0.00000000000E+00  0.70486044295E+02  0.70486044295E+02  0.00000000000E+00 0.  1.
          1   -1    0    0  503    0 -0.00000000000E+00 -0.00000000000E+00 -0.34226585385E+04  0.34226585385E+04  0.00000000000E+00 0. -1.
         21    1    1    2  503  504  0.45362926526E+01 -0.32251862160E+02 -0.26536101219E+03  0.26735225332E+03  0.00000000000E+00 0. -1.
         21    1    1    2  504  502  0.69310750447E+02  0.16303355047E+03 -0.72692413413E+02  0.19148917900E+03  0.00000000000E+00 0.  1.
         21    1    1    2  505  501 -0.62857142625E+02 -0.14437744094E+02 -0.10768772625E+03  0.12552336523E+03  0.00000000000E+00 0.  1.
          1    1    1    2  501    0 -0.10989900474E+02 -0.11634394421E+03 -0.29064313423E+04  0.29087797852E+04  0.00000000000E+00 0. -1.
<scales pt_clust_3="32.56932" pt_clust_4="14000.00000" pt_clust_5="64.60846" pt_clust_6="147.09717"></scales>
<clustering>
<clus scale="   32.569">  2  3  1 -1</clus>
<clus scale="   64.608">  1  5  2 -1</clus>
<clus scale="  147.097">  2  6  1 -1</clus>
<clus scale="   64.608">  1  3  2 -1</clus>
</clustering>
</event>
<event>
 6    0  0.1631680E+002  0.1348718E+03  0.7546771E-02  0.1220401E+00
         21   -1    0    0  504  502  0.00000000000E+00  0.00000000000E+00  0.65425837363E+03  0.65425837363E+03  0.00000000000E+00 0. -1.
          1   -1    0    0  505    0 -0.00000000000E+00 -0.00000000000E+00 -0.18912447772E+03  0.18912447772E+03  0.00000000000E+00 0. -1.
         21    1    1    2  503  501 -0.72276900277E+02 -0.12593005163E+03  0.26551577709E+03  0.30262345597E+03  0.00000000000E+00 0.  1.
         21    1    1    2  504  503 -0.71669416005E+02  0.75059690496E+02  0.30788286227E+03  0.32490355370E+03  0.00000000000E+00 0. -1.
         21    1    1    2  505  502  0.53016260627E+02  0.37384327509E+02  0.10453848036E+02  0.65708407171E+02  0.00000000000E+00 0. -1.
          1    1    1    2  501    0  0.90930055654E+02  0.13486033623E+02 -0.11871859149E+03  0.15014743451E+03  0.00000000000E+00 0. -1.
<scales pt_clust_3="134.87185" pt_clust_4="103.33166" pt_clust_5="64.87150" pt_clust_6="14000.00000"></scales>
<clustering>
<clus scale="   64.872">  2  5  1 -1</clus>
<clus scale="  103.332">  1  4  2 -1</clus>
<clus scale="  134.872">  1  3  2 -1</clus>
<clus scale="  103.332">  1  3  2 -1</clus>
</clustering>
</event>
<event>
 6    0  0.1631680E+002  0.2136454E+03  0.7546771E-02  0.1138711E+00
         21   -1    0    0  501  502  0.00000000000E+00  0.00000000000E+00  0.83987402189E+02  0.83987402189E+02  0.00000000000E+00 0. -1.
          2   -1    0    0  505    0 -0.00000000000E+00 -0.00000000000E+00 -0.20744334482E+04  0.20744334482E+04  0.00000000000E+00 0. -1.
         21    1    1    2  503  504  0.89517688093E+02 -0.70049028075E+01  0.88816490543E+01  0.90229534160E+02  0.00000000000E+00 0. -1.
         21    1    1    2  504  502  0.12755971283E+02  0.27440339470E+02 -0.12870942695E+02  0.32883859254E+02  0.00000000000E+00 0. -1.
         21    1    1    2  505  503  0.97110125085E+02  0.15094621463E+03 -0.74506370574E+03  0.76637788441E+03  0.00000000000E+00 0. -1.
          2    1    1    2  501    0 -0.19938378446E+03 -0.17138165129E+03 -0.12413930466E+04  0.12689295726E+04  0.00000000000E+00 0. -1.
<scales pt_clust_3="98.71981" pt_clust_4="30.26032" pt_clust_5="14000.00000" pt_clust_6="213.64542"></scales>
<clustering>
<clus scale="   30.260">  1  4  2 -1</clus>
<clus scale="   98.720">  1  3  2 -1</clus>
<clus scale="  213.645">  1  6  2 -1</clus>
<clus scale="   30.260">  1  3  2 -1</clus>
</clustering>
</event>
<event>
 6    0  0.1631680E+002  0.6683182E+02  0.7546771E-02  0.1371210E+00
         21   -1    0    0  501  502  0.00000000000E+00  0.00000000000E+00  0.13057646158E+04  0.13057646158E+04  0.00000000000E+00 0.  1.
         -2   -1    0    0    0  501 -0.00000000000E+00 -0.00000000000E+00 -0.99421939277E+02  0.99421939277E+02  0.00000000000E+00 0.  1.
         21    1    1    2  503  502  0.60257251403E+02  0.43667383288E+01  0.85263073282E+03  0.85476848988E+03  0.00000000000E+00 0.  1.
         21    1    1    2  504  505  0.45058424945E+02  0.18258036703E+02  0.75412519776E+01  0.49198455709E+02  0.00000000000E+00 0.  1.
         21    1    1    2  505  503 -0.11853613706E+03  0.12024616742E+02  0.41023991869E+03  0.42719105571E+03  0.00000000000E+00 0.  1.
         -2    1    1    2    0  504  0.13220460710E+02 -0.34649391773E+02 -0.64069226955E+02  0.74028553776E+02  0.00000000000E+00 0.  1.
<scales pt_clust_3="14000.00000" pt_clust_4="54.40352" pt_clust_5="66.83182" pt_clust_6="37.08586"></scales>
<clustering>
<clus scale="   37.086">  2  6  1 -1</clus>
<clus scale="   54.404">  2  4  1 -1</clus>
<clus scale="   66.832">  2  5  1 -1</clus>
<clus scale="   66.832">  1  3  2 -1</clus>
</clustering>
</event>
<event>
 6    0  0.1631680E+002  0.7454504E+02  0.7546771E-02  0.1345286E+00
         21   -1    0    0  504  502  0.00000000000E+00  0.00000000000E+00  0.54137637337E+02  0.54137637337E+02  0.00000000000E+00 0. -1.
          3   -1    0    0  502    0 -0.00000000000E+00 -0.00000000000E+00 -0.13782575355E+04  0.13782575355E+04  0.00000000000E+00 0.  1.
         21    1    1    2  503  501  0.11079856233E+03 -0.77471859783E+02 -0.99089369807E+02  0.16762134017E+03  0.00000000000E+00 0. -1.
         21    1    1    2  504  505 -0.16818127894E+02  0.35915356266E+02 -0.83595542473E+02  0.92525547623E+02  0.00000000000E+00 0. -1.
         21    1    1    2  505  503 -0.47077576580E+02 -0.13856234536E+02 -0.28102322286E+02  0.56551162411E+02  0.00000000000E+00 0.  1.
          3    1    1    2  501    0 -0.46902857854E+02  0.55412738053E+02 -0.11133326636E+04  0.11156971226E+04  0.00000000000E+00 0.  1.
<scales pt_clust_3="74.54504" pt_clust_4="39.65807" pt_clust_5="52.01642" pt_clust_6="14000.00000"></scales>
<clustering>
<clus scale="   39.658">  1  4  2 -1</clus>
<clus scale="   52.016">  1  5  2 -1</clus>
<clus scale="   74.545">  1  3  2 -1</clus>
<clus scale="   39.658">  1  3  2 -1</clus>
</clustering>
</event>
<event>
 6    0  0.1631680E+002  0.1135989E+03  0.7546771E-02  0.1254047E+00
          2   -1    0    0  505    0 -0.00000000000E+00  0.00000000000E+00  0.27180250241E+04  0.27180250241E+04  0.00000000000E+00 0. -1.
         21   -1    0    0  504  502  0.00000000000E+00 -0.00000000000E+00 -0.38747846024E+03  0.38747846024E+03  0.00000000000E+00 0. -1.
         21    1    1    2  503  502 -0.17036731780E+02  0.38760662530E+02 -0.26643004635E+03  0.26977325440E+03  0.00000000000E+00 0. -1.
         21    1    1    2  504  501  0.62820985856E+02  0.67203822457E+02 -0.95261357892E+02  0.13242943904E+03  0.00000000000E+00 0. -1.
         21    1    1    2  505  503  0.29498881194E+02 -0.56007757277E+02  0.20796976822E+03  0.21739015010E+03  0.00000000000E+00 0. -1.
          2    1    1    2  501    0 -0.75283135270E+02 -0.49956727710E+02  0.24842681999E+04  0.24859106408E+04  0.00000000000E+00 0. -1.
<scales pt_clust_3="42.33957" pt_clust_4="14000.00000" pt_clust_5="61.63500" pt_clust_6="113.59893"></scales>
<clustering>
<clus scale="   42.340">  2  3  1 -1</clus>
<clus scale="   61.635">  1  5  2 -1</clus>
<clus scale="  113.599">  1  6  2 -1</clus>
<clus scale="   42.340">  2  3  1 -1</clus>
</clustering>
</event>
<event>
 6    0  0.1631680E+002  0.7602272E+02  0.7546771E-02  0.1340733E+00
         21   -1    0    0  505  502  0.00000000000E+00  0.00000000000E+00  0.33146188919E+03  0.33146188919E+03  0.00000000000E+00 0. -1.
          2   -1    0    0  504    0 -0.00000000000E+00 -0.00000000000E+00 -0.22390901772E+04  0.22390901772E+04  0.00000000000E+00 0.  1.
         21    1    1    2  503  501  0.32025868941E+02 -0.19418329525E+02 -0.67086744413E+02  0.76833320109E+02  0.00000000000E+00 0. -1.
         21    1    1    2  504  502 -0.33520090448E+02  0.12000590376E+03 -0.13035368577E+03  0.18032497552E+03  0.00000000000E+00 0. -1.
         21    1    1    2  505  503 -0.18894766012E+02 -0.28750092020E+02  0.29992632605E+03  0.30189299600E+03  0.00000000000E+00 0. -1.
          2    1    1    2  501    0  0.20388987519E+02 -0.71837482215E+02 -0.20101141839E+04  0.20115007748E+04  0.00000000000E+00 0.  1.
<scales pt_clust_3="37.65498" pt_clust_4="76.02272" pt_clust_5="34.40320" pt_clust_6="14000.00000"></scales>
<clustering>
<clus scale="   34.403">  1  5  2 -1</clus>
<clus scale="   37.655">  1  3  2 -1</clus>
<clus scale="   76.023">  1  4  2 -1</clus>
<clus scale="   34.403">  1  3  2 -1</clus>
</clustering>
</event>
<event>
 6    0  0.1631680E+002  0.5603279E+02  0.7546771E-02  0.1415277E+00
         21   -1    0    0  505  502  0.00000000000E+00  0.00000000000E+00  0.52331450504E+03  0.52331450504E+03  0.00000000000E+00 0. -1.
          2   -1    0    0  504    0 -0.00000000000E+00 -0.00000000000E+00 -0.18303656993E+04  0.18303656993E+04  0.00000000000E+00 0. -1.
         21    1    1    2  503  501 -0.59540904493E+02 -0.79446805778E+02 -0.78773271592E+02  0.12673650845E+03  0.00000000000E+00 0. -1.
         21    1    1    2  504  502 -0.39783052209E+02 -0.27709046269E+02 -0.22242053397E+03  0.22764308998E+03  0.00000000000E+00 0.  1.
         21    1    1    2  505  503  0.41872935013E+02  0.36294955402E+02  0.49378578752E+03  0.49688536951E+03  0.00000000000E+00 0. -1.
          2    1    1    2  501    0  0.57451021690E+02  0.70860896645E+02 -0.14996431763E+04  0.15024152364E+04  0.00000000000E+00 0. -1.
<scales pt_clust_3="56.03279" pt_clust_4="48.48177" pt_clust_5="14000.00000" pt_clust_6="49.30394"></scales>
<clustering>
<clus scale="   48.482">  2  4  1 -1</clus>
<clus scale="   49.304">  2  6  1 -1</clus>
<clus scale="   56.033">  2  3  1 -1</clus>
<clus scale="   56.033">  1  3  2 -1</clus>
</clustering>
</event>
<event>
 6    0  0.1631680E+002  0.1399088E+03  0.7546771E-02  0.1213452E+00
         21   -1    0    0  504  502  0.00000000000E+00  0.00000000000E+00  0.26904321389E+03  0.26904321389E+03  0.00000000000E+00 0. -1.
         -1   -1    0    0    0  501 -0.00000000000E+00 -0.00000000000E+00 -0.19029197663E+04  0.19029197663E+04  0.00000000000E+00 0. -1.
         21    1    1    2  503  502  0.14778480810E+03 -0.82999300306E+00  0.11203996114E+03  0.18545617079E+03  0.00000000000E+00 0. -1.
         21    1    1    2  504  501  0.55900335198E+01 -0.38307977859E+02  0.10205547142E+03  0.10915158674E+03  0.00000000000E+00 0. -1.
         21    1    1    2  505  503 -0.89337863555E+02 -0.70776557859E-01 -0.12997043808E+03  0.15771358105E+03  0.00000000000E+00 0. -1.
         -1    1    1    2    0  505 -0.64036978064E+02  0.39208747420E+02 -0.17180015469E+04  0.17196416416E+04  0.00000000000E+00 0. -1.
<scales pt_clust_3="14000.00000" pt_clust_4="38.71369" pt_clust_5="139.90882" pt_clust_6="74.96288"></scales>
<clustering>
<clus scale="   38.714">  1  4  2 -1</clus>
<clus scale="   74.963">  2  6  1 -1</clus>
<clus scale="  139.909">  2  5  1 -1</clus>
<clus scale="   38.714">  1  3  2 -1</clus>
</clustering>
</event>
<event>
 6    0  0.1631680E+002  0.1048609E+03  0.7546771E-02  0.1270394E+00
         21   -1    0    0  503  502  0.00000000000E+00  0.00000000000E+00  0.74565958148E+02  0.74565958148E+02  0.00000000000E+00 0. -1.
         -2   -1    0    0    0  501 -0.00000000000E+00 -0.00000000000E+00 -0.78102917110E+03  0.78102917110E+03  0.00000000000E+00 0. -1.
         21    1    1    2  503  501  0.69705313583E+02 -0.56181314197E+01 -0.86917751308E+02  0.11155756198E+03  0.00000000000E+00 0. -1.
         21    1    1    2  504  502  0.30116974926E+02 -0.81806272423E+01  0.34470149666E+02  0.46498882339E+02  0.00000000000E+00 0. -1.
         21    1    1    2  505  504  0.18410876264E+02  0.54028035464E+02 -0.37026323379E+02  0.68036296224E+02  0.00000000000E+00 0. -1.
         -2    1    1    2    0  505 -0.11823316477E+03 -0.40229276802E+02 -0.61698928793E+03  0.62950238870E+03  0.00000000000E+00 0. -1.
<scales pt_clust_3="14000.00000" pt_clust_4="31.20825" pt_clust_5="59.68188" pt_clust_6="104.86088"></scales>
<clustering>
<clus scale="   31.208">  1  4  2 -1</clus>
<clus scale="   59.682">  1  5  2 -1</clus>
<clus scale="  104.861">  2  6  1 -1</clus>
<clus scale="   31.208">  1  3  2 -1</clus>
</clustering>
</event>
<event>
 6    0  0.1631680E+002  0.1292222E+03  0.7546771E-02  0.1228614E+00
         21   -1    0    0  501  502  0.00000000000E+00  0.00000000000E+00  0.36685844513E+03  0.36685844513E+03  0.00000000000E+00 0.  1.
          2   -1    0    0  504    0 -0.00000000000E+00 -0.00000000000E+00 -0.15509668351E+04  0.15509668351E+04  0.00000000000E+00 0.  1.
         21    1    1    2  503  502 -0.61372832849E+02 -0.33968556434E+02  0.21620862091E+03  0.22730300305E+03  0.00000000000E+00 0.  1.
         21    1    1    2  504  505 -0.78834868013E+02 -0.65506463125E+02 -0.14434310913E+03  0.17703379982E+03  0.00000000000E+00 0.  1.
         21    1    1    2  505  503 -0.35045991756E+02 -0.43474923827E+02  0.11295443210E+03  0.12600394546E+03  0.00000000000E+00 0. -1.
          2    1    1    2  501    0  0.17525369262E+03  0.14294994339E+03 -0.13689283338E+04  0.13874845319E+04  0.00000000000E+00 0.  1.
<scales pt_clust_3="30.69328" pt_clust_4="102.49894" pt_clust_5="30.69328" pt_clust_6="124.55913"></scales>
<clustering>
<clus scale="   30.693">  3  5 -1 -1</clus>
<clus scale="  102.499">  2  4  1 -1</clus>
<clus scale="  124.559">  2  6  1 -1</clus>
<clus scale="  129.222">  1  3  2 -1</clus>
</clustering>
</event>
<event>
 6    0  0.1631680E+002  0.1621037E+03  0.7546771E-02  0.1186342E+00
          2   -1    0    0  504    0 -0.00000000000E+00  0.00000000000E+00  0.70443909340E+03  0.70443909340E+03  0.00000000000E+00 0. -1.
         21   -1    0    0  503  502  0.00000000000E+00 -0.00000000000E+00 -0.16301429595E+04  0.16301429595E+04  0.00000000000E+00 0. -1.
         21    1    1    2  503  501 -0.22610629700E+02 -0.61594329493E+02 -0.48448669249E+03  0.48890945706E+03  0.00000000000E+00 0. -1.
         21    1    1    2  504  505 -0.60656525262E+01  0.96112791203E+02  0.16798736331E+03  0.19363422994E+03  0.00000000000E+00 0. -1.
         21    1    1    2  505  502  0.14227780711E+03 -0.50123735965E+02 -0.11191951990E+04  0.11293153930E+04  0.00000000000E+00 0. -1.
          2    1    1    2  501    0 -0.11360152489E+03  0.15605274255E+02  0.50999066208E+03  0.52272297295E+03  0.00000000000E+00 0. -1.
<scales pt_clust_3="65.61328" pt_clust_4="95.63104" pt_clust_5="14000.00000" pt_clust_6="162.10374"></scales>
<clustering>
<clus scale="   65.613">  2  3  1 -1</clus>
<clus scale="   95.631">  1  4  2 -1</clus>
<clus scale="  162.104">  1  6  2 -1</clus>
<clus scale="   65.613">  2  3  1 -1</clus>
</clustering>
</event>
<event>
 6    0  0.1631680E+002  0.6983529E+02  0.7546771E-02  0.1360654E+00
          2   -1    0    0  504    0 -0.00000000000E+00  0.00000000000E+00  0.74668591207E+03  0.74668591207E+03  0.00000000000E+00 0. -1.
         21   -1    0    0  501  502  0.00000000000E+00 -0.00000000000E+00 -0.10192150239E+03  0.10192150239E+03  0.00000000000E+00 0. -1.
         21    1    1    2  503  505  0.60019925672E+02  0.63262799365E+02  0.34721971821E+02  0.93862604845E+02  0.00000000000E+00 0. -1.
         21    1    1    2  504  503  0.30157399545E+02  0.51199250818E+02  0.24929629478E+03  0.25628007067E+03  0.00000000000E+00 0. -1.
         21    1    1    2  505  502 -0.60400338158E+02 -0.27638229044E+02 -0.46448740599E+02  0.81052810300E+02  0.00000000000E+00 0.  1.
          2    1    1    2  501    0 -0.29776987058E+02 -0.86823821139E+02  0.40719488369E+03  0.41741192864E+03  0.00000000000E+00 0. -1.
<scales pt_clust_3="69.83529" pt_clust_4="59.42080" pt_clust_5="14000.00000" pt_clust_6="44.32247"></scales>
<clustering>
<clus scale="   59.421">  1  4  2 -1</clus>
<clus scale="   44.322">  1  6  2 -1</clus>
<clus scale="   69.835">  1  3  2 -1</clus>
<clus scale="   69.835">  2  3  1 -1</clus>
</clustering>
</event>
<event>
 6    0  0.1631680E+002  0.6643761E+02  0.7546771E-02  0.1372644E+00
         21   -1    0    0  504  502  0.00000000000E+00  0.00000000000E+00  0.14524747988E+03  0.14524747988E+03  0.00000000000E+00 0. -1.
         -1   -1    0    0    0  501 -0.00000000000E+00 -0.00000000000E+00 -0.19822901428E+04  0.19822901428E+04  0.00000000000E+00 0. -1.
         21    1    1    2  503  502  0.84612882972E+00  0.40569464708E+02 -0.12261671232E+02  0.42390399645E+02  0.00000000000E+00 0.  1.
         21    1    1    2  504  505  0.61840054114E+02 -0.59023613190E+02  0.11079247481E+03  0.13993909990E+03  0.00000000000E+00 0. -1.
         21    1    1    2  505  501  0.33215811557E+02 -0.85513199655E+01 -0.81028475223E+02  0.87988800466E+02  0.00000000000E+00 0. -1.
         -1    1    1    2    0  503 -0.95901994501E+02  0.27005468448E+02 -0.18545449913E+04  0.18572193227E+04  0.00000000000E+00 0. -1.
<scales pt_clust_3="40.46801" pt_clust_4="14000.00000" pt_clust_5="34.29891" pt_clust_6="66.43761"></scales>
<clustering>
<clus scale="   34.299">  2  5  1 -1</clus>
<clus scale="   40.468">  1  3  2 -1</clus>
<clus scale="   66.438">  2  6  1 -1</clus>
<clus scale="   40.468">  1  3  2 -1</clus>
</clustering>
</event>
<event>
 6    0  0.1631680E+002  0.1838111E+03  0.7546771E-02  0.1164165E+00
          2   -1    0    0  502    0 -0.00000000000E+00  0.00000000000E+00  0.97195592922E+03  0.97195592922E+03  0.00000000000E+00 0.  1.
         21   -1    0    0  503  502  0.00000000000E+00 -0.00000000000E+00 -0.63037012721E+02  0.63037012721E+02  0.00000000000E+00 0.  1.
         21    1    1    2  503  505 -0.14383734322E+02  0.54350779283E+02  0.15818084049E+02  0.58404715603E+02  0.00000000000E+00 0. -1.
         21    1    1    2  504  501  0.78906136516E+02 -0.31551698377E+02  0.15652562942E+03  0.17810659930E+03  0.00000000000E+00 0.  1.
         21    1    1    2  505  504  0.10435198368E+03  0.14009984490E+02  0.12748003935E+03  0.16533837000E+03  0.00000000000E+00 0.  1.
          2    1    1    2  501    0 -0.16887438588E+03 -0.36809065396E+02  0.60909516369E+03  0.63314325704E+03  0.00000000000E+00 0.  1.
<scales pt_clust_3="56.22187" pt_clust_4="52.41590" pt_clust_5="52.41590" pt_clust_6="174.30590"></scales>
<clustering>
<clus scale="   52.416">  4  5 -1 -1</clus>
<clus scale="   56.222">  2  3  1 -1</clus>
<clus scale="  174.306">  1  6  2 -1</clus>
<clus scale="   56.222">  2  3  1 -1</clus>
</clustering>
</event>
<event>
 6    0  0.1631680E+002  0.1360269E+03  0.7546771E-02  0.1218777E+00
          1   -1    0    0  504    0 -0.00000000000E+00  0.00000000000E+00  0.14845145636E+03  0.14845145636E+03  0.00000000000E+00 0.  1.
         21   -1    0    0  503  502  0.00000000000E+00 -0.00000000000E+00 -0.12194135989E+04  0.12194135989E+04  0.00000000000E+00 0. -1.
         21    1    1    2  503  501 -0.13966398038E+01 -0.59865895754E+02 -0.95854213648E+02  0.11302170743E+03  0.00000000000E+00 0. -1.
         21    1    1    2  504  505  0.23985249074E+02  0.82283596927E+02 -0.53186936237E+02  0.10086987996E+03  0.00000000000E+00 0. -1.
         21    1    1    2  505  502  0.73992130856E+02 -0.67143894991E+02 -0.10105450889E+04  0.10154725574E+04  0.00000000000E+00 0. -1.
          1    1    1    2  501    0 -0.96580740126E+02  0.44726193818E+02  0.88624096236E+02  0.13850091050E+03  0.00000000000E+00 0.  1.
<scales pt_clust_3="59.88218" pt_clust_4="81.71746" pt_clust_5="136.02689" pt_clust_6="14000.00000"></scales>
<clustering>
<clus scale="   59.882">  2  3  1 -1</clus>
<clus scale="   81.717">  1  4  2 -1</clus>
<clus scale="  136.027">  2  5  1 -1</clus>
<clus scale="   59.882">  2  3  1 -1</clus>
</clustering>
</event>
<event>
 6    0  0.1631680E+002  0.8634257E+02  0.7546771E-02  0.1311958E+00
          1   -1    0    0  504    0 -0.00000000000E+00  0.00000000000E+00  0.14028230446E+04  0.14028230446E+04  0.00000000000E+00 0. -1.
         21   -1    0    0  503  502  0.00000000000E+00 -0.00000000000E+00 -0.28241595369E+03  0.28241595369E+03  0.00000000000E+00 0.  1.
         21    1    1    2  503  501 -0.60487297450E+02  0.45592193877E+02 -0.15566284308E+03  0.17311349460E+03  0.00000000000E+00 0.  1.
         21    1    1    2  504  505 -0.23589769538E+02 -0.30263522299E+02  0.41779793413E+03  0.41955627963E+03  0.00000000000E+00 0. -1.
         21    1    1    2  505  502  0.11425955516E+03 -0.68737333829E+02 -0.77873257241E+02  0.15441603285E+03  0.00000000000E+00 0.  1.
          1    1    1    2  501    0 -0.30182488169E+02  0.53408662251E+02  0.93614525714E+03  0.93815319125E+03  0.00000000000E+00 0. -1.
<scales pt_clust_3="14000.00000" pt_clust_4="38.37132" pt_clust_5="86.34257" pt_clust_6="58.10560"></scales>
<clustering>
<clus scale="   38.371">  1  4  2 -1</clus>
<clus scale="   58.106">  1  6  2 -1</clus>
<clus scale="   86.343">  1  5  2 -1</clus>
<clus scale="   86.343">  2  3  1 -1</clus>
</clustering>
</event>
<event>
 6    0  0.1631680E+002  0.1115908E+03  0.7546771E-02  0.1257652E+00
         -4   -1    0    0    0  501 -0.00000000000E+00  0.00000000000E+00  0.16088438885E+04  0.16088438885E+04  0.00000000000E+00 0.  1.
         21   -1    0    0  503  502  0.00000000000E+00 -0.00000000000E+00 -0.82485933367E+03  0.82485933367E+03  0.00000000000E+00 0.  1.
         21    1    1    2  503  501  0.31786167376E+02 -0.96821721241E+02  0.98796181627E+02  0.14193481477E+03  0.00000000000E+00 0.  1.
         21    1    1    2  504  502  0.69652948641E+02  0.14662941944E+02 -0.78851504235E+03  0.79172123069E+03  0.00000000000E+00 0.  1.
         21    1    1    2  505  504 -0.54448708516E+01  0.12702594495E+03  0.36932905790E+03  0.39060106287E+03  0.00000000000E+00 0. -1.
         -4    1    1    2    0  505 -0.95994245166E+02 -0.44867165657E+02  0.11043743577E+04  0.11094461139E+04  0.00000000000E+00 0.  1.
<scales pt_clust_3="111.59081" pt_clust_4="71.17960" pt_clust_5="14000.00000" pt_clust_6="100.90987"></scales>
<clustering>
<clus scale="   71.180">  2  4  1 -1</clus>
<clus scale="  100.910">  1  6  2 -1</clus>
<clus scale="  111.591">  2  3  1 -1</clus>
<clus scale="   71.180">  2  3  1 -1</clus>
</clustering>
</event>
<event>
 6    0  0.1631680E+002  0.1224689E+03  0.7546771E-02  0.1239079E+00
          2   -1    0    0  505    0 -0.00000000000E+00  0.00000000000E+00  0.35061465791E+04  0.35061465791E+04  0.00000000000E+00 0. -1.
         21   -1    0    0  504  502  0.00000000000E+00 -0.00000000000E+00 -0.22863721475E+03  0.22863721475E+03  0.00000000000E+00 0.  1.
         21    1    1    2  503  502  0.46490384073E+02 -0.84978036339E+01  0.98366084160E+02  0.10913044942E+03  0.00000000000E+00 0. -1.
         21    1    1    2  504  501 -0.13709817807E+02 -0.30801655958E+02 -0.21654036730E+03  0.21914933672E+03  0.00000000000E+00 0.  1.
         21    1    1    2  505  503  0.89038819921E+02 -0.22438316070E+02  0.55542775299E+03  0.56296658718E+03  0.00000000000E+00 0. -1.
          2    1    1    2  501    0 -0.12181938619E+03  0.61737775661E+02  0.28402558945E+04  0.28435374206E+04  0.00000000000E+00 0. -1.
<scales pt_clust_3="46.27761" pt_clust_4="33.71500" pt_clust_5="122.46890" pt_clust_6="14000.00000"></scales>
<clustering>
<clus scale="   33.715">  2  4  1 -1</clus>
<clus scale="   46.278">  2  3  1 -1</clus>
<clus scale="  122.469">  2  5  1 -1</clus>
<clus scale="   33.715">  2  3  1 -1</clus>
</clustering>
</event>
<event>
 6    0  0.1631680E+002  0.1316212E+03  0.7546771E-02  0.1225070E+00
         21   -1    0    0  504  502  0.00000000000E+00  0.00000000000E+00  0.25270428531E+03  0.25270428531E+03  0.00000000000E+00 0. -1.
          4   -1    0    0  505    0 -0.00000000000E+00 -0.00000000000E+00 -0.22189414434E+03  0.22189414434E+03  0.00000000000E+00 0. -1.
         21    1    1    2  503  502  0.42924662823E+02  0.33390743234E+01  0.74950146136E+01  0.43701845955E+02  0.00000000000E+00 0. -1.
         21    1    1    2  504  501  0.12169685584E+02  0.12115791313E+03  0.25951753463E+02  0.12450234805E+03  0.00000000000E+00 0.  1.
         21    1    1    2  505  503  0.83549442927E+02 -0.13633418737E+03  0.31841808566E+02  0.16303809626E+03  0.00000000000E+00 0. -1.
          4    1    1    2  501    0 -0.13864379133E+03  0.11837199913E+02 -0.34478435672E+02  0.14335613940E+03  0.00000000000E+00 0. -1.
<scales pt_clust_3="43.05434" pt_clust_4="125.07921" pt_clust_5="14000.00000" pt_clust_6="131.62123"></scales>
<clustering>
<clus scale="   43.054">  1  3  2 -1</clus>
<clus scale="  125.079">  1  4  2 -1</clus>
<clus scale="  131.621">  2  6  1 -1</clus>
<clus scale="   43.054">  1  3  2 -1</clus>
</clustering>
</event>
<event>
 6    0  0.1631680E+002  0.1349563E+03  0.7546771E-02  0.1220281E+00
          3   -1    0    0  505    0 -0.00000000000E+00  0.00000000000E+00  0.13556367417E+04  0.13556367417E+04  0.00000000000E+00 0.  1.
         21   -1    0    0  501  502  0.00000000000E+00 -0.00000000000E+00 -0.10272813657E+04  0.10272813657E+04  0.00000000000E+00 0.  1.
         21    1    1    2  503  504 -0.66639045025E+01 -0.17325948226E+03 -0.21075330944E+03  0.27291063236E+03  0.00000000000E+00 0.  1.
         21    1    1    2  504  502  0.70820343977E+02  0.55716057343E+02 -0.76712162976E+03  0.77239587973E+03  0.00000000000E+00 0.  1.
         21    1    1    2  505  503 -0.59098903140E+02 -0.30898305797E+02  0.88277986852E+02  0.11063628978E+03  0.00000000000E+00 0.  1.
          3    1    1    2  501    0 -0.50575363345E+01  0.14844173071E+03  0.12179523284E+04  0.12269753055E+04  0.00000000000E+00 0.  1.
<scales pt_clust_3="14000.00000" pt_clust_4="89.97232" pt_clust_5="66.68872" pt_clust_6="134.95635"></scales>
<clustering>
<clus scale="   66.689">  1  5  2 -1</clus>
<clus scale="   89.972">  2  4  1 -1</clus>
<clus scale="  134.956">  1  6  2 -1</clus>
<clus scale="   89.972">  2  3  1 -1</clus>
</clustering>
</event>
<event>
 6    0  0.1631680E+002  0.1775064E+03  0.7546771E-02  0.1170238E+00
          4   -1    0    0  505    0 -0.00000000000E+00  0.00000000000E+00  0.92738201146E+03  0.92738201146E+03  0.00000000000E+00 0. -1.
         21   -1    0    0  501  502  0.00000000000E+00 -0.00000000000E+00 -0.24213550139E+03  0.24213550139E+03  0.00000000000E+00 0. -1.
         21    1    1    2  503  502  0.73461701505E+02  0.50971365499E+02 -0.13310253570E+03  0.16034645833E+03  0.00000000000E+00 0. -1.
         21    1    1    2  504  503  0.11068719890E+03 -0.95938295283E+02 -0.32685000736E+01  0.14651448937E+03  0.00000000000E+00 0. -1.
         21    1    1    2  505  504 -0.17179427456E+02 -0.45708032950E+02  0.36253939691E+03  0.36581302781E+03  0.00000000000E+00 0. -1.
          4    1    1    2  501    0 -0.16696947295E+03  0.90674962734E+02  0.45907814894E+03  0.49684353734E+03  0.00000000000E+00 0. -1.
<scales pt_clust_3="88.44404" pt_clust_4="14000.00000" pt_clust_5="48.82988" pt_clust_6="177.50643"></scales>
<clustering>
<clus scale="   48.830">  1  5  2 -1</clus>
<clus scale="   88.444">  2  3  1 -1</clus>
<clus scale="  177.506">  1  6  2 -1</clus>
<clus scale="   88.444">  2  3  1 -1</clus>
</clustering>
</event>
<event>
 6    0  0.1631680E+002  0.6360721E+02  0.7546771E-02  0.1383289E+00
          1   -1    0    0  504    0 -0.00000000000E+00  0.00000000000E+00  0.16527796902E+04  0.16527796902E+04  0.00000000000E+00 0. -1.
         21   -1    0    0  503  502  0.00000000000E+00 -0.00000000000E+00 -0.24582088786E+03  0.24582088786E+03  0.00000000000E+00 0. -1.
         21    1    1    2  503  501 -0.40412487413E+02 -0.20415108724E+02 -0.23484819742E+03  0.23917278615E+03  0.00000000000E+00 0. -1.
         21    1    1    2  504  505  0.37649264740E+02  0.41520270506E+02  0.66152871375E+03  0.66389881692E+03  0.00000000000E+00 0. -1.
         21    1    1    2  505  502 -0.67326209560E+02 -0.40532973576E+02  0.74832115618E+03  0.75243623865E+03  0.00000000000E+00 0. -1.
          1    1    1    2  501    0  0.70089432234E+02  0.19427811794E+02  0.23195712983E+03  0.24309273634E+03  0.00000000000E+00 0. -1.
<scales pt_clust_3="45.27633" pt_clust_4="14000.00000" pt_clust_5="63.60721" pt_clust_6="45.02592"></scales>
<clustering>
<clus scale="   45.276">  2  3  1 -1</clus>
<clus scale="   45.026">  2  6  1 -1</clus>
<clus scale="   63.607">  2  5  1 -1</clus>
<clus scale="   45.276">  2  3  1 -1</clus>
</clustering>
</event>
<event>
 6    0  0.1631680E+002  0.8747604E+02  0.7546771E-02  0.1309082E+00
         21   -1    0    0  503  502  0.00000000000E+00  0.00000000000E+00  0.44291743051E+02  0.44291743051E+02  0.00000000000E+00 0.  1.
          2   -1    0    0  505    0 -0.00000000000E+00 -0.00000000000E+00 -0.26913817619E+04  0.26913817619E+04  0.00000000000E+00 0. -1.
         21    1    1    2  503  501  0.39196847885E+02  0.20906254174E+02 -0.11110921462E+03  0.11966086211E+03  0.00000000000E+00 0.  1.
         21    1    1    2  504  502 -0.16302759853E+02  0.63182620098E+02  0.86577311888E+01  0.65823854115E+02  0.00000000000E+00 0.  1.
         21    1    1    2  505  504 -0.23371782898E+02  0.36953381347E+02 -0.47282596021E+03  0.47484332287E+03  0.00000000000E+00 0.  1.
          2    1    1    2  501    0  0.47769486571E+00 -0.12104225562E+03 -0.20718125752E+04  0.20753454659E+04  0.00000000000E+00 0. -1.
<scales pt_clust_3="44.31368" pt_clust_4="87.47604" pt_clust_5="43.72405" pt_clust_6="14000.00000"></scales>
<clustering>
<clus scale="   43.724">  2  5  1 -1</clus>
<clus scale="   44.314">  1  3  2 -1</clus>
<clus scale="   87.476">  1  4  2 -1</clus>
<clus scale="   44.314">  1  3  2 -1</clus>
</clustering>
</event>
<event>
 6    0  0.1631680E+002  0.1472189E+03  0.7546771E-02  0.1203933E+00
          2   -1    0    0  504    0 -0.00000000000E+00  0.00000000000E+00  0.35389341972E+03  0.35389341972E+03  0.00000000000E+00 0.  1.
         21   -1    0    0  505  502  0.00000000000E+00 -0.00000000000E+00 -0.49059868435E+03  0.49059868435E+03  0.00000000000E+00 0. -1.
         21    1    1    2  503  501  0.36860724619E+02  0.45786032010E+02  0.10294490217E+03  0.11854419694E+03  0.00000000000E+00 0. -1.
         21    1    1    2  504  502 -0.15812696157E+03 -0.43342283536E+02 -0.43396437009E+03  0.46390490839E+03  0.00000000000E+00 0. -1.
         21    1    1    2  505  503  0.35726436847E+02  0.55589889353E+01 -0.12370056104E+02  0.38213857902E+02  0.00000000000E+00 0. -1.
          2    1    1    2  501    0  0.85539800106E+02 -0.80027374101E+01  0.20668425940E+03  0.22382914084E+03  0.00000000000E+00 0.  1.
<scales pt_clust_3="58.13898" pt_clust_4="129.35839" pt_clust_5="36.15634" pt_clust_6="58.13898"></scales>
<clustering>
<clus scale="   36.156">  2  5  1 -1</clus>
<clus scale="   58.139">  3  6 -1 -1</clus>
<clus scale="  129.358">  2  4  1 -1</clus>
<clus scale="   36.156">  2  3  1 -1</clus>
</clustering>
</event>
<event>
 6    0  0.1631680E+002  0.9450236E+02  0.7546771E-02  0.1292301E+00
         21   -1    0    0  503  502  0.00000000000E+00  0.00000000000E+00  0.69011316489E+03  0.69011316489E+03  0.00000000000E+00 0. -1.
          2   -1    0    0  504    0 -0.00000000000E+00 -0.00000000000E+00 -0.18041928476E+04  0.18041928476E+04  0.00000000000E+00 0. -1.
         21    1    1    2  503  501  0.10079544012E+03 -0.14356387871E+03  0.46184259270E+03  0.49403328678E+03  0.00000000000E+00 0. -1.
         21    1    1    2  504  505 -0.32003158772E+02  0.90843179100E+01 -0.14268610407E+03  0.14651297314E+03  0.00000000000E+00 0.  1.
         21    1    1    2  505  502 -0.33719682383E+02  0.77174121365E+02  0.20111044763E+03  0.21803273638E+03  0.00000000000E+00 0. -1.
          2    1    1    2  501    0 -0.35072598961E+02  0.57305439433E+02 -0.16343466190E+04  0.16357270162E+04  0.00000000000E+00 0. -1.
<scales pt_clust_3="94.50236" pt_clust_4="33.26751" pt_clust_5="84.32700" pt_clust_6="14000.00000"></scales>
<clustering>
<clus scale="   33.268">  2  4  1 -1</clus>
<clus scale="   84.327">  1  5  2 -1</clus>
<clus scale="   94.502">  1  3  2 -1</clus>
<clus scale="   84.327">  1  3  2 -1</clus>
</clustering>
</event>
<event>
 6    0  0.1631680E+002  0.2461663E+03  0.7546771E-02  0.1115752E+00
          2   -1    0    0  503    0 -0.00000000000E+00  0.00000000000E+00  0.13307103014E+04  0.13307103014E+04  0.00000000000E+00 0.  1.
         21   -1    0    0  505  502  0.00000000000E+00 -0.00000000000E+00 -0.26095212226E+03  0.26095212226E+03  0.00000000000E+00 0. -1.
         21    1    1    2  503  504  0.30099206023E+02  0.41994786495E+02  0.21718222253E+03  0.22324345920E+03  0.00000000000E+00 0. -1.
         21    1    1    2  504  502 -0.74185345160E+02  0.21087151113E+03 -0.13067276081E+03  0.25893170926E+03  0.00000000000E+00 0. -1.
         21    1    1    2  505  501  0.90488036031E+02  0.33606837305E+02  0.13769861718E+02  0.97504426926E+02  0.00000000000E+00 0. -1.
          2    1    1    2  501    0 -0.46401896894E+02 -0.28647313493E+03  0.96947885569E+03  0.10119828283E+04  0.00000000000E+00 0.  1.
<scales pt_clust_3="51.66744" pt_clust_4="246.16626" pt_clust_5="98.68401" pt_clust_6="14000.00000"></scales>
<clustering>
<clus scale="   51.667">  1  3  2 -1</clus>
<clus scale="   98.684">  2  5  1 -1</clus>
<clus scale="  246.166">  2  4  1 -1</clus>
<clus scale="   98.684">  2  3  1 -1</clus>
</clustering>
</event>
<event>
 6    0  0.1631680E+002  0.1886768E+03  0.7546771E-02  0.1159660E+00
         21   -1    0    0  504  502  0.00000000000E+00  0.00000000000E+00  0.46699158123E+03  0.46699158123E+03  0.00000000000E+00 0.  1.
          2   -1    0    0  505    0 -0.00000000000E+00 -0.00000000000E+00 -0.21893365127E+04  0.21893365127E+04  0.00000000000E+00 0. -1.
         21    1    1    2  503  502  0.31147681364E+02 -0.42758229446E+01  0.37027841471E+03  0.37161077099E+03  0.00000000000E+00 0.  1.
         21    1    1    2  504  501 -0.19109781965E+03 -0.62459698914E+02 -0.61165565674E+02  0.21014475270E+03  0.00000000000E+00 0.  1.
         21    1    1    2  505  503 -0.70672236987E+02 -0.81210227870E+02 -0.10525650058E+04  0.10580561221E+04  0.00000000000E+00 0. -1.
          2    1    1    2  501    0  0.23062237527E+03  0.14794574973E+03 -0.97889277471E+03  0.10165164481E+04  0.00000000000E+00 0. -1.
<scales pt_clust_3="31.43980" pt_clust_4="14000.00000" pt_clust_5="107.16565" pt_clust_6="188.67683"></scales>
<clustering>
<clus scale="   31.440">  1  3  2 -1</clus>
<clus scale="  107.166">  2  5  1 -1</clus>
<clus scale="  188.677">  2  6  1 -1</clus>
<clus scale="   31.440">  1  3  2 -1</clus>
</clustering>
</event>
<event>
 6    0  0.1631680E+002  0.7544638E+02  0.7546771E-02  0.1342494E+00
          2   -1    0    0  503    0 -0.00000000000E+00  0.00000000000E+00  0.83653577881E+03  0.83653577881E+03  0.00000000000E+00 0.  1.
         21   -1    0    0  505  502  0.00000000000E+00 -0.00000000000E+00 -0.39704910172E+03  0.39704910172E+03  0.00000000000E+00 0. -1.
         21    1    1    2  503  504  0.20523457499E+02  0.29995833636E+02  0.70487769013E+02  0.79306291829E+02  0.00000000000E+00 0.  1.
         21    1    1    2  504  502  0.73035306661E+02  0.36773434553E+02 -0.35708568250E+03  0.36632857676E+03  0.00000000000E+00 0. -1.
         21    1    1    2  505  501 -0.29977802228E+01 -0.64495964510E+02  0.90279626006E+01  0.65193713141E+02  0.00000000000E+00 0. -1.
          2    1    1    2  501    0 -0.90560983937E+02 -0.22733036789E+01  0.71705662797E+03  0.72275629879E+03  0.00000000000E+00 0.  1.
<scales pt_clust_3="36.34505" pt_clust_4="75.44638" pt_clust_5="63.06607" pt_clust_6="14000.00000"></scales>
<clustering>
<clus scale="   36.345">  1  3  2 -1</clus>
<clus scale="   63.066">  2  5  1 -1</clus>
<clus scale="   75.446">  2  4  1 -1</clus>
<clus scale="   63.066">  2  3  1 -1</clus>
</clustering>
</event>
<event>
 6    0  0.1631680E+002  0.8069963E+02  0.7546771E-02  0.1327078E+00
         21   -1    0    0  504  502  0.00000000000E+00  0.00000000000E+00  0.75358030013E+02  0.75358030013E+02  0.00000000000E+00 0.  1.
         -2   -1    0    0    0  501 -0.00000000000E+00 -0.00000000000E+00 -0.16580117636E+04  0.16580117636E+04  0.00000000000E+00 0. -1.
         21    1    1    2  503  501 -0.18573708383E+02  0.24365060825E+02 -0.77912178663E+02  0.83719450644E+02  0.00000000000E+00 0.  1.
         21    1    1    2  504  503  0.43286980964E+02  0.67801936808E+02  0.26265610103E+02  0.84621200830E+02  0.00000000000E+00 0.  1.
         21    1    1    2  505  502 -0.10431809636E+03 -0.25826554366E+02 -0.17705762017E+03  0.20711995799E+03  0.00000000000E+00 0.  1.
         -2    1    1    2    0  505  0.79604823774E+02 -0.66340443268E+02 -0.13539495449E+04  0.13579091842E+04  0.00000000000E+00 0. -1.
<scales pt_clust_3="30.63721" pt_clust_4="80.69963" pt_clust_5="14000.00000" pt_clust_6="78.16793"></scales>
<clustering>
<clus scale="   30.637">  2  3  1 -1</clus>
<clus scale="   78.168">  2  6  1 -1</clus>
<clus scale="   80.700">  1  4  2 -1</clus>
<clus scale="   80.700">  1  3  2 -1</clus>
</clustering>
</event>
<event>
 6    0  0.1631680E+002  0.1818665E+03  0.7546771E-02  0.1166009E+00
         21   -1    0    0  503  502  0.00000000000E+00  0.00000000000E+00  0.24583988305E+03  0.24583988305E+03  0.00000000000E+00 0. -1.
          2   -1    0    0  505    0 -0.00000000000E+00 -0.00000000000E+00 -0.92538477773E+03  0.92538477773E+03  0.00000000000E+00 0. -1.
         21    1    1    2  503  504  0.17201606445E+03  0.27969602189E+02  0.19755040886E+03  0.26343498081E+03  0.00000000000E+00 0. -1.
         21    1    1    2  504  501 -0.99352289270E+02 -0.57910948208E+02 -0.39482639186E+03  0.41123282337E+03  0.00000000000E+00 0. -1.
         21    1    1    2  505  502  0.75252370381E+01  0.30281482369E+02 -0.22293556416E+03  0.22510855855E+03  0.00000000000E+00 0. -1.
          2    1    1    2  501    0 -0.80189012218E+02 -0.34013635032E+00 -0.25933334753E+03  0.27144829805E+03  0.00000000000E+00 0. -1.
<scales pt_clust_3="174.85747" pt_clust_4="43.48769" pt_clust_5="31.20252" pt_clust_6="43.48769"></scales>
<clustering>
<clus scale="   31.203">  2  5  1 -1</clus>
<clus scale="   43.488">  4  6 -1 -1</clus>
<clus scale="  174.857">  1  3  2 -1</clus>
<clus scale="  174.857">  1  3  2 -1</clus>
</clustering>
</event>
<event>
 6    0  0.1631680E+002  0.1002313E+03  0.7546771E-02  0.1279810E+00
          2   -1    0    0  503    0 -0.00000000000E+00  0.00000000000E+00  0.21539671732E+04  0.21539671732E+04  0.00000000000E+00 0.  1.
         21   -1    0    0  505  502  0.00000000000E+00 -0.00000000000E+00 -0.10484293493E+03  0.10484293493E+03  0.00000000000E+00 0. -1.
         21    1    1    2  503  504  0.34905900318E+02 -0.30925224195E+01  0.11713198324E+04  0.11718439040E+04  0.00000000000E+00 0.  1.
         21    1    1    2  504  502 -0.76934076845E+02 -0.42445352447E+01  0.50591077677E+02  0.92175514102E+02  0.00000000000E+00 0. -1.
         21    1    1    2  505  501  0.17248958436E+02 -0.80452606164E+02 -0.60672304291E+02  0.10223148690E+03  0.00000000000E+00 0. -1.
          2    1    1    2  501    0  0.24779218091E+02  0.87789663828E+02  0.88788563248E+03  0.89255920312E+03  0.00000000000E+00 0.  1.
<scales pt_clust_3="35.04263" pt_clust_4="74.53182" pt_clust_5="100.23129" pt_clust_6="14000.00000"></scales>
<clustering>
<clus scale="   35.043">  1  3  2 -1</clus>
<clus scale="   74.532">  2  4  1 -1</clus>
<clus scale="  100.231">  2  5  1 -1</clus>
<clus scale="   74.532">  2  3  1 -1</clus>
</clustering>
</event>
<event>
 6    0  0.1631680E+002  0.1015259E+03  0.7546771E-02  0.1277120E+00
         21   -1    0    0  501  502  0.00000000000E+00  0.00000000000E+00  0.45526274352E+03  0.45526274352E+03  0.00000000000E+00 0. -1.
          3   -1    0    0  504    0 -0.00000000000E+00 -0.00000000000E+00 -0.15140755569E+03  0.15140755569E+03  0.00000000000E+00 0.  1.
         21    1    1    2  503  505 -0.97212306258E+01  0.50193797246E+02  0.44940526278E+02  0.68070335015E+02  0.00000000000E+00 0. -1.
         21    1    1    2  504  503 -0.21979998879E+02 -0.24470723493E+02 -0.69933493284E+02  0.77282793311E+02  0.00000000000E+00 0.  1.
         21    1    1    2  505  502 -0.51667257692E+02 -0.88081852700E+02  0.34150011232E+03  0.35644108210E+03  0.00000000000E+00 0. -1.
          3    1    1    2  501    0  0.83368487197E+02  0.62358778946E+02 -0.12651957483E+02  0.10487608878E+03  0.00000000000E+00 0.  1.
<scales pt_clust_3="48.33409" pt_clust_4="32.89281" pt_clust_5="14000.00000" pt_clust_6="101.52585"></scales>
<clustering>
<clus scale="   32.893">  2  4  1 -1</clus>
<clus scale="   48.334">  2  3  1 -1</clus>
<clus scale="  101.526">  2  6  1 -1</clus>
<clus scale="  101.526">  1  3  2 -1</clus>
</clustering>
</event>
<event>
 6    0  0.1631680E+002  0.8294715E+02  0.7546771E-02  0.1320890E+00
          2   -1    0    0  505    0 -0.00000000000E+00  0.00000000000E+00  0.25044775974E+04  0.25044775974E+04  0.00000000000E+00 0.  1.
         21   -1    0    0  504  502  0.00000000000E+00 -0.00000000000E+00 -0.65764180761E+03  0.65764180761E+03  0.00000000000E+00 0. -1.
         21    1    1    2  503  501  0.19348682716E+02 -0.57780581267E+02 -0.61035767607E+02  0.86245765240E+02  0.00000000000E+00 0.  1.
         21    1    1    2  504  503 -0.33585938802E+02  0.62050421967E+01  0.21706165925E+02  0.40468203235E+02  0.00000000000E+00 0. -1.
         21    1    1    2  505  502 -0.68278194319E+02  0.60131989304E+02 -0.57031402499E+03  0.57752563152E+03  0.00000000000E+00 0. -1.
          2    1    1    2  501    0  0.82515450405E+02 -0.85564502334E+01  0.24564794164E+04  0.24578798050E+04  0.00000000000E+00 0.  1.
<scales pt_clust_3="59.15169" pt_clust_4="34.15432" pt_clust_5="14000.00000" pt_clust_6="82.94715"></scales>
<clustering>
<clus scale="   34.154">  2  4  1 -1</clus>
<clus scale="   59.152">  2  3  1 -1</clus>
<clus scale="   82.947">  1  6  2 -1</clus>
<clus scale="   34.154">  2  3  1 -1</clus>
</clustering>
</event>
<event>
 6    0  0.1631680E+002  0.2864739E+03  0.7546771E-02  0.1092205E+00
         -4   -1    0    0    0  501 -0.00000000000E+00  0.00000000000E+00  0.12802457381E+04  0.12802457381E+04  0.00000000000E+00 0.  1.
         21   -1    0    0  503  502  0.00000000000E+00 -0.00000000000E+00 -0.11204629418E+04  0.11204629418E+04  0.00000000000E+00 0.  1.
         21    1    1    2  503  504  0.31745186749E+01  0.34800931446E+02 -0.58316477206E+03  0.58421086413E+03  0.00000000000E+00 0.  1.
         21    1    1    2  504  501  0.80826333248E+02  0.22458221064E+03 -0.49290384701E+03  0.54765341949E+03  0.00000000000E+00 0.  1.
         21    1    1    2  505  502  0.16416992387E+02 -0.64542587124E+02  0.23387890418E+03  0.24317607820E+03  0.00000000000E+00 0. -1.
         -4    1    1    2    0  505 -0.10041784431E+03 -0.19484055496E+03  0.10019725112E+04  0.10256683180E+04  0.00000000000E+00 0.  1.
<scales pt_clust_3="34.94542" pt_clust_4="271.59839" pt_clust_5="50.19644" pt_clust_6="50.19644"></scales>
<clustering>
<clus scale="   34.945">  2  3  1 -1</clus>
<clus scale="   50.196">  5  6 -1 -1</clus>
<clus scale="  271.598">  2  4  1 -1</clus>
<clus scale="   34.945">  2  3  1 -1</clus>
</clustering>
</event>
<event>
 6    0  0.1631680E+002  0.1970514E+03  0.7546771E-02  0.1152251E+00
         21   -1    0    0  505  502  0.00000000000E+00  0.00000000000E+00  0.68445556578E+03  0.68445556578E+03  0.00000000000E+00 0. -1.
          2   -1    0    0  502    0 -0.00000000000E+00 -0.00000000000E+00 -0.32877205318E+04  0.32877205318E+04  0.00000000000E+00 0.  1.
         21    1    1    2  503  501 -0.90091605155E+02 -0.14670084242E+03 -0.82698807421E+03  0.84471705876E+03  0.00000000000E+00 0. -1.
         21    1    1    2  504  503 -0.17689416137E+03  0.22569909508E+02  0.17744404529E+02  0.17920884195E+03  0.00000000000E+00 0. -1.
         21    1    1    2  505  504  0.66324135014E+02  0.26865333867E+02  0.56962812029E+03  0.57410524512E+03  0.00000000000E+00 0. -1.
          2    1    1    2  501    0  0.20066163151E+03  0.97265599049E+02 -0.23636494166E+04  0.23741449517E+04  0.00000000000E+00 0.  1.
<scales pt_clust_3="14000.00000" pt_clust_4="127.49701" pt_clust_5="71.55863" pt_clust_6="197.05139"></scales>
<clustering>
<clus scale="   71.559">  1  5  2 -1</clus>
<clus scale="  127.497">  1  4  2 -1</clus>
<clus scale="  197.051">  2  6  1 -1</clus>
<clus scale="   71.559">  1  3  2 -1</clus>
</clustering>
</event>
<event>
 6    0  0.1631680E+002  0.2372708E+03  0.7546771E-02  0.1121624E+00
         21   -1    0    0  503  502  0.00000000000E+00  0.00000000000E+00  0.16094423398E+03  0.16094423398E+03  0.00000000000E+00 0.  1.
          2   -1    0    0  504    0 -0.00000000000E+00 -0.00000000000E+00 -0.10336874880E+04  0.10336874880E+04  0.00000000000E+00 0.  1.
         21    1    1    2  503  505 -0.70985357185E+02 -0.70392300432E+02 -0.28128291479E+01  0.10000954406E+03  0.00000000000E+00 0.  1.
         21    1    1    2  504  502  0.68666492635E+01 -0.29494495033E+02 -0.12601248905E+03  0.12960024501E+03  0.00000000000E+00 0.  1.
         21    1    1    2  505  501 -0.10877437279E+03 -0.75207896380E+02  0.44160002086E+02  0.13942093687E+03  0.00000000000E+00 0.  1.
          2    1    1    2  501    0  0.17289308071E+03  0.17509469184E+03 -0.78807793790E+03  0.82560099605E+03  0.00000000000E+00 0.  1.
<scales pt_clust_3="39.97729" pt_clust_4="30.28326" pt_clust_5="39.97729" pt_clust_6="232.79404"></scales>
<clustering>
<clus scale="   30.283">  2  4  1 -1</clus>
<clus scale="   39.977">  3  5 -1 -1</clus>
<clus scale="  232.794">  2  6  1 -1</clus>
<clus scale="  237.271">  1  3  2 -1</clus>
</clustering>
</event>
<event>
 6    0  0.1631680E+002  0.2112354E+03  0.7546771E-02  0.1140591E+00
         21   -1    0    0  504  502  0.00000000000E+00  0.00000000000E+00  0.44524836786E+03  0.44524836786E+03  0.00000000000E+00 0. -1.
          1   -1    0    0  505    0 -0.00000000000E+00 -0.00000000000E+00 -0.16506443016E+04  0.16506443016E+04  0.00000000000E+00 0.  1.
         21    1    1    2  503  502 -0.45375217063E+02  0.87262574997E+02 -0.35499450092E+03  0.36836770082E+03  0.00000000000E+00 0.  1.
         21    1    1    2  504  501  0.67865736431E+02  0.30627735908E+02  0.41253492309E+03  0.41920028525E+03  0.00000000000E+00 0. -1.
         21    1    1    2  505  503 -0.65107576507E+02  0.83340502202E+02 -0.20602591004E+03  0.23158435058E+03  0.00000000000E+00 0.  1.
          1    1    1    2  501    0  0.42617057139E+02 -0.20123081311E+03 -0.10569104459E+04  0.10767403328E+04  0.00000000000E+00 0.  1.
<scales pt_clust_3="60.12196" pt_clust_4="74.45681" pt_clust_5="60.12196" pt_clust_6="201.82592"></scales>
<clustering>
<clus scale="   60.122">  3  5 -1 -1</clus>
<clus scale="   74.457">  1  4  2 -1</clus>
<clus scale="  201.826">  2  6  1 -1</clus>
<clus scale="   74.457">  1  3  2 -1</clus>
</clustering>
</event>
<event>
 6    0  0.1631680E+002  0.1186184E+03  0.7546771E-02  0.1245394E+00
          2   -1    0    0  504    0 -0.00000000000E+00  0.00000000000E+00  0.11882255363E+04  0.11882255363E+04  0.00000000000E+00 0. -1.
         21   -1    0    0  505  502  0.00000000000E+00 -0.00000000000E+00 -0.11830334404E+03  0.11830334404E+03  0.00000000000E+00 0.  1.
         21    1    1    2  503  501 -0.60997586989E+02 -0.54087070562E+02  0.11435655296E+03  0.14044051419E+03  0.00000000000E+00 0. -1.
         21    1    1    2  504  502 -0.30662281175E+02  0.45026023231E+01  0.19323532266E+01  0.31051294716E+02  0.00000000000E+00 0.  1.
         21    1    1    2  505  503 -0.13510558805E+02 -0.27343585255E+02 -0.83942411658E+02  0.89311451274E+02  0.00000000000E+00 0.  1.
          2    1    1    2  501    0  0.10517042697E+03  0.76928053493E+02  0.10375756977E+04  0.10457256202E+04  0.00000000000E+00 0. -1.
<scales pt_clust_3="118.61841" pt_clust_4="37.74395" pt_clust_5="30.49929" pt_clust_6="14000.00000"></scales>
<clustering>
<clus scale="   30.499">  2  5  1 -1</clus>
<clus scale="   37.744">  2  4  1 -1</clus>
<clus scale="  118.618">  2  3  1 -1</clus>
<clus scale="   30.499">  2  3  1 -1</clus>
</clustering>
</event>
<event>
 6    0  0.1631680E+002  0.6639357E+02  0.7546771E-02  0.1372805E+00
         21   -1    0    0  504  502  0.00000000000E+00  0.00000000000E+00  0.10075496824E+03  0.10075496824E+03  0.00000000000E+00 0.  1.
          2   -1    0    0  505    0 -0.00000000000E+00 -0.00000000000E+00 -0.10896353290E+04  0.10896353290E+04  0.00000000000E+00 0. -1.
         21    1    1    2  503  502  0.53095579165E+02 -0.19131155655E+02 -0.24134714972E+02  0.61380991442E+02  0.00000000000E+00 0. -1.
         21    1    1    2  504  501 -0.29837897286E+02  0.76577112119E+02  0.53833215675E+02  0.98246472328E+02  0.00000000000E+00 0.  1.
         21    1    1    2  505  503  0.12348304146E+02  0.42652431751E+02 -0.46243033342E+03  0.46455734180E+03  0.00000000000E+00 0. -1.
          2    1    1    2  501    0 -0.35605986025E+02 -0.10009838822E+03 -0.55614852805E+03  0.56620549169E+03  0.00000000000E+00 0. -1.
<scales pt_clust_3="56.32438" pt_clust_4="66.39357" pt_clust_5="44.40395" pt_clust_6="14000.00000"></scales>
<clustering>
<clus scale="   44.404">  2  5  1 -1</clus>
<clus scale="   56.324">  1  3  2 -1</clus>
<clus scale="   66.394">  1  4  2 -1</clus>
<clus scale="   56.324">  1  3  2 -1</clus>
</clustering>
</event>
<event>
 6    0  0.1631680E+002  0.7950222E+02  0.7546771E-02  0.1330470E+00
          2   -1    0    0  504    0 -0.00000000000E+00  0.00000000000E+00  0.29511199018E+03  0.29511199018E+03  0.00000000000E+00 0. -1.
         21   -1    0    0  503  502  0.00000000000E+00 -0.00000000000E+00 -0.13169794867E+03  0.13169794867E+03  0.00000000000E+00 0.  1.
         21    1    1    2  503  501  0.55416098292E+01 -0.44533152136E+02 -0.29942028081E+02  0.53948458034E+02  0.00000000000E+00 0.  1.
         21    1    1    2  504  505  0.30647844100E+02 -0.23731611003E+02  0.15942616315E+03  0.16407065918E+03  0.00000000000E+00 0. -1.
         21    1    1    2  505  502  0.52050182835E+02 -0.13715799114E+02 -0.40359868404E+02  0.67277512261E+02  0.00000000000E+00 0.  1.
          2    1    1    2  501    0 -0.88239636764E+02  0.81980562253E+02  0.74289774852E+02  0.14151330938E+03  0.00000000000E+00 0. -1.
<scales pt_clust_3="47.40141" pt_clust_4="38.76183" pt_clust_5="79.50222" pt_clust_6="14000.00000"></scales>
<clustering>
<clus scale="   38.762">  1  4  2 -1</clus>
<clus scale="   47.401">  2  3  1 -1</clus>
<clus scale="   79.502">  2  5  1 -1</clus>
<clus scale="   47.401">  2  3  1 -1</clus>
</clustering>
</event>
<event>
 6    0  0.1631680E+002  0.1081759E+03  0.7546771E-02  0.1263986E+00
         21   -1    0    0  501  502  0.00000000000E+00  0.00000000000E+00  0.42299427228E+03  0.42299427228E+03  0.00000000000E+00 0. -1.
          1   -1    0    0  503    0 -0.00000000000E+00 -0.00000000000E+00 -0.87406837321E+03  0.87406837321E+03  0.00000000000E+00 0.  1.
         21    1    1    2  503  505 -0.48629773562E+01  0.55775483985E+02 -0.10269476561E+03  0.11696481542E+03  0.00000000000E+00 0. -1.
         21    1    1    2  504  502 -0.28098690237E+02 -0.49308209729E+02  0.36890643125E+03  0.37324628726E+03  0.00000000000E+00 0. -1.
         21    1    1    2  505  504 -0.33007146668E+02 -0.57165181092E+02  0.16760980801E+02  0.68104773239E+02  0.00000000000E+00 0. -1.
          1    1    1    2  501    0  0.65968814261E+02  0.50697906837E+02 -0.73404674737E+03  0.73874676956E+03  0.00000000000E+00 0.  1.
<scales pt_clust_3="55.98708" pt_clust_4="56.62173" pt_clust_5="108.17588" pt_clust_6="14000.00000"></scales>
<clustering>
<clus scale="   55.987">  2  3  1 -1</clus>
<clus scale="   56.622">  1  4  2 -1</clus>
<clus scale="  108.176">  1  5  2 -1</clus>
<clus scale="   56.622">  1  3  2 -1</clus>
</clustering>
</event>
<event>
 6    0  0.1631680E+002  0.7539374E+02  0.7546771E-02  0.1342656E+00
         21   -1    0    0  504  502  0.00000000000E+00  0.00000000000E+00  0.10894330850E+03  0.10894330850E+03  0.00000000000E+00 0. -1.
          2   -1    0    0  505    0 -0.00000000000E+00 -0.00000000000E+00 -0.25099634122E+04  0.25099634122E+04  0.00000000000E+00 0. -1.
         21    1    1    2  503  501 -0.68981896174E+02  0.20131516739E+02 -0.54250992386E+03  0.54724838734E+03  0.00000000000E+00 0. -1.
         21    1    1    2  504  503  0.73805978462E+02 -0.54710763063E+02 -0.10119497172E+03  0.13667849996E+03  0.00000000000E+00 0. -1.
         21    1    1    2  505  502 -0.38588904763E+02 -0.14851193411E+02  0.83507796614E+02  0.93183762598E+02  0.00000000000E+00 0. -1.
          2    1    1    2  501    0  0.33764822475E+02  0.49430439734E+02 -0.18408230047E+04  0.18417960708E+04  0.00000000000E+00 0. -1.
<scales pt_clust_3="75.39374" pt_clust_4="14000.00000" pt_clust_5="41.34805" pt_clust_6="59.06057"></scales>
<clustering>
<clus scale="   41.348">  1  5  2 -1</clus>
<clus scale="   59.061">  2  6  1 -1</clus>
<clus scale="   75.394">  2  3  1 -1</clus>
<clus scale="   41.348">  1  3  2 -1</clus>
</clustering>
</event>
<event>
 6    0  0.1631680E+002  0.7655781E+02  0.7546771E-02  0.1339114E+00
         21   -1    0    0  503  502  0.00000000000E+00  0.00000000000E+00  0.68913717758E+02  0.68913717758E+02  0.00000000000E+00 0. -1.
          3   -1    0    0  504    0 -0.00000000000E+00 -0.00000000000E+00 -0.10371834150E+04  0.10371834150E+04  0.00000000000E+00 0.  1.
         21    1    1    2  503  501  0.78220693439E+01  0.42060471707E+02 -0.45656553944E+02  0.62568274445E+02  0.00000000000E+00 0. -1.
         21    1    1    2  504  505 -0.62392568384E+02  0.66866303886E+02 -0.19349048700E+02  0.93478986252E+02  0.00000000000E+00 0. -1.
         21    1    1    2  505  502  0.88856790360E+01 -0.48272850012E+02 -0.58525974896E+01  0.49431530803E+02  0.00000000000E+00 0. -1.
          3    1    1    2  501    0  0.45684820005E+02 -0.60653925582E+02 -0.89741149714E+03  0.90061834128E+03  0.00000000000E+00 0.  1.
<scales pt_clust_3="42.78163" pt_clust_4="14000.00000" pt_clust_5="35.12173" pt_clust_6="76.55781"></scales>
<clustering>
<clus scale="   42.782">  1  3  2 -1</clus>
<clus scale="   35.122">  1  5  2 -1</clus>
<clus scale="   76.558">  2  6  1 -1</clus>
<clus scale="   42.782">  1  3  2 -1</clus>
</clustering>
</event>
<event>
 6    0  0.1631680E+002  0.1665370E+03  0.7546771E-02  0.1181508E+00
         21   -1    0    0  501  502  0.00000000000E+00  0.00000000000E+00  0.13634137005E+02  0.13634137005E+02  0.00000000000E+00 0.  1.
          2   -1    0    0  505    0 -0.00000000000E+00 -0.00000000000E+00 -0.38887177155E+04  0.38887177155E+04  0.00000000000E+00 0.  1.
         21    1    1    2  503  504 -0.43703582337E+02 -0.37242513382E+02 -0.34043484654E+03  0.34524323694E+03  0.00000000000E+00 0.  1.
         21    1    1    2  504  502 -0.89028653580E+02 -0.49889023763E+02 -0.30008486151E+03  0.31696362561E+03  0.00000000000E+00 0.  1.
         21    1    1    2  505  503 -0.11718907860E+02  0.34020151390E+02 -0.67444984339E+03  0.67540898332E+03  0.00000000000E+00 0.  1.
          2    1    1    2  501    0  0.14445114378E+03  0.53111385755E+02 -0.25601140271E+04  0.25647360067E+04  0.00000000000E+00 0.  1.
<scales pt_clust_3="41.02095" pt_clust_4="41.02095" pt_clust_5="35.98199" pt_clust_6="157.13653"></scales>
<clustering>
<clus scale="   35.982">  2  5  1 -1</clus>
<clus scale="   41.021">  3  4 -1 -1</clus>
<clus scale="  157.137">  2  6  1 -1</clus>
<clus scale="  166.537">  1  3  2 -1</clus>
</clustering>
</event>
<event>
 6    0  0.1631680E+002  0.8964293E+02  0.7546771E-02  0.1303719E+00
          4   -1    0    0  503    0 -0.00000000000E+00  0.00000000000E+00  0.12853116526E+03  0.12853116526E+03  0.00000000000E+00 0. -1.
         21   -1    0    0  504  502  0.00000000000E+00 -0.00000000000E+00 -0.26714463705E+03  0.26714463705E+03  0.00000000000E+00 0. -1.
         21    1    1    2  503  505 -0.24952529739E+02  0.31736711666E+02  0.31894921654E+02  0.51450302575E+02  0.00000000000E+00 0. -1.
         21    1    1    2  504  501  0.57482579882E+02  0.91834235035E+02 -0.16284607524E+03  0.19559299051E+03  0.00000000000E+00 0. -1.
         21    1    1    2  505  502 -0.76304141253E+01 -0.70423562960E+02 -0.40279467126E+02  0.81487035236E+02  0.00000000000E+00 0. -1.
          4    1    1    2  501    0 -0.24899636018E+02 -0.53147383742E+02  0.32617148935E+02  0.67145473988E+02  0.00000000000E+00 0. -1.
<scales pt_clust_3="40.37137" pt_clust_4="14000.00000" pt_clust_5="89.64293" pt_clust_6="52.52107"></scales>
<clustering>
<clus scale="   40.371">  1  3  2 -1</clus>
<clus scale="   52.521">  1  6  2 -1</clus>
<clus scale="   89.643">  1  5  2 -1</clus>
<clus scale="   89.643">  2  3  1 -1</clus>
</clustering>
</event>
<event>
 6    0  0.1631680E+002  0.2288272E+03  0.7546771E-02  0.1127468E+00
         21   -1    0    0  503  502  0.00000000000E+00  0.00000000000E+00  0.19997343314E+03  0.19997343314E+03  0.00000000000E+00 0. -1.
          2   -1    0    0  504    0 -0.00000000000E+00 -0.00000000000E+00 -0.20248576295E+04  0.20248576295E+04  0.00000000000E+00 0. -1.
         21    1    1    2  503  501 -0.18573039407E+03 -0.10980438173E+03  0.10124081260E+03  0.23833271631E+03  0.00000000000E+00 0. -1.
         21    1    1    2  504  505 -0.39578006815E+01  0.83787814815E+02 -0.11196965895E+03  0.13990449107E+03  0.00000000000E+00 0. -1.
         21    1    1    2  505  502 -0.36812503980E+02 -0.13814351602E+02 -0.35011359193E+02  0.52647811275E+02  0.00000000000E+00 0. -1.
          2    1    1    2  501    0  0.22650069873E+03  0.39830918512E+02 -0.17791439908E+04  0.17939460440E+04  0.00000000000E+00 0. -1.
<scales pt_clust_3="14000.00000" pt_clust_4="83.04492" pt_clust_5="39.31917" pt_clust_6="228.82724"></scales>
<clustering>
<clus scale="   39.319">  1  5  2 -1</clus>
<clus scale="   83.045">  1  4  2 -1</clus>
<clus scale="  228.827">  2  6  1 -1</clus>
<clus scale="   39.319">  1  3  2 -1</clus>
</clustering>
</event>
<event>
 6    0  0.1631680E+002  0.9358771E+02  0.7546771E-02  0.1294389E+00
          4   -1    0    0  502    0 -0.00000000000E+00  0.00000000000E+00  0.32505385206E+03  0.32505385206E+03  0.00000000000E+00 0. -1.
         21   -1    0    0  505  502  0.00000000000E+00 -0.00000000000E+00 -0.24403451520E+04  0.24403451520E+04  0.00000000000E+00 0.  1.
         21    1    1    2  503  504 -0.37335738715E+02  0.63199282719E+01 -0.35664984917E+03  0.35865444901E+03  0.00000000000E+00 0. -1.
         21    1    1    2  504  501  0.86658869623E+02  0.44258163701E+02  0.13511930614E+03  0.16651057513E+03  0.00000000000E+00 0. -1.
         21    1    1    2  505  503  0.28867130808E+01  0.30688169354E+02 -0.20534083566E+04  0.20536396898E+04  0.00000000000E+00 0.  1.
          4    1    1    2  501    0 -0.52209843989E+02 -0.81266261327E+02  0.15964759962E+03  0.18659429012E+03  0.00000000000E+00 0. -1.
<scales pt_clust_3="49.04543" pt_clust_4="14000.00000" pt_clust_5="30.82364" pt_clust_6="93.58771"></scales>
<clustering>
<clus scale="   30.824">  2  5  1 -1</clus>
<clus scale="   49.045">  2  3  1 -1</clus>
<clus scale="   93.588">  1  6  2 -1</clus>
<clus scale="   30.824">  2  3  1 -1</clus>
</clustering>
</event>
<event>
 6    0  0.1631680E+002  0.9444217E+02  0.7546771E-02  0.1292437E+00
          2   -1    0    0  503    0 -0.00000000000E+00  0.00000000000E+00  0.63310457931E+03  0.63310457931E+03  0.00000000000E+00 0.  1.
         21   -1    0    0  504  502  0.00000000000E+00 -0.00000000000E+00 -0.31272396603E+03  0.31272396603E+03  0.00000000000E+00 0.  1.
         21    1    1    2  503  502  0.30378599599E+02 -0.64662794518E+01 -0.11985676250E+02  0.33291568283E+02  0.00000000000E+00 0. -1.
         21    1    1    2  504  505  0.36672537974E+02  0.47650041020E+02 -0.26812266929E+03  0.27478203587E+03  0.00000000000E+00 0.  1.
         21    1    1    2  505  501 -0.67610043650E+02  0.64241244269E+02  0.16350944214E+03  0.18823759756E+03  0.00000000000E+00 0. -1.
          2    1    1    2  501    0  0.55890607708E+00 -0.10542500584E+03  0.43697951667E+03  0.44951734363E+03  0.00000000000E+00 0.  1.
<scales pt_clust_3="31.05917" pt_clust_4="77.25590" pt_clust_5="14000.00000" pt_clust_6="94.44217"></scales>
<clustering>
<clus scale="   31.059">  2  3  1 -1</clus>
<clus scale="   77.256">  2  4  1 -1</clus>
<clus scale="   94.442">  1  6  2 -1</clus>
<clus scale="   31.059">  2  3  1 -1</clus>
</clustering>
</event>
<event>
 6    0  0.1631680E+002  0.1042937E+03  0.7546771E-02  0.1271517E+00
         21   -1    0    0  504  502  0.00000000000E+00  0.00000000000E+00  0.91564674212E+03  0.91564674212E+03  0.00000000000E+00 0.  1.
         -2   -1    0    0    0  501 -0.00000000000E+00 -0.00000000000E+00 -0.23384565832E+03  0.23384565832E+03  0.00000000000E+00 0.  1.
         21    1    1    2  503  505 -0.93813923276E+02  0.17463514429E+02  0.53693469444E+03  0.54534841398E+03  0.00000000000E+00 0.  1.
         21    1    1    2  504  503 -0.67403328757E+01 -0.54487482948E+02  0.32659446536E+03  0.33117708660E+03  0.00000000000E+00 0.  1.
         21    1    1    2  505  501  0.17841572275E+02  0.34665362317E+02  0.27672750899E+02  0.47809938173E+02  0.00000000000E+00 0. -1.
         -2    1    1    2    0  502  0.82712683877E+02  0.23586062016E+01 -0.20940082689E+03  0.22515696169E+03  0.00000000000E+00 0.  1.
<scales pt_clust_3="104.29373" pt_clust_4="54.52829" pt_clust_5="38.98729" pt_clust_6="14000.00000"></scales>
<clustering>
<clus scale="   38.987">  2  5  1 -1</clus>
<clus scale="   54.528">  1  4  2 -1</clus>
<clus scale="  104.294">  1  3  2 -1</clus>
<clus scale="   54.528">  1  3  2 -1</clus>
</clustering>
</event>
<event>
 6    0  0.1631680E+002  0.1464128E+03  0.7546771E-02  0.1204951E+00
         -4   -1    0    0    0  501 -0.00000000000E+00  0.00000000000E+00  0.68435809863E+03  0.68435809863E+03  0.00000000000E+00 0. -1.
         21   -1    0    0  504  502  0.00000000000E+00 -0.00000000000E+00 -0.15228174499E+04  0.15228174499E+04  0.00000000000E+00 0.  1.
         21    1    1    2  503  505 -0.85579461735E+02 -0.94965880644E+02 -0.89141425434E+03  0.90053413905E+03  0.00000000000E+00 0.  1.
         21    1    1    2  504  501 -0.88157827841E+02  0.52681152770E+02  0.10559500663E+03  0.14730041375E+03  0.00000000000E+00 0. -1.
         21    1    1    2  505  502  0.25406281657E+02 -0.39682139677E+02 -0.59205677120E+03  0.59392875977E+03  0.00000000000E+00 0.  1.
         -4    1    1    2    0  503  0.14833100792E+03  0.81966867551E+02  0.53941666762E+03  0.56541223597E+03  0.00000000000E+00 0. -1.
<scales pt_clust_3="146.41280" pt_clust_4="101.75460" pt_clust_5="47.11848" pt_clust_6="14000.00000"></scales>
<clustering>
<clus scale="   47.118">  2  5  1 -1</clus>
<clus scale="  101.755">  1  4  2 -1</clus>
<clus scale="  146.413">  2  3  1 -1</clus>
<clus scale="   47.118">  2  3  1 -1</clus>
</clustering>
</event>
<event>
 6    0  0.1631680E+002  0.7738641E+02  0.7546771E-02  0.1336636E+00
         21   -1    0    0  503  502  0.00000000000E+00  0.00000000000E+00  0.12323115938E+04  0.12323115938E+04  0.00000000000E+00 0. -1.
         -2   -1    0    0    0  501 -0.00000000000E+00 -0.00000000000E+00 -0.57631194850E+02  0.57631194850E+02  0.00000000000E+00 0. -1.
         21    1    1    2  503  504  0.90590425835E+02  0.11063971455E+03  0.30434911567E+03  0.33626798227E+03  0.00000000000E+00 0. -1.
         21    1    1    2  504  501 -0.37303669036E+02  0.77170979341E+01  0.76449346106E+02  0.85414400684E+02  0.00000000000E+00 0.  1.
         21    1    1    2  505  502 -0.52082258611E+02 -0.48246257985E+02  0.79496729452E+03  0.79813110604E+03  0.00000000000E+00 0. -1.
         -2    1    1    2    0  505 -0.12044981889E+01 -0.70110554497E+02 -0.10853573651E+01  0.70129299642E+02  0.00000000000E+00 0. -1.
<scales pt_clust_3="77.38641" pt_clust_4="38.09353" pt_clust_5="14000.00000" pt_clust_6="70.02506"></scales>
<clustering>
<clus scale="   38.094">  2  4  1 -1</clus>
<clus scale="   70.025">  2  6  1 -1</clus>
<clus scale="   77.386">  2  3  1 -1</clus>
<clus scale="   77.386">  1  3  2 -1</clus>
</clustering>
</event>
<event>
 6    0  0.1631680E+002  0.1266648E+03  0.7546771E-02  0.1232490E+00
         21   -1    0    0  504  502  0.00000000000E+00  0.00000000000E+00  0.24633765036E+03  0.24633765036E+03  0.00000000000E+00 0. -1.
          1   -1    0    0  505    0 -0.00000000000E+00 -0.00000000000E+00 -0.77210108213E+03  0.77210108213E+03  0.00000000000E+00 0. -1.
         21    1    1    2  503  501  0.15233675905E+03 -0.33657523705E+02  0.91539806927E+02  0.18088353522E+03  0.00000000000E+00 0. -1.
         21    1    1    2  504  503 -0.41802420701E+02 -0.17283897987E+02  0.87207635141E+02  0.98241270009E+02  0.00000000000E+00 0. -1.
         21    1    1    2  505  502  0.35974962225E+02  0.45456645774E+02 -0.36391431130E+03  0.36850255158E+03  0.00000000000E+00 0. -1.
          1    1    1    2  501    0 -0.14650930058E+03  0.54847759188E+01 -0.34059656254E+03  0.37081137568E+03  0.00000000000E+00 0. -1.
<scales pt_clust_3="126.66478" pt_clust_4="45.23467" pt_clust_5="57.38097" pt_clust_6="14000.00000"></scales>
<clustering>
<clus scale="   45.235">  1  4  2 -1</clus>
<clus scale="   57.381">  2  5  1 -1</clus>
<clus scale="  126.665">  1  3  2 -1</clus>
<clus scale="   45.235">  1  3  2 -1</clus>
</clustering>
</event>
<event>
 6    0  0.1631680E+002  0.1264680E+03  0.7546771E-02  0.1232793E+00
          2   -1    0    0  504    0 -0.00000000000E+00  0.00000000000E+00  0.79675907699E+03  0.79675907699E+03  0.00000000000E+00 0. -1.
         21   -1    0    0  503  502  0.00000000000E+00 -0.00000000000E+00 -0.88568214525E+02  0.88568214525E+02  0.00000000000E+00 0. -1.
         21    1    1    2  503  505 -0.55299372840E+02 -0.16175518338E+02 -0.30098110324E+02  0.65004340432E+02  0.00000000000E+00 0. -1.
         21    1    1    2  504  502  0.86983520772E+02  0.11306234223E+03  0.52080855523E+03  0.53999146042E+03  0.00000000000E+00 0. -1.
         21    1    1    2  505  501  0.57365971276E+02 -0.49016707215E+02  0.10144069429E+03  0.12642668510E+03  0.00000000000E+00 0. -1.
          2    1    1    2  501    0 -0.89050119208E+02 -0.47870116681E+02  0.11603972327E+03  0.15390480557E+03  0.00000000000E+00 0. -1.
<scales pt_clust_3="57.61656" pt_clust_4="126.46804" pt_clust_5="67.46849" pt_clust_6="14000.00000"></scales>
<clustering>
<clus scale="   57.617">  2  3  1 -1</clus>
<clus scale="   67.468">  2  5  1 -1</clus>
<clus scale="  126.468">  1  4  2 -1</clus>
<clus scale="   57.617">  2  3  1 -1</clus>
</clustering>
</event>
<event>
 6    0  0.1631680E+002  0.7837305E+02  0.7546771E-02  0.1333733E+00
          2   -1    0    0  503    0 -0.00000000000E+00  0.00000000000E+00  0.18677046673E+04  0.18677046673E+04  0.00000000000E+00 0.  1.
         21   -1    0    0  505  502  0.00000000000E+00 -0.00000000000E+00 -0.42152670839E+03  0.42152670839E+03  0.00000000000E+00 0.  1.
         21    1    1    2  503  502 -0.22136779535E+02 -0.23395914557E+02  0.61117799219E+02  0.69085390696E+02  0.00000000000E+00 0.  1.
         21    1    1    2  504  501  0.36716562345E+02  0.51833060005E+02 -0.81525737887E+02  0.10334997822E+03  0.00000000000E+00 0.  1.
         21    1    1    2  505  504  0.98621976524E+01 -0.94610539612E+02 -0.31743495672E+03  0.33138100262E+03  0.00000000000E+00 0.  1.
          2    1    1    2  501    0 -0.24441980462E+02  0.66173394164E+02  0.17840208543E+04  0.17854150041E+04  0.00000000000E+00 0.  1.
<scales pt_clust_3="32.20878" pt_clust_4="78.37305" pt_clust_5="14000.00000" pt_clust_6="63.23761"></scales>
<clustering>
<clus scale="   32.209">  1  3  2 -1</clus>
<clus scale="   63.238">  1  6  2 -1</clus>
<clus scale="   78.373">  1  4  2 -1</clus>
<clus scale="   78.373">  2  3  1 -1</clus>
</clustering>
</event>
<event>
 6    0  0.1631680E+002  0.1021764E+03  0.7546771E-02  0.1275785E+00
          1   -1    0    0  503    0 -0.00000000000E+00  0.00000000000E+00  0.18997398774E+03  0.18997398774E+03  0.00000000000E+00 0. -1.
         21   -1    0    0  501  502  0.00000000000E+00 -0.00000000000E+00 -0.22622527209E+04  0.22622527209E+04  0.00000000000E+00 0. -1.
         21    1    1    2  503  504 -0.14646246261E+02 -0.45742851678E+02  0.46962906271E+02  0.67174664678E+02  0.00000000000E+00 0.  1.
         21    1    1    2  504  505  0.11368851579E+03  0.60495884903E+01  0.45692691841E+02  0.12267639639E+03  0.00000000000E+00 0. -1.
         21    1    1    2  505  502 -0.26730496798E+02 -0.44954952303E+02 -0.21493199896E+04  0.21499562519E+04  0.00000000000E+00 0. -1.
          1    1    1    2  501    0 -0.72311772728E+02  0.84648215491E+02 -0.15614341644E+02  0.11241939568E+03  0.00000000000E+00 0. -1.
<scales pt_clust_3="48.03042" pt_clust_4="14000.00000" pt_clust_5="52.41373" pt_clust_6="102.17644"></scales>
<clustering>
<clus scale="   48.030">  1  3  2 -1</clus>
<clus scale="   52.414">  2  5  1 -1</clus>
<clus scale="  102.176">  2  6  1 -1</clus>
<clus scale="   52.414">  2  3  1 -1</clus>
</clustering>
</event>
<event>
 6    0  0.1631680E+002  0.9444757E+02  0.7546771E-02  0.1292425E+00
          1   -1    0    0  503    0 -0.00000000000E+00  0.00000000000E+00  0.47531272648E+04  0.47531272648E+04  0.00000000000E+00 0.  1.
         21   -1    0    0  505  502  0.00000000000E+00 -0.00000000000E+00 -0.17732845932E+02  0.17732845932E+02  0.00000000000E+00 0.  1.
         21    1    1    2  503  502  0.25493806431E+02  0.55103869658E+02  0.25230999366E+03  0.25951243423E+03  0.00000000000E+00 0.  1.
         21    1    1    2  504  501  0.49494306661E+01  0.75760086699E+02  0.10586246571E+04  0.10613436070E+04  0.00000000000E+00 0.  1.
         21    1    1    2  505  504 -0.23550897087E+02 -0.25512048109E+02  0.13252941836E+02  0.37163824072E+02  0.00000000000E+00 0.  1.
          1    1    1    2  501    0 -0.68923400093E+01 -0.10535190825E+03  0.34112068262E+04  0.34128402453E+04  0.00000000000E+00 0.  1.
<scales pt_clust_3="40.66566" pt_clust_4="94.44757" pt_clust_5="34.72045" pt_clust_6="14000.00000"></scales>
<clustering>
<clus scale="   34.720">  2  5  1 -1</clus>
<clus scale="   40.666">  2  3  1 -1</clus>
<clus scale="   94.448">  2  4  1 -1</clus>
<clus scale="   34.720">  2  3  1 -1</clus>
</clustering>
</event>
<event>
 6    0  0.1631680E+002  0.7711641E+02  0.7546771E-02  0.1337440E+00
         21   -1    0    0  504  502  0.00000000000E+00  0.00000000000E+00  0.16262060197E+03  0.16262060197E+03  0.00000000000E+00 0.  1.
          1   -1    0    0  505    0 -0.00000000000E+00 -0.00000000000E+00 -0.18641839477E+04  0.18641839477E+04  0.00000000000E+00 0.  1.
         21    1    1    2  503  502  0.39444018864E+02 -0.46007631146E+02  0.13861085759E+03  0.15127955113E+03  0.00000000000E+00 0.  1.
         21    1    1    2  504  501 -0.52443984879E+00  0.34788978353E+02 -0.89001154247E+01  0.35913230244E+02  0.00000000000E+00 0. -1.
         21    1    1    2  505  503  0.61934794825E+01 -0.71884252461E+02 -0.10805262813E+04  0.10829324769E+04  0.00000000000E+00 0.  1.
          1    1    1    2  501    0 -0.45113058498E+02  0.83102905255E+02 -0.75074780658E+03  0.75667929138E+03  0.00000000000E+00 0.  1.
<scales pt_clust_3="40.79831" pt_clust_4="34.79293" pt_clust_5="77.11641" pt_clust_6="14000.00000"></scales>
<clustering>
<clus scale="   34.793">  1  4  2 -1</clus>
<clus scale="   40.798">  1  3  2 -1</clus>
<clus scale="   77.116">  2  5  1 -1</clus>
<clus scale="   34.793">  1  3  2 -1</clus>
</clustering>
</event>
<event>
 6    0  0.1631680E+002  0.6938545E+02  0.7546771E-02  0.1362195E+00
         21   -1    0    0  503  502  0.00000000000E+00  0.00000000000E+00  0.16573882583E+03  0.16573882583E+03  0.00000000000E+00 0.  1.
         -2   -1    0    0    0  501 -0.00000000000E+00 -0.00000000000E+00 -0.43762942879E+03  0.43762942879E+03  0.00000000000E+00 0.  1.
         21    1    1    2  503  505 -0.42388278917E+02  0.26691856873E+02  0.56968283104E+02  0.75859123991E+02  0.00000000000E+00 0.  1.
         21    1    1    2  504  502  0.10249074513E+03  0.90181759538E+01  0.63893506705E+02  0.12111176877E+03  0.00000000000E+00 0.  1.
         21    1    1    2  505  501 -0.29380558907E+02  0.19117251830E+02 -0.21551426085E+03  0.21834624610E+03  0.00000000000E+00 0.  1.
         -2    1    1    2    0  504 -0.30721907310E+02 -0.54827284657E+02 -0.17723813192E+03  0.18805111576E+03  0.00000000000E+00 0.  1.
<scales pt_clust_3="51.59214" pt_clust_4="14000.00000" pt_clust_5="35.05263" pt_clust_6="69.38545"></scales>
<clustering>
<clus scale="   35.053">  2  5  1 -1</clus>
<clus scale="   51.592">  1  3  2 -1</clus>
<clus scale="   69.385">  2  6  1 -1</clus>
<clus scale="   51.592">  1  3  2 -1</clus>
</clustering>
</event>
<event>
 6    0  0.1631680E+002  0.1011480E+03  0.7546771E-02  0.1277900E+00
         21   -1    0    0  505  502  0.00000000000E+00  0.00000000000E+00  0.17828620994E+02  0.17828620994E+02  0.00000000000E+00 0.  1.
          1   -1    0    0  504    0 -0.00000000000E+00 -0.00000000000E+00 -0.16783618882E+04  0.16783618882E+04  0.00000000000E+00 0.  1.
         21    1    1    2  503  502  0.86789996652E+02  0.87651906622E+02 -0.55258183178E+03  0.56618198582E+03  0.00000000000E+00 0.  1.
         21    1    1    2  504  503  0.27582256334E+02 -0.24858961846E+02 -0.47719949872E+03  0.47864194386E+03  0.00000000000E+00 0.  1.
         21    1    1    2  505  501 -0.92156152700E+02 -0.26112987451E+02 -0.24215475518E+03  0.26041038775E+03  0.00000000000E+00 0.  1.
          1    1    1    2  501    0 -0.22216100285E+02 -0.36679957324E+02 -0.38859718155E+03  0.39095619178E+03  0.00000000000E+00 0.  1.
<scales pt_clust_3="101.14804" pt_clust_4="37.13151" pt_clust_5="14000.00000" pt_clust_6="46.67477"></scales>
<clustering>
<clus scale="   37.132">  2  4  1 -1</clus>
<clus scale="   46.675">  2  6  1 -1</clus>
<clus scale="  101.148">  2  3  1 -1</clus>
<clus scale="  101.148">  1  3  2 -1</clus>
</clustering>
</event>
<event>
 6    0  0.1631680E+002  0.1318455E+03  0.7546771E-02  0.1224743E+00
         21   -1    0    0  505  502  0.00000000000E+00  0.00000000000E+00  0.21148198221E+03  0.21148198221E+03  0.00000000000E+00 0. -1.
          1   -1    0    0  503    0 -0.00000000000E+00 -0.00000000000E+00 -0.24181832895E+04  0.24181832895E+04  0.00000000000E+00 0.  1.
         21    1    1    2  503  504 -0.70770203107E+01 -0.92601475144E+02 -0.11233030637E+03  0.14575052365E+03  0.00000000000E+00 0.  1.
         21    1    1    2  504  502  0.31594633403E+02 -0.92512336313E+01  0.19524756841E+02  0.38275609901E+02  0.00000000000E+00 0. -1.
         21    1    1    2  505  501 -0.20001181103E+02 -0.34765105472E+02  0.16136558544E+03  0.16627541000E+03  0.00000000000E+00 0. -1.
          1    1    1    2  501    0 -0.45164319894E+01  0.13661781425E+03 -0.22752613432E+04  0.22793637281E+04  0.00000000000E+00 0.  1.
<scales pt_clust_3="14000.00000" pt_clust_4="32.92121" pt_clust_5="43.86716" pt_clust_6="131.84550"></scales>
<clustering>
<clus scale="   32.921">  1  4  2 -1</clus>
<clus scale="   43.867">  1  5  2 -1</clus>
<clus scale="  131.845">  2  6  1 -1</clus>
<clus scale="   32.921">  1  3  2 -1</clus>
</clustering>
</event>
<event>
 6    0  0.1631680E+002  0.1100874E+03  0.7546771E-02  0.1260408E+00
         21   -1    0    0  503  502  0.00000000000E+00  0.00000000000E+00  0.19657663039E+02  0.19657663039E+02  0.00000000000E+00 0.  1.
          2   -1    0    0  504    0 -0.00000000000E+00 -0.00000000000E+00 -0.26638144668E+04  0.26638144668E+04  0.00000000000E+00 0.  1.
         21    1    1    2  503  501 -0.22381428748E+02 -0.31723982597E+02 -0.78973762535E+02  0.88001105638E+02  0.00000000000E+00 0. -1.
         21    1    1    2  504  505  0.96915388893E+02  0.48676454654E+02 -0.16519162083E+04  0.16554724852E+04  0.00000000000E+00 0.  1.
         21    1    1    2  505  502  0.86167770773E+01  0.67544986607E+02 -0.12042634168E+03  0.13834405601E+03  0.00000000000E+00 0.  1.
          2    1    1    2  501    0 -0.83150737223E+02 -0.84497458664E+02 -0.79284049117E+03  0.80165448297E+03  0.00000000000E+00 0.  1.
<scales pt_clust_3="38.82447" pt_clust_4="110.08735" pt_clust_5="48.99641" pt_clust_6="14000.00000"></scales>
<clustering>
<clus scale="   38.824">  1  3  2 -1</clus>
<clus scale="   48.996">  1  5  2 -1</clus>
<clus scale="  110.087">  2  4  1 -1</clus>
<clus scale="   38.824">  1  3  2 -1</clus>
</clustering>
</event>
<event>
 6    0  0.1631680E+002  0.2001835E+03  0.7546771E-02  0.1149584E+00
         21   -1    0    0  505  502  0.00000000000E+00  0.00000000000E+00  0.57535061701E+03  0.57535061701E+03  0.00000000000E+00 0. -1.
          4   -1    0    0  503    0 -0.00000000000E+00 -0.00000000000E+00 -0.29720156024E+03  0.29720156024E+03  0.00000000000E+00 0. -1.
         21    1    1    2  503  504  0.76110624050E+02  0.35874347065E+01 -0.10602175553E+03  0.13056151587E+03  0.00000000000E+00 0. -1.
         21    1    1    2  504  502 -0.76052107038E+02  0.22111821940E+03  0.41066082215E+03  0.47256692731E+03  0.00000000000E+00 0. -1.
         21    1    1    2  505  501 -0.21113356084E+02 -0.44452808393E+02  0.52092644041E+02  0.71662190466E+02  0.00000000000E+00 0. -1.
          4    1    1    2  501    0  0.21054839071E+02 -0.18025284572E+03 -0.78582653884E+02  0.19776154360E+03  0.00000000000E+00 0. -1.
<scales pt_clust_3="75.64826" pt_clust_4="200.18351" pt_clust_5="49.21205" pt_clust_6="14000.00000"></scales>
<clustering>
<clus scale="   49.212">  1  5  2 -1</clus>
<clus scale="   75.648">  2  3  1 -1</clus>
<clus scale="  200.184">  1  4  2 -1</clus>
<clus scale="   49.212">  1  3  2 -1</clus>
</clustering>
</event>
<event>
 6    0  0.1631680E+002  0.1283689E+03  0.7546771E-02  0.1229896E+00
          2   -1    0    0  503    0 -0.00000000000E+00  0.00000000000E+00  0.24303713345E+03  0.24303713345E+03  0.00000000000E+00 0. -1.
         21   -1    0    0  501  502  0.00000000000E+00 -0.00000000000E+00 -0.41047045633E+03  0.41047045633E+03  0.00000000000E+00 0.  1.
         21    1    1    2  503  504 -0.64041140551E+02  0.11912237324E+02  0.23073251104E+01  0.65180463563E+02  0.00000000000E+00 0. -1.
         21    1    1    2  504  505 -0.89614549449E+01 -0.46045453651E+02 -0.80843766101E+02  0.93467673525E+02  0.00000000000E+00 0.  1.
         21    1    1    2  505  502 -0.42874625347E+02 -0.60928910698E+02 -0.25820642638E+03  0.26873988220E+03  0.00000000000E+00 0.  1.
          2    1    1    2  501    0  0.11587722084E+03  0.95062127026E+02  0.16930954449E+03  0.22611957049E+03  0.00000000000E+00 0. -1.
<scales pt_clust_3="65.13961" pt_clust_4="36.43862" pt_clust_5="36.43862" pt_clust_6="119.87405"></scales>
<clustering>
<clus scale="   36.439">  4  5 -1 -1</clus>
<clus scale="   65.140">  1  3  2 -1</clus>
<clus scale="  119.874">  1  6  2 -1</clus>
<clus scale="  128.369">  2  3  1 -1</clus>
</clustering>
</event>
<event>
 6    0  0.1631680E+002  0.2226710E+03  0.7546771E-02  0.1131907E+00
          4   -1    0    0  504    0 -0.00000000000E+00  0.00000000000E+00  0.23932527466E+03  0.23932527466E+03  0.00000000000E+00 0. -1.
         21   -1    0    0  503  502  0.00000000000E+00 -0.00000000000E+00 -0.11429213677E+04  0.11429213677E+04  0.00000000000E+00 0.  1.
         21    1    1    2  503  501 -0.24823291569E+01 -0.44875023477E+02  0.36073877857E+01  0.45088168478E+02  0.00000000000E+00 0. -1.
         21    1    1    2  504  505 -0.20439618909E+02  0.26514434115E+03 -0.94482199147E+03  0.98153344071E+03  0.00000000000E+00 0.  1.
         21    1    1    2  505  502  0.20586671797E+02 -0.55776457242E+02 -0.11612333645E+03  0.13045862757E+03  0.00000000000E+00 0. -1.
          4    1    1    2  501    0  0.23352762694E+01 -0.16449286043E+03  0.15374184712E+03  0.22516640559E+03  0.00000000000E+00 0. -1.
<scales pt_clust_3="34.84311" pt_clust_4="212.45831" pt_clust_5="59.45439" pt_clust_6="34.84311"></scales>
<clustering>
<clus scale="   34.843">  3  6 -1 -1</clus>
<clus scale="   59.454">  2  5  1 -1</clus>
<clus scale="  212.458">  2  4  1 -1</clus>
<clus scale="   59.454">  2  3  1 -1</clus>
</clustering>
</event>
<event>
 6    0  0.1631680E+002  0.1406586E+03  0.7546771E-02  0.1212446E+00
         21   -1    0    0  505  502  0.00000000000E+00  0.00000000000E+00  0.17753296412E+04  0.17753296412E+04  0.00000000000E+00 0.  1.
          4   -1    0    0  504    0 -0.00000000000E+00 -0.00000000000E+00 -0.18067589704E+03  0.18067589704E+03  0.00000000000E+00 0. -1.
         21    1    1    2  503  502  0.65404385025E+02  0.20702243436E+02  0.31288324889E+03  0.32031585022E+03  0.00000000000E+00 0. -1.
         21    1    1    2  504  503 -0.22964629625E+02 -0.37636616505E+02  0.29537886085E+01  0.44188391948E+02  0.00000000000E+00 0. -1.
         21    1    1    2  505  501 -0.18195687063E+03  0.54931971941E+02  0.13938362315E+04  0.14067356768E+04  0.00000000000E+00 0.  1.
          4    1    1    2  501    0  0.13951711523E+03 -0.37997598871E+02 -0.11501952482E+03  0.18476561924E+03  0.00000000000E+00 0. -1.
<scales pt_clust_3="67.83388" pt_clust_4="44.08956" pt_clust_5="140.65858" pt_clust_6="14000.00000"></scales>
<clustering>
<clus scale="   44.090">  2  4  1 -1</clus>
<clus scale="   67.834">  1  3  2 -1</clus>
<clus scale="  140.659">  1  5  2 -1</clus>
<clus scale="   67.834">  1  3  2 -1</clus>
</clustering>
</event>
<event>
 6    0  0.1631680E+002  0.1060224E+03  0.7546771E-02  0.1268118E+00
          1   -1    0    0  503    0 -0.00000000000E+00  0.00000000000E+00  0.10931332939E+04  0.10931332939E+04  0.00000000000E+00 0.  1.
         21   -1    0    0  501  502  0.00000000000E+00 -0.00000000000E+00 -0.17200486852E+03  0.17200486852E+03  0.00000000000E+00 0.  1.
         21    1    1    2  503  504  0.33714565874E+02 -0.97611727775E+02  0.58429398837E+03  0.59334996941E+03  0.00000000000E+00 0. -1.
         21    1    1    2  504  505  0.11639865521E+03  0.25513107265E+02 -0.94638982550E+02  0.15217129360E+03  0.00000000000E+00 0.  1.
         21    1    1    2  505  502 -0.29984069816E+02  0.89602783701E+01 -0.27091503336E+02  0.41391793682E+02  0.00000000000E+00 0.  1.
          1    1    1    2  501    0 -0.12012915127E+03  0.63138342140E+02  0.45856492294E+03  0.47822510577E+03  0.00000000000E+00 0.  1.
<scales pt_clust_3="14000.00000" pt_clust_4="95.61507" pt_clust_5="31.29427" pt_clust_6="106.02243"></scales>
<clustering>
<clus scale="   31.294">  2  5  1 -1</clus>
<clus scale="   95.615">  2  4  1 -1</clus>
<clus scale="  106.022">  2  6  1 -1</clus>
<clus scale="   31.294">  2  3  1 -1</clus>
</clustering>
</event>
<event>
 6    0  0.1631680E+002  0.1303563E+03  0.7546771E-02  0.1226928E+00
          2   -1    0    0  504    0 -0.00000000000E+00  0.00000000000E+00  0.78923513047E+03  0.78923513047E+03  0.00000000000E+00 0.  1.
         21   -1    0    0  501  502  0.00000000000E+00 -0.00000000000E+00 -0.62717073263E+02  0.62717073263E+02  0.00000000000E+00 0. -1.
         21    1    1    2  503  502 -0.24517220652E+02  0.23345069365E+02 -0.77404152923E+01  0.34727516482E+02  0.00000000000E+00 0. -1.
         21    1    1    2  504  505  0.13791152283E+02  0.30888413270E+02  0.15857015135E+03  0.16213815978E+03  0.00000000000E+00 0. -1.
         21    1    1    2  505  503  0.13681478871E+03  0.17981648578E+02  0.14330964952E+03  0.19894542403E+03  0.00000000000E+00 0. -1.
          2    1    1    2  501    0 -0.12608872035E+03 -0.72215131213E+02  0.43237867163E+03  0.45614110345E+03  0.00000000000E+00 0.  1.
<scales pt_clust_3="34.10348" pt_clust_4="33.82736" pt_clust_5="130.35631" pt_clust_6="14000.00000"></scales>
<clustering>
<clus scale="   33.827">  1  4  2 -1</clus>
<clus scale="   34.103">  2  3  1 -1</clus>
<clus scale="  130.356">  2  5  1 -1</clus>
<clus scale="   34.103">  2  3  1 -1</clus>
</clustering>
</event>
<event>
 6    0  0.1631680E+002  0.8440080E+02  0.7546771E-02  0.1317007E+00
         21   -1    0    0  501  502  0.00000000000E+00  0.00000000000E+00  0.69232489953E+03  0.69232489953E+03  0.00000000000E+00 0.  1.
          2   -1    0    0  503    0 -0.00000000000E+00 -0.00000000000E+00 -0.35003712331E+03  0.35003712331E+03  0.00000000000E+00 0.  1.
         21    1    1    2  503  505 -0.99834166131E+01  0.33085860335E+02 -0.74477318461E+01  0.35352672756E+02  0.00000000000E+00 0.  1.
         21    1    1    2  504  502  0.36461672051E+02 -0.54322888511E+02  0.40476637810E+03  0.41001981731E+03  0.00000000000E+00 0.  1.
         21    1    1    2  505  504 -0.53015846031E+02  0.13055052787E+03  0.24163284858E+03  0.27971512968E+03  0.00000000000E+00 0.  1.
          2    1    1    2  501    0  0.26537590593E+02 -0.10931349970E+03 -0.29666371860E+03  0.31727440311E+03  0.00000000000E+00 0.  1.
<scales pt_clust_3="34.55926" pt_clust_4="65.16100" pt_clust_5="84.40080" pt_clust_6="14000.00000"></scales>
<clustering>
<clus scale="   34.559">  2  3  1 -1</clus>
<clus scale="   65.161">  1  4  2 -1</clus>
<clus scale="   84.401">  1  5  2 -1</clus>
<clus scale="   65.161">  1  3  2 -1</clus>
</clustering>
</event>
<event>
 6    0  0.1631680E+002  0.9631706E+02  0.7546771E-02  0.1288237E+00
         21   -1    0    0  501  502  0.00000000000E+00  0.00000000000E+00  0.28760131097E+03  0.28760131097E+03  0.00000000000E+00 0.  1.
          2   -1    0    0  504    0 -0.00000000000E+00 -0.00000000000E+00 -0.41218597782E+03  0.41218597782E+03  0.00000000000E+00 0.  1.
         21    1    1    2  503  505  0.44213126645E+02 -0.27246754822E+02  0.69112724385E+02  0.86450881360E+02  0.00000000000E+00 0.  1.
         21    1    1    2  504  503  0.92415090379E+02 -0.54883894778E+01 -0.30538037374E+03  0.31910475398E+03  0.00000000000E+00 0.  1.
         21    1    1    2  505  502 -0.19426154024E+02  0.28394501369E+02  0.16272612248E+03  0.16632322178E+03  0.00000000000E+00 0.  1.
          2    1    1    2  501    0 -0.11720206300E+03  0.43406429310E+01 -0.51043139971E+02  0.12790843166E+03  0.00000000000E+00 0.  1.
<scales pt_clust_3="33.26334" pt_clust_4="96.31706" pt_clust_5="34.40382" pt_clust_6="14000.00000"></scales>
<clustering>
<clus scale="   34.404">  1  5  2 -1</clus>
<clus scale="   33.263">  1  3  2 -1</clus>
<clus scale="   96.317">  2  4  1 -1</clus>
<clus scale="   34.404">  1  3  2 -1</clus>
</clustering>
</event>
<event>
 6    0  0.1631680E+002  0.9720071E+02  0.7546771E-02  0.1286295E+00
         21   -1    0    0  501  502  0.00000000000E+00  0.00000000000E+00  0.53010575297E+02  0.53010575297E+02  0.00000000000E+00 0.  1.
          2   -1    0    0  503    0 -0.00000000000E+00 -0.00000000000E+00 -0.56615921408E+03  0.56615921408E+03  0.00000000000E+00 0.  1.
         21    1    1    2  503  505  0.35371954733E+02 -0.27860382195E+02 -0.26393032132E+03  0.26774351643E+03  0.00000000000E+00 0.  1.
         21    1    1    2  504  502  0.27812360934E+02 -0.23197873411E+02 -0.27064701555E+02  0.45212463124E+02  0.00000000000E+00 0.  1.
         21    1    1    2  505  504 -0.11391371297E+03 -0.27463007883E+02 -0.11917643730E+03  0.16713340184E+03  0.00000000000E+00 0.  1.
          2    1    1    2  501    0  0.50729397299E+02  0.78521263489E+02 -0.10297717861E+03  0.13908040798E+03  0.00000000000E+00 0.  1.
<scales pt_clust_3="46.59740" pt_clust_4="36.21697" pt_clust_5="14000.00000" pt_clust_6="97.20071"></scales>
<clustering>
<clus scale="   36.217">  1  4  2 -1</clus>
<clus scale="   46.597">  2  3  1 -1</clus>
<clus scale="   97.201">  2  6  1 -1</clus>
<clus scale="   36.217">  1  3  2 -1</clus>
</clustering>
</event>
<event>
 6    0  0.1631680E+002  0.7519425E+02  0.7546771E-02  0.1343271E+00
         21   -1    0    0  503  502  0.00000000000E+00  0.00000000000E+00  0.15001296565E+03  0.15001296565E+03  0.00000000000E+00 0. -1.
          2   -1    0    0  504    0 -0.00000000000E+00 -0.00000000000E+00 -0.18787504765E+03  0.18787504765E+03  0.00000000000E+00 0. -1.
         21    1    1    2  503  505 -0.30968532598E+02  0.85967365056E+02  0.69426428765E+02  0.11475829764E+03  0.00000000000E+00 0. -1.
         21    1    1    2  504  502 -0.59035478263E+02 -0.42072772489E+02 -0.38776864545E+02  0.82212840254E+02  0.00000000000E+00 0. -1.
         21    1    1    2  505  501  0.69744463196E+02 -0.14436614925E+02 -0.94086989589E+01  0.71841698289E+02  0.00000000000E+00 0. -1.
          2    1    1    2  501    0  0.20259547665E+02 -0.29457977641E+02 -0.59102947263E+02  0.69075177115E+02  0.00000000000E+00 0. -1.
<scales pt_clust_3="75.19425" pt_clust_4="74.85289" pt_clust_5="14000.00000" pt_clust_6="35.75223"></scales>
<clustering>
<clus scale="   35.752">  2  6  1 -1</clus>
<clus scale="   74.853">  2  4  1 -1</clus>
<clus scale="   75.194">  1  3  2 -1</clus>
<clus scale="   75.194">  1  3  2 -1</clus>
</clustering>
</event>
<event>
 6    0  0.1631680E+002  0.8266517E+02  0.7546771E-02  0.1321654E+00
         21   -1    0    0  503  502  0.00000000000E+00  0.00000000000E+00  0.17609456944E+03  0.17609456944E+03  0.00000000000E+00 0.  1.
         -1   -1    0    0    0  501 -0.00000000000E+00 -0.00000000000E+00 -0.14665252313E+04  0.14665252313E+04  0.00000000000E+00 0. -1.
         21    1    1    2  503  504 -0.59344910691E+02  0.12575258373E+03 -0.13392365145E+02  0.13969569136E+03  0.00000000000E+00 0.  1.
         21    1    1    2  504  501 -0.44343200452E+02  0.51142341944E+01 -0.13631725462E+03  0.14343942528E+03  0.00000000000E+00 0. -1.
         21    1    1    2  505  502  0.71063720504E+01 -0.70037558878E+02  0.95146192942E+02  0.11835775517E+03  0.00000000000E+00 0.  1.
         -1    1    1    2    0  505  0.96581739092E+02 -0.60829259051E+02 -0.12358672351E+04  0.12411269290E+04  0.00000000000E+00 0. -1.
<scales pt_clust_3="14000.00000" pt_clust_4="44.63715" pt_clust_5="70.31452" pt_clust_6="82.66517"></scales>
<clustering>
<clus scale="   44.637">  2  4  1 -1</clus>
<clus scale="   70.315">  1  5  2 -1</clus>
<clus scale="   82.665">  2  6  1 -1</clus>
<clus scale="   70.315">  1  3  2 -1</clus>
</clustering>
</event>
<event>
 6    0  0.1631680E+002  0.1883206E+03  0.7546771E-02  0.1159985E+00
          2   -1    0    0  503    0 -0.00000000000E+00  0.00000000000E+00  0.88309941922E+03  0.88309941922E+03  0.00000000000E+00 0.  1.
         21   -1    0    0  501  502  0.00000000000E+00 -0.00000000000E+00 -0.14629491836E+04  0.14629491836E+04  0.00000000000E+00 0. -1.
         21    1    1    2  503  505 -0.43927923958E+02 -0.40817272684E+01  0.12494915496E+03  0.13250892169E+03  0.00000000000E+00 0. -1.
         21    1    1    2  504  502  0.32042182142E+01  0.41681799370E+02 -0.20238109712E+03  0.20665369071E+03  0.00000000000E+00 0.  1.
         21    1    1    2  505  504  0.13387417879E+03 -0.17096417654E+03 -0.12362826472E+04  0.12552074845E+04  0.00000000000E+00 0. -1.
          2    1    1    2  501    0 -0.93150473043E+02  0.13336410444E+03  0.73386482495E+03  0.75167850593E+03  0.00000000000E+00 0.  1.
<scales pt_clust_3="44.09616" pt_clust_4="41.80478" pt_clust_5="14000.00000" pt_clust_6="188.32061"></scales>
<clustering>
<clus scale="   41.805">  2  4  1 -1</clus>
<clus scale="   44.096">  1  3  2 -1</clus>
<clus scale="  188.321">  1  6  2 -1</clus>
<clus scale="   41.805">  2  3  1 -1</clus>
</clustering>
</event>
<event>
 6    0  0.1631680E+002  0.1152155E+03  0.7546771E-02  0.1251205E+00
          3   -1    0    0  503    0 -0.00000000000E+00  0.00000000000E+00  0.26061787647E+03  0.26061787647E+03  0.00000000000E+00 0.  1.
         21   -1    0    0  504  502  0.00000000000E+00 -0.00000000000E+00 -0.90737458311E+03  0.90737458311E+03  0.00000000000E+00 0.  1.
         21    1    1    2  503  505  0.62109982572E+02  0.24829076590E+02  0.77041208339E+01  0.67331170027E+02  0.00000000000E+00 0.  1.
         21    1    1    2  504  501 -0.37692662505E+02 -0.13648893791E+02 -0.81339505781E+03  0.81438231144E+03  0.00000000000E+00 0.  1.
         21    1    1    2  505  502  0.77190001593E+02 -0.51126390718E+01 -0.20460018565E+02  0.80019046382E+02  0.00000000000E+00 0. -1.
          3    1    1    2  501    0 -0.10160732166E+03 -0.60675437267E+01  0.17939424891E+03  0.20625993174E+03  0.00000000000E+00 0.  1.
<scales pt_clust_3="38.96747" pt_clust_4="40.08777" pt_clust_5="38.96747" pt_clust_6="107.32405"></scales>
<clustering>
<clus scale="   38.967">  3  5 -1 -1</clus>
<clus scale="   40.088">  2  4  1 -1</clus>
<clus scale="  107.324">  1  6  2 -1</clus>
<clus scale="   40.088">  2  3  1 -1</clus>
</clustering>
</event>
<event>
 6    0  0.1631680E+002  0.1989174E+03  0.7546771E-02  0.1150656E+00
         21   -1    0    0  505  502  0.00000000000E+00  0.00000000000E+00  0.10334392638E+03  0.10334392638E+03  0.00000000000E+00 0.  1.
         -3   -1    0    0    0  501 -0.00000000000E+00 -0.00000000000E+00 -0.16494122708E+04  0.16494122708E+04  0.00000000000E+00 0. -1.
         21    1    1    2  503  502  0.64063202992E+02  0.59713664966E+02  0.14598711518E-01  0.87577485545E+02  0.00000000000E+00 0.  1.
         21    1    1    2  504  503 -0.23424353723E+02  0.14420896665E+03 -0.31168296374E+03  0.34422550210E+03  0.00000000000E+00 0.  1.
         21    1    1    2  505  501 -0.17488671904E+01  0.32120929955E+02  0.23924873472E+02  0.40090051737E+02  0.00000000000E+00 0.  1.
         -3    1    1    2    0  504 -0.38889982079E+02 -0.23604356157E+03 -0.12583248529E+04  0.12808631578E+04  0.00000000000E+00 0. -1.
<scales pt_clust_3="101.37760" pt_clust_4="198.91744" pt_clust_5="32.16850" pt_clust_6="14000.00000"></scales>
<clustering>
<clus scale="   32.169">  1  5  2 -1</clus>
<clus scale="  101.378">  1  3  2 -1</clus>
<clus scale="  198.917">  1  4  2 -1</clus>
<clus scale="   32.169">  1  3  2 -1</clus>
</clustering>
</event>
<event>
 6    0  0.1631680E+002  0.9651418E+02  0.7546771E-02  0.1287802E+00
         21   -1    0    0  503  502  0.00000000000E+00  0.00000000000E+00  0.56662627908E+02  0.56662627908E+02  0.00000000000E+00 0.  1.
          3   -1    0    0  504    0 -0.00000000000E+00 -0.00000000000E+00 -0.30002104638E+04  0.30002104638E+04  0.00000000000E+00 0.  1.
         21    1    1    2  503  501  0.14154150882E+02  0.80955492785E+02 -0.37146882061E+02  0.90188816636E+02  0.00000000000E+00 0.  1.
         21    1    1    2  504  505  0.41778344886E+02 -0.22175229845E+02 -0.54160182207E+03  0.54366322718E+03  0.00000000000E+00 0.  1.
         21    1    1    2  505  502 -0.84729321861E+02 -0.69883925258E+01 -0.34151190337E+02  0.91619863646E+02  0.00000000000E+00 0.  1.
          3    1    1    2  501    0  0.28796826092E+02 -0.51791870414E+02 -0.23306479414E+04  0.23314011842E+04  0.00000000000E+00 0.  1.
<scales pt_clust_3="81.81233" pt_clust_4="47.29874" pt_clust_5="96.51418" pt_clust_6="14000.00000"></scales>
<clustering>
<clus scale="   47.299">  2  4  1 -1</clus>
<clus scale="   81.812">  1  3  2 -1</clus>
<clus scale="   96.514">  1  5  2 -1</clus>
<clus scale="   81.812">  1  3  2 -1</clus>
</clustering>
</event>
<event>
 6    0  0.1631680E+002  0.1997121E+03  0.7546771E-02  0.1149982E+00
          2   -1    0    0  503    0 -0.00000000000E+00  0.00000000000E+00  0.24353322369E+04  0.24353322369E+04  0.00000000000E+00 0.  1.
         21   -1    0    0  504  502  0.00000000000E+00 -0.00000000000E+00 -0.56901872045E+03  0.56901872045E+03  0.00000000000E+00 0. -1.
         21    1    1    2  503  505  0.14912007540E+02 -0.53359184795E+02  0.18314914152E+02  0.58352434835E+02  0.00000000000E+00 0.  1.
         21    1    1    2  504  501  0.47274683309E+02  0.76645358104E+02 -0.51611397039E+03  0.52391128737E+03  0.00000000000E+00 0. -1.
         21    1    1    2  505  502  0.51945320284E+02 -0.15924653446E+03  0.25238931059E+03  0.30291605956E+03  0.00000000000E+00 0.  1.
          2    1    1    2  501    0 -0.11413201113E+03  0.13596036115E+03  0.21117232621E+04  0.21191711756E+04  0.00000000000E+00 0.  1.
<scales pt_clust_3="50.01551" pt_clust_4="90.05224" pt_clust_5="50.01551" pt_clust_6="179.78289"></scales>
<clustering>
<clus scale="   50.016">  3  5 -1 -1</clus>
<clus scale="   90.052">  2  4  1 -1</clus>
<clus scale="  179.783">  1  6  2 -1</clus>
<clus scale="   90.052">  2  3  1 -1</clus>
</clustering>
</event>
<event>
 6    0  0.1631680E+002  0.7096470E+02  0.7546771E-02  0.1356843E+00
          2   -1    0    0  503    0 -0.00000000000E+00  0.00000000000E+00  0.79117176871E+03  0.79117176871E+03  0.00000000000E+00 0.  1.
         21   -1    0    0  505  502  0.00000000000E+00 -0.00000000000E+00 -0.41674073163E+03  0.41674073163E+03  0.00000000000E+00 0.  1.
         21    1    1    2  503  504 -0.53829501695E+02  0.92127612097E+01  0.56117740287E+02  0.78305114755E+02  0.00000000000E+00 0. -1.
         21    1    1    2  504  502 -0.29311991711E+02  0.29027245175E+02 -0.22391507005E+03  0.22768340391E+03  0.00000000000E+00 0.  1.
         21    1    1    2  505  501 -0.42748228255E+02 -0.17153108021E+02 -0.17113780197E+03  0.17722806605E+03  0.00000000000E+00 0.  1.
          2    1    1    2  501    0  0.12588972166E+03 -0.21086898364E+02  0.71336616881E+03  0.72469591562E+03  0.00000000000E+00 0.  1.
<scales pt_clust_3="56.59200" pt_clust_4="41.25256" pt_clust_5="70.96470" pt_clust_6="14000.00000"></scales>
<clustering>
<clus scale="   41.253">  2  4  1 -1</clus>
<clus scale="   56.592">  1  3  2 -1</clus>
<clus scale="   70.965">  2  5  1 -1</clus>
<clus scale="   41.253">  2  3  1 -1</clus>
</clustering>
</event>
<event>
 6    0  0.1631680E+002  0.5997484E+02  0.7546771E-02  0.1397937E+00
         21   -1    0    0  503  502  0.00000000000E+00  0.00000000000E+00  0.40135229509E+04  0.40135229509E+04  0.00000000000E+00 0.  1.
         -1   -1    0    0    0  501 -0.00000000000E+00 -0.00000000000E+00 -0.21242900320E+02  0.21242900320E+02  0.00000000000E+00 0. -1.
         21    1    1    2  503  504  0.41753278776E+02 -0.24203968689E+02  0.30728122034E+04  0.30731911762E+04  0.00000000000E+00 0.  1.
         21    1    1    2  504  501 -0.35537796229E+02  0.53936070333E+02  0.40385870531E+03  0.40899130614E+03  0.00000000000E+00 0. -1.
         21    1    1    2  505  502  0.14613990449E+02 -0.83114396216E+02  0.47478405826E+03  0.48222554221E+03  0.00000000000E+00 0. -1.
         -1    1    1    2    0  505 -0.20829472996E+02  0.53382294572E+02  0.40825083656E+02  0.70357826676E+02  0.00000000000E+00 0. -1.
<scales pt_clust_3="48.26146" pt_clust_4="46.86486" pt_clust_5="14000.00000" pt_clust_6="59.97484"></scales>
<clustering>
<clus scale="   48.261">  1  3  2 -1</clus>
<clus scale="   46.865">  1  4  2 -1</clus>
<clus scale="   59.975">  2  6  1 -1</clus>
<clus scale="   48.261">  1  3  2 -1</clus>
</clustering>
</event>
<event>
 6    0  0.1631680E+002  0.6632029E+02  0.7546771E-02  0.1373073E+00
         21   -1    0    0  504  502  0.00000000000E+00  0.00000000000E+00  0.17671894495E+04  0.17671894495E+04  0.00000000000E+00 0. -1.
         -1   -1    0    0    0  501 -0.00000000000E+00 -0.00000000000E+00 -0.75002115420E+02  0.75002115420E+02  0.00000000000E+00 0. -1.
         21    1    1    2  503  502  0.64548474010E+02 -0.16249147579E+02  0.14609556045E+04  0.14624711343E+04  0.00000000000E+00 0. -1.
         21    1    1    2  504  501 -0.18378978558E+02  0.69222106996E+02  0.93269654469E+02  0.11759555857E+03  0.00000000000E+00 0. -1.
         21    1    1    2  505  503 -0.71151151507E+02 -0.25805199821E+02  0.18642805303E+03  0.20120589866E+03  0.00000000000E+00 0. -1.
         -1    1    1    2    0  505  0.24981656055E+02 -0.27167759596E+02 -0.48465977942E+02  0.60918973387E+02  0.00000000000E+00 0. -1.
<scales pt_clust_3="14000.00000" pt_clust_4="53.06220" pt_clust_5="66.32029" pt_clust_6="36.90759"></scales>
<clustering>
<clus scale="   36.908">  2  6  1 -1</clus>
<clus scale="   53.062">  2  4  1 -1</clus>
<clus scale="   66.320">  2  5  1 -1</clus>
<clus scale="   66.320">  1  3  2 -1</clus>
</clustering>
</event>
<event>
 6    0  0.1631680E+002  0.1872110E+03  0.7546771E-02  0.1161001E+00
          1   -1    0    0  504    0 -0.00000000000E+00  0.00000000000E+00  0.14394665881E+04  0.14394665881E+04  0.00000000000E+00 0.  1.
         21   -1    0    0  503  502  0.00000000000E+00 -0.00000000000E+00 -0.10017556630E+03  0.10017556630E+03  0.00000000000E+00 0.  1.
         21    1    1    2  503  501 -0.56200506314E+02 -0.80679825859E+02  0.12775926234E+02  0.99151174989E+02  0.00000000000E+00 0.  1.
         21    1    1    2  504  505 -0.15081229783E+03  0.21986672465E+02  0.20470553763E+03  0.25520995294E+03  0.00000000000E+00 0.  1.
         21    1    1    2  505  502  0.71567036969E+01  0.42575371107E+02 -0.24882553944E+01  0.43244329659E+02  0.00000000000E+00 0.  1.
          1    1    1    2  501    0  0.19985610045E+03  0.16117782286E+02  0.11242978133E+04  0.11420366968E+04  0.00000000000E+00 0.  1.
<scales pt_clust_3="77.21548" pt_clust_4="187.21098" pt_clust_5="43.17268" pt_clust_6="14000.00000"></scales>
<clustering>
<clus scale="   43.173">  2  5  1 -1</clus>
<clus scale="   77.215">  2  3  1 -1</clus>
<clus scale="  187.211">  2  4  1 -1</clus>
<clus scale="   43.173">  2  3  1 -1</clus>
</clustering>
</event>
<event>
 6    0  0.1631680E+002  0.8237478E+02  0.7546771E-02  0.1322444E+00
         -1   -1    0    0    0  501 -0.00000000000E+00  0.00000000000E+00  0.16844235131E+03  0.16844235131E+03  0.00000000000E+00 0. -1.
         21   -1    0    0  505  502  0.00000000000E+00 -0.00000000000E+00 -0.27710903577E+03  0.27710903577E+03  0.00000000000E+00 0. -1.
         21    1    1    2  503  501  0.51664169136E+02 -0.24238688362E+02 -0.83535409839E+01  0.57675662398E+02  0.00000000000E+00 0. -1.
         21    1    1    2  504  502 -0.77507822444E+02  0.18545506051E+02 -0.42002679126E+02  0.90086754790E+02  0.00000000000E+00 0. -1.
         21    1    1    2  505  503  0.71918547544E+02 -0.45124392658E+02 -0.15647942821E+03  0.17802892952E+03  0.00000000000E+00 0. -1.
         -1    1    1    2    0  504 -0.46074894236E+02  0.50817574969E+02  0.98168963863E+02  0.11976004037E+03  0.00000000000E+00 0. -1.
<scales pt_clust_3="57.06751" pt_clust_4="82.37478" pt_clust_5="14000.00000" pt_clust_6="33.17826"></scales>
<clustering>
<clus scale="   57.068">  1  3  2 -1</clus>
<clus scale="   33.178">  1  6  2 -1</clus>
<clus scale="   82.375">  1  4  2 -1</clus>
<clus scale="   82.375">  2  3  1 -1</clus>
</clustering>
</event>
<event>
 6    0  0.1631680E+002  0.1837696E+03  0.7546771E-02  0.1164204E+00
         21   -1    0    0  501  502  0.00000000000E+00  0.00000000000E+00  0.14590847233E+03  0.14590847233E+03  0.00000000000E+00 0. -1.
          2   -1    0    0  504    0 -0.00000000000E+00 -0.00000000000E+00 -0.54213854367E+03  0.54213854367E+03  0.00000000000E+00 0. -1.
         21    1    1    2  503  502  0.11055554584E+02  0.43616203335E+02  0.17296128700E+02  0.48205337345E+02  0.00000000000E+00 0. -1.
         21    1    1    2  504  505 -0.14702591990E+03  0.13054024409E+03 -0.27235695902E+03  0.33591024036E+03  0.00000000000E+00 0. -1.
         21    1    1    2  505  503  0.15334370269E+03 -0.10673909769E+03 -0.58345269803E+02  0.19573373914E+03  0.00000000000E+00 0. -1.
          2    1    1    2  501    0 -0.17373337367E+02 -0.67417349727E+02 -0.82823971210E+02  0.10819769916E+03  0.00000000000E+00 0. -1.
<scales pt_clust_3="44.99554" pt_clust_4="14000.00000" pt_clust_5="183.76958" pt_clust_6="64.57520"></scales>
<clustering>
<clus scale="   44.996">  1  3  2 -1</clus>
<clus scale="   64.575">  2  6  1 -1</clus>
<clus scale="  183.770">  1  5  2 -1</clus>
<clus scale="   44.996">  1  3  2 -1</clus>
</clustering>
</event>
<event>
 6    0  0.1631680E+002  0.8542875E+02  0.7546771E-02  0.1314315E+00
         21   -1    0    0  505  502  0.00000000000E+00  0.00000000000E+00  0.21122445254E+02  0.21122445254E+02  0.00000000000E+00 0.  1.
          2   -1    0    0  504    0 -0.00000000000E+00 -0.00000000000E+00 -0.25877599730E+04  0.25877599730E+04  0.00000000000E+00 0.  1.
         21    1    1    2  503  502 -0.10036588433E+03  0.54906026505E+01 -0.65999469568E+03  0.66760501479E+03  0.00000000000E+00 0.  1.
         21    1    1    2  504  503 -0.48493675259E+01 -0.29657252547E+02 -0.60259384605E+03  0.60334269888E+03  0.00000000000E+00 0. -1.
         21    1    1    2  505  501  0.72313108064E+02  0.45698334968E+02 -0.93423208683E+02  0.12667051487E+03  0.00000000000E+00 0.  1.
          2    1    1    2  501    0  0.32902143795E+02 -0.21531685071E+02 -0.12106257773E+04  0.12112641897E+04  0.00000000000E+00 0.  1.
<scales pt_clust_3="14000.00000" pt_clust_4="30.05111" pt_clust_5="85.42875" pt_clust_6="49.66716"></scales>
<clustering>
<clus scale="   30.051">  2  4  1 -1</clus>
<clus scale="   49.667">  2  6  1 -1</clus>
<clus scale="   85.429">  1  5  2 -1</clus>
<clus scale="   85.429">  1  3  2 -1</clus>
</clustering>
</event>
<event>
 6    0  0.1631680E+002  0.1197756E+03  0.7546771E-02  0.1243468E+00
         21   -1    0    0  505  502  0.00000000000E+00  0.00000000000E+00  0.18996430915E+03  0.18996430915E+03  0.00000000000E+00 0.  1.
          2   -1    0    0  504    0 -0.00000000000E+00 -0.00000000000E+00 -0.75362746160E+03  0.75362746160E+03  0.00000000000E+00 0. -1.
         21    1    1    2  503  502 -0.11061807886E+03 -0.19441525682E+02  0.16103766163E+03  0.19633507265E+03  0.00000000000E+00 0.  1.
         21    1    1    2  504  503 -0.13442610069E+02 -0.32157560471E+02 -0.76678914637E+02  0.84228667393E+02  0.00000000000E+00 0. -1.
         21    1    1    2  505  501  0.67437853986E+02  0.33697345465E+02 -0.26829086414E+03  0.27868147234E+03  0.00000000000E+00 0.  1.
          2    1    1    2  501    0  0.56622834939E+02  0.17901740688E+02 -0.37973103530E+03  0.38434655836E+03  0.00000000000E+00 0. -1.
<scales pt_clust_3="112.80921" pt_clust_4="34.85416" pt_clust_5="34.86132" pt_clust_6="34.86132"></scales>
<clustering>
<clus scale="   34.854">  2  4  1 -1</clus>
<clus scale="   34.861">  5  6 -1 -1</clus>
<clus scale="  112.809">  1  3  2 -1</clus>
<clus scale="  112.809">  1  3  2 -1</clus>
</clustering>
</event>
<event>
 6    0  0.1631680E+002  0.8726156E+02  0.7546771E-02  0.1309622E+00
         -4   -1    0    0    0  501 -0.00000000000E+00  0.00000000000E+00  0.13856537985E+04  0.13856537985E+04  0.00000000000E+00 0.  1.
         21   -1    0    0  504  502  0.00000000000E+00 -0.00000000000E+00 -0.33765486935E+03  0.33765486935E+03  0.00000000000E+00 0. -1.
         21    1    1    2  503  502 -0.53826482356E+02 -0.79161950843E+01 -0.12299508583E+03  0.13449069665E+03  0.00000000000E+00 0. -1.
         21    1    1    2  504  501  0.44010487834E+02 -0.22191582612E+02  0.32094065368E+02  0.58816820809E+02  0.00000000000E+00 0.  1.
         21    1    1    2  505  503  0.52796345148E+02 -0.46015324938E+02 -0.18779505767E+03  0.20042915924E+03  0.00000000000E+00 0. -1.
         -4    1    1    2    0  505 -0.42980350627E+02  0.76123102635E+02  0.13266950073E+04  0.13295719911E+04  0.00000000000E+00 0.  1.
<scales pt_clust_3="40.01770" pt_clust_4="49.28884" pt_clust_5="14000.00000" pt_clust_6="87.26156"></scales>
<clustering>
<clus scale="   49.289">  2  4  1 -1</clus>
<clus scale="   40.018">  2  3  1 -1</clus>
<clus scale="   87.262">  1  6  2 -1</clus>
<clus scale="   49.289">  2  3  1 -1</clus>
</clustering>
</event>
<event>
 6    0  0.1631680E+002  0.1641679E+03  0.7546771E-02  0.1184070E+00
         21   -1    0    0  505  502  0.00000000000E+00  0.00000000000E+00  0.27328766286E+03  0.27328766286E+03  0.00000000000E+00 0.  1.
          2   -1    0    0  504    0 -0.00000000000E+00 -0.00000000000E+00 -0.29707198432E+03  0.29707198432E+03  0.00000000000E+00 0. -1.
         21    1    1    2  503  502  0.29616607382E+02 -0.29972974566E+02  0.76086687697E+02  0.86975322258E+02  0.00000000000E+00 0.  1.
         21    1    1    2  504  503 -0.15974255228E+02 -0.15042462249E+03 -0.12776990966E+03  0.19800983233E+03  0.00000000000E+00 0.  1.
         21    1    1    2  505  501 -0.39791386029E+02 -0.92349434471E+01  0.77517056871E+02  0.87621530964E+02  0.00000000000E+00 0.  1.
          2    1    1    2  501    0  0.26149033874E+02  0.18963254051E+03 -0.49618156359E+02  0.19775296163E+03  0.00000000000E+00 0. -1.
<scales pt_clust_3="36.18752" pt_clust_4="14000.00000" pt_clust_5="40.84897" pt_clust_6="164.16795"></scales>
<clustering>
<clus scale="   40.849">  1  5  2 -1</clus>
<clus scale="   36.188">  1  3  2 -1</clus>
<clus scale="  164.168">  1  6  2 -1</clus>
<clus scale="   40.849">  1  3  2 -1</clus>
</clustering>
</event>
<event>
 6    0  0.1631680E+002  0.9403217E+02  0.7546771E-02  0.1293371E+00
         21   -1    0    0  503  502  0.00000000000E+00  0.00000000000E+00  0.30270650844E+03  0.30270650844E+03  0.00000000000E+00 0. -1.
          2   -1    0    0  505    0 -0.00000000000E+00 -0.00000000000E+00 -0.74463240131E+03  0.74463240131E+03  0.00000000000E+00 0. -1.
         21    1    1    2  503  501 -0.12355630281E+03  0.31466541270E+01  0.26951242591E+03  0.29650128013E+03  0.00000000000E+00 0. -1.
         21    1    1    2  504  502  0.30316210137E+02 -0.53331775159E+01 -0.78876645343E+01  0.31776258925E+02  0.00000000000E+00 0.  1.
         21    1    1    2  505  504  0.15185924039E+00  0.39377217090E+02 -0.32826909356E+03  0.33062242222E+03  0.00000000000E+00 0. -1.
          2    1    1    2  501    0  0.93088233429E+02 -0.37190693701E+02 -0.37528156069E+03  0.38843894848E+03  0.00000000000E+00 0. -1.
<scales pt_clust_3="94.03217" pt_clust_4="30.78174" pt_clust_5="39.35659" pt_clust_6="14000.00000"></scales>
<clustering>
<clus scale="   30.782">  1  4  2 -1</clus>
<clus scale="   39.357">  2  5  1 -1</clus>
<clus scale="   94.032">  1  3  2 -1</clus>
<clus scale="   30.782">  1  3  2 -1</clus>
</clustering>
</event>
<event>
 6    0  0.1631680E+002  0.8473124E+02  0.7546771E-02  0.1316137E+00
          2   -1    0    0  505    0 -0.00000000000E+00  0.00000000000E+00  0.30280105973E+04  0.30280105973E+04  0.00000000000E+00 0.  1.
         21   -1    0    0  504  502  0.00000000000E+00 -0.00000000000E+00 -0.13736820728E+03  0.13736820728E+03  0.00000000000E+00 0. -1.
         21    1    1    2  503  502  0.58200216228E+02  0.89446850894E+02 -0.10437671907E+03  0.14927325209E+03  0.00000000000E+00 0. -1.
         21    1    1    2  504  501 -0.40428061678E+02 -0.74075064034E+01  0.39362400301E+02  0.56909558772E+02  0.00000000000E+00 0.  1.
         21    1    1    2  505  503 -0.14251659438E+02  0.27037021643E+02  0.37949736642E+03  0.38072609768E+03  0.00000000000E+00 0. -1.
          2    1    1    2  501    0 -0.35204951125E+01 -0.10907636613E+03  0.25761593424E+04  0.25784698961E+04  0.00000000000E+00 0.  1.
<scales pt_clust_3="14000.00000" pt_clust_4="41.27075" pt_clust_5="30.56322" pt_clust_6="84.73124"></scales>
<clustering>
<clus scale="   30.563">  1  5  2 -1</clus>
<clus scale="   41.271">  2  4  1 -1</clus>
<clus scale="   84.731">  1  6  2 -1</clus>
<clus scale="   41.271">  2  3  1 -1</clus>
</clustering>
</event>
<event>
 6    0  0.1631680E+002  0.1415542E+03  0.7546771E-02  0.1211253E+00
         21   -1    0    0  504  502  0.00000000000E+00  0.00000000000E+00  0.14128856497E+04  0.14128856497E+04  0.00000000000E+00 0. -1.
          2   -1    0    0  505    0 -0.00000000000E+00 -0.00000000000E+00 -0.13262311845E+04  0.13262311845E+04  0.00000000000E+00 0. -1.
         21    1    1    2  503  501 -0.38948981912E+02 -0.60845402587E+02  0.60430027367E+02  0.94185850399E+02  0.00000000000E+00 0. -1.
         21    1    1    2  504  503 -0.23879671976E+02 -0.21223503777E+02  0.11592690224E+04  0.11597091628E+04  0.00000000000E+00 0. -1.
         21    1    1    2  505  502  0.50299960761E+02 -0.60894001252E+02  0.16306784561E+03  0.18118854190E+03  0.00000000000E+00 0. -1.
          2    1    1    2  501    0  0.12528693127E+02  0.14296290762E+03 -0.12961124302E+04  0.13040332791E+04  0.00000000000E+00 0. -1.
<scales pt_clust_3="81.66795" pt_clust_4="31.94802" pt_clust_5="14000.00000" pt_clust_6="141.55419"></scales>
<clustering>
<clus scale="   31.948">  1  4  2 -1</clus>
<clus scale="   81.668">  1  3  2 -1</clus>
<clus scale="  141.554">  2  6  1 -1</clus>
<clus scale="   31.948">  1  3  2 -1</clus>
</clustering>
</event>
<event>
 6    0  0.1631680E+002  0.3693897E+03  0.7546771E-02  0.1054927E+00
         21   -1    0    0  505  502  0.00000000000E+00  0.00000000000E+00  0.23698637018E+03  0.23698637018E+03  0.00000000000E+00 0.  1.
          1   -1    0    0  503    0 -0.00000000000E+00 -0.00000000000E+00 -0.20345253148E+04  0.20345253148E+04  0.00000000000E+00 0.  1.
         21    1    1    2  503  502  0.17303900013E+03  0.47717575380E+01  0.79966999930E+02  0.19068294709E+03  0.00000000000E+00 0.  1.
         21    1    1    2  504  501  0.10700943382E+02  0.60475912751E+02 -0.14836389155E+03  0.16057300685E+03  0.00000000000E+00 0. -1.
         21    1    1    2  505  504 -0.15725475669E+02 -0.32583967935E+03 -0.25554912453E+03  0.41439611759E+03  0.00000000000E+00 0.  1.
          1    1    1    2  501    0 -0.16801446784E+03  0.26059200906E+03 -0.14735929285E+04  0.15058596135E+04  0.00000000000E+00 0.  1.
<scales pt_clust_3="173.10478" pt_clust_4="60.40591" pt_clust_5="343.55082" pt_clust_6="60.40591"></scales>
<clustering>
<clus scale="   60.406">  4  6 -1 -1</clus>
<clus scale="  173.105">  1  3  2 -1</clus>
<clus scale="  343.551">  1  5  2 -1</clus>
<clus scale="  173.105">  1  3  2 -1</clus>
</clustering>
</event>
<event>
 6    0  0.1631680E+002  0.1509967E+03  0.7546771E-02  0.1199254E+00
          1   -1    0    0  503    0 -0.00000000000E+00  0.00000000000E+00  0.23634948129E+04  0.23634948129E+04  0.00000000000E+00 0. -1.
         21   -1    0    0  505  502  0.00000000000E+00 -0.00000000000E+00 -0.74893496769E+02  0.74893496769E+02  0.00000000000E+00 0.  1.
         21    1    1    2  503  504 -0.40906511131E+02  0.24617942118E+02  0.18599886654E+03  0.19202855018E+03  0.00000000000E+00 0.  1.
         21    1    1    2  504  502 -0.13089172816E+03 -0.22256073133E+02  0.10866182656E+03  0.17156739155E+03  0.00000000000E+00 0.  1.
         21    1    1    2  505  501  0.24956526392E+00  0.10468653713E+03  0.42632045568E+02  0.11303461703E+03  0.00000000000E+00 0.  1.
          1    1    1    2  501    0  0.17154867402E+03 -0.10704840611E+03  0.19513085774E+04  0.19617577509E+04  0.00000000000E+00 0. -1.
<scales pt_clust_3="47.74291" pt_clust_4="150.99673" pt_clust_5="105.57470" pt_clust_6="14000.00000"></scales>
<clustering>
<clus scale="   47.743">  1  3  2 -1</clus>
<clus scale="  105.575">  2  5  1 -1</clus>
<clus scale="  150.997">  2  4  1 -1</clus>
<clus scale="  105.575">  2  3  1 -1</clus>
</clustering>
</event>
<event>
 6    0  0.1631680E+002  0.1351742E+03  0.7546771E-02  0.1219974E+00
         21   -1    0    0  501  502  0.00000000000E+00  0.00000000000E+00  0.15474873265E+02  0.15474873265E+02  0.00000000000E+00 0. -1.
          2   -1    0    0  504    0 -0.00000000000E+00 -0.00000000000E+00 -0.33261465066E+04  0.33261465066E+04  0.00000000000E+00 0. -1.
         21    1    1    2  503  505 -0.84696871540E+02  0.89150028307E+02 -0.90383219685E+03  0.91215893772E+03  0.00000000000E+00 0. -1.
         21    1    1    2  504  503 -0.29027716994E+02 -0.13256947732E+02 -0.16475372896E+04  0.16478463143E+04  0.00000000000E+00 0. -1.
         21    1    1    2  505  502  0.99794721813E+01  0.32762849288E+02 -0.11257997434E+03  0.11767431657E+03  0.00000000000E+00 0. -1.
          2    1    1    2  501    0  0.10374511635E+03 -0.10865592986E+03 -0.64672217256E+03  0.66394181126E+03  0.00000000000E+00 0. -1.
<scales pt_clust_3="14000.00000" pt_clust_4="31.91168" pt_clust_5="32.83996" pt_clust_6="135.17424"></scales>
<clustering>
<clus scale="   31.912">  2  4  1 -1</clus>
<clus scale="   32.840">  1  5  2 -1</clus>
<clus scale="  135.174">  1  6  2 -1</clus>
<clus scale="   32.840">  1  3  2 -1</clus>
</clustering>
</event>
<event>
 6    0  0.1631680E+002  0.1252425E+03  0.7546771E-02  0.1234691E+00
         21   -1    0    0  505  502  0.00000000000E+00  0.00000000000E+00  0.17816319835E+03  0.17816319835E+03  0.00000000000E+00 0. -1.
          2   -1    0    0  504    0 -0.00000000000E+00 -0.00000000000E+00 -0.38828334435E+04  0.38828334435E+04  0.00000000000E+00 0. -1.
         21    1    1    2  503  501  0.45657526652E+02 -0.60473073119E+02 -0.11899903261E+03  0.14107576714E+03  0.00000000000E+00 0.  1.
         21    1    1    2  504  502 -0.23291539895E+02 -0.24206862946E+02 -0.70191137153E+03  0.70271476541E+03  0.00000000000E+00 0.  1.
         21    1    1    2  505  503 -0.34031639874E+02  0.13283120963E+03  0.13829183751E+03  0.19474833783E+03  0.00000000000E+00 0. -1.
          2    1    1    2  501    0  0.11665653117E+02 -0.48151273565E+02 -0.30220516785E+04  0.30224577714E+04  0.00000000000E+00 0. -1.
<scales pt_clust_3="14000.00000" pt_clust_4="33.59268" pt_clust_5="125.24254" pt_clust_6="71.91931"></scales>
<clustering>
<clus scale="   33.593">  2  4  1 -1</clus>
<clus scale="   71.919">  2  6  1 -1</clus>
<clus scale="  125.243">  1  5  2 -1</clus>
<clus scale="  125.243">  1  3  2 -1</clus>
</clustering>
</event>
<event>
 6    0  0.1631680E+002  0.1150983E+03  0.7546771E-02  0.1251410E+00
          2   -1    0    0  503    0 -0.00000000000E+00  0.00000000000E+00  0.81341642388E+03  0.81341642388E+03  0.00000000000E+00 0. -1.
         21   -1    0    0  505  502  0.00000000000E+00 -0.00000000000E+00 -0.15342752915E+03  0.15342752915E+03  0.00000000000E+00 0.  1.
         21    1    1    2  503  504 -0.42317938533E+02  0.25582895570E+02  0.46164259777E+03  0.46428351311E+03  0.00000000000E+00 0. -1.
         21    1    1    2  504  502  0.10449155242E+03 -0.14710208394E+03 -0.51959745853E+02  0.18776933407E+03  0.00000000000E+00 0.  1.
         21    1    1    2  505  501 -0.43916091656E+02  0.42836473507E+02  0.11137046173E+02  0.62350784809E+02  0.00000000000E+00 0. -1.
          2    1    1    2  501    0 -0.18257522234E+02  0.78682714864E+02  0.23916899663E+03  0.25244032104E+03  0.00000000000E+00 0. -1.
<scales pt_clust_3="49.44990" pt_clust_4="115.09831" pt_clust_5="66.40760" pt_clust_6="14000.00000"></scales>
<clustering>
<clus scale="   49.450">  1  3  2 -1</clus>
<clus scale="   66.408">  2  5  1 -1</clus>
<clus scale="  115.098">  2  4  1 -1</clus>
<clus scale="   66.408">  2  3  1 -1</clus>
</clustering>
</event>
<event>
 6    0  0.1631680E+002  0.9714299E+02  0.7546771E-02  0.1286421E+00
         21   -1    0    0  505  502  0.00000000000E+00  0.00000000000E+00  0.34141166548E+03  0.34141166548E+03  0.00000000000E+00 0. -1.
         -3   -1    0    0    0  501 -0.00000000000E+00 -0.00000000000E+00 -0.58004914254E+03  0.58004914254E+03  0.00000000000E+00 0. -1.
         21    1    1    2  503  501  0.24595098640E+02 -0.34770403456E+02 -0.10548675568E+03  0.11376007849E+03  0.00000000000E+00 0. -1.
         21    1    1    2  504  503 -0.88884617371E+01  0.16822483486E+03  0.75835637350E+02  0.18474210053E+03  0.00000000000E+00 0.  1.
         21    1    1    2  505  504  0.11748440467E+02 -0.72051543259E+02  0.19769979253E+03  0.21074785576E+03  0.00000000000E+00 0. -1.
         -3    1    1    2    0  502 -0.27455077369E+02 -0.61402888149E+02 -0.40668615125E+03  0.41221077323E+03  0.00000000000E+00 0. -1.
<scales pt_clust_3="42.58990" pt_clust_4="97.14299" pt_clust_5="73.53436" pt_clust_6="14000.00000"></scales>
<clustering>
<clus scale="   42.590">  2  3  1 -1</clus>
<clus scale="   73.534">  1  5  2 -1</clus>
<clus scale="   97.143">  1  4  2 -1</clus>
<clus scale="   73.534">  1  3  2 -1</clus>
</clustering>
</event>
<event>
 6    0  0.1631680E+002  0.5755029E+03  0.7546771E-02  0.9957575E-01
         21   -1    0    0  505  502  0.00000000000E+00  0.00000000000E+00  0.71216469968E+03  0.71216469968E+03  0.00000000000E+00 0. -1.
         -1   -1    0    0    0  501 -0.00000000000E+00 -0.00000000000E+00 -0.14393624006E+04  0.14393624006E+04  0.00000000000E+00 0. -1.
         21    1    1    2  503  502  0.41213539633E+03  0.43304124573E+03  0.35184152435E+03  0.69366617596E+03  0.00000000000E+00 0. -1.
         21    1    1    2  504  503 -0.37072425774E+02 -0.23075918037E+02 -0.20759605259E+03  0.21213906711E+03  0.00000000000E+00 0.  1.
         21    1    1    2  505  501 -0.69416503638E+02  0.73546303335E+00  0.11500768319E+03  0.13433524882E+03  0.00000000000E+00 0.  1.
         -1    1    1    2    0  504 -0.30564646692E+03 -0.41070079073E+03 -0.98645085591E+03  0.11113866084E+04  0.00000000000E+00 0. -1.
<scales pt_clust_3="557.53913" pt_clust_4="41.66651" pt_clust_5="69.42040" pt_clust_6="41.66651"></scales>
<clustering>
<clus scale="   41.667">  4  6 -1 -1</clus>
<clus scale="   69.420">  1  5  2 -1</clus>
<clus scale="  557.539">  1  3  2 -1</clus>
<clus scale="   69.420">  1  3  2 -1</clus>
</clustering>
</event>
<event>
 6    0  0.1631680E+002  0.1926691E+03  0.7546771E-02  0.1156076E+00
         21   -1    0    0  501  502  0.00000000000E+00  0.00000000000E+00  0.11672034204E+03  0.11672034204E+03  0.00000000000E+00 0.  1.
          2   -1    0    0  503    0 -0.00000000000E+00 -0.00000000000E+00 -0.26554748051E+04  0.26554748051E+04  0.00000000000E+00 0.  1.
         21    1    1    2  503  505 -0.84657649332E+01 -0.36543872687E+02 -0.14406216696E+03  0.14886581796E+03  0.00000000000E+00 0. -1.
         21    1    1    2  504  502  0.76122277491E+02 -0.86064066689E+01  0.31088709170E+02  0.82675142601E+02  0.00000000000E+00 0.  1.
         21    1    1    2  505  504  0.76550698995E+02 -0.80981945133E+02 -0.42097127504E+01  0.11151594790E+03  0.00000000000E+00 0.  1.
          2    1    1    2  501    0 -0.14420721155E+03  0.12613222449E+03 -0.24215712925E+04  0.24291382387E+04  0.00000000000E+00 0.  1.
<scales pt_clust_3="37.51165" pt_clust_4="62.18528" pt_clust_5="62.18528" pt_clust_6="177.39449"></scales>
<clustering>
<clus scale="   37.512">  2  3  1 -1</clus>
<clus scale="   62.185">  4  5 -1 -1</clus>
<clus scale="  177.394">  2  6  1 -1</clus>
<clus scale="  192.669">  1  3  2 -1</clus>
</clustering>
</event>
<event>
 6    0  0.1631680E+002  0.6570228E+02  0.7546771E-02  0.1375349E+00
         -1   -1    0    0    0  501 -0.00000000000E+00  0.00000000000E+00  0.21132755901E+03  0.21132755901E+03  0.00000000000E+00 0.  1.
         21   -1    0    0  505  502  0.00000000000E+00 -0.00000000000E+00 -0.11808059990E+03  0.11808059990E+03  0.00000000000E+00 0. -1.
         21    1    1    2  503  504 -0.51464280240E+01 -0.52980107147E+02 -0.87406137797E+01  0.53942337768E+02  0.00000000000E+00 0. -1.
         21    1    1    2  504  501  0.48916856355E+02 -0.25883070395E+02  0.82788123434E+02  0.99582456037E+02  0.00000000000E+00 0.  1.
         21    1    1    2  505  503  0.42044272133E+02  0.91306797553E+01 -0.32402105720E+02  0.53860807523E+02  0.00000000000E+00 0. -1.
         -1    1    1    2    0  502 -0.85814700464E+02  0.69732497786E+02  0.51601555168E+02  0.12202255758E+03  0.00000000000E+00 0.  1.
<scales pt_clust_3="50.71026" pt_clust_4="65.70228" pt_clust_5="43.02430" pt_clust_6="14000.00000"></scales>
<clustering>
<clus scale="   43.024">  2  5  1 -1</clus>
<clus scale="   50.710">  2  3  1 -1</clus>
<clus scale="   65.702">  1  4  2 -1</clus>
<clus scale="   43.024">  2  3  1 -1</clus>
</clustering>
</event>
<event>
 6    0  0.1631680E+002  0.9672513E+02  0.7546771E-02  0.1287337E+00
         -1   -1    0    0    0  501 -0.00000000000E+00  0.00000000000E+00  0.64298977675E+03  0.64298977675E+03  0.00000000000E+00 0. -1.
         21   -1    0    0  504  502  0.00000000000E+00 -0.00000000000E+00 -0.42715665608E+03  0.42715665608E+03  0.00000000000E+00 0.  1.
         21    1    1    2  503  502  0.76995489741E+02  0.28507006213E+02 -0.17389605886E+03  0.19230391086E+03  0.00000000000E+00 0. -1.
         21    1    1    2  504  505 -0.11516912280E+03 -0.39425057130E+02 -0.21982274384E+03  0.25127733818E+03  0.00000000000E+00 0.  1.
         21    1    1    2  505  501 -0.13961414303E+02 -0.31205041875E+02  0.38070865065E+02  0.51167045005E+02  0.00000000000E+00 0.  1.
         -1    1    1    2    0  503  0.52135047367E+02  0.42123092791E+02  0.57148105831E+03  0.57539813878E+03  0.00000000000E+00 0. -1.
<scales pt_clust_3="96.72513" pt_clust_4="14000.00000" pt_clust_5="34.18590" pt_clust_6="40.63571"></scales>
<clustering>
<clus scale="   34.186">  1  5  2 -1</clus>
<clus scale="   40.636">  1  6  2 -1</clus>
<clus scale="   96.725">  2  3  1 -1</clus>
<clus scale="   96.725">  2  3  1 -1</clus>
</clustering>
</event>
<event>
 6    0  0.1631680E+002  0.2899143E+03  0.7546771E-02  0.1090394E+00
          2   -1    0    0  505    0 -0.00000000000E+00  0.00000000000E+00  0.36588919267E+04  0.36588919267E+04  0.00000000000E+00 0.  1.
         21   -1    0    0  504  502  0.00000000000E+00 -0.00000000000E+00 -0.40060373102E+03  0.40060373102E+03  0.00000000000E+00 0. -1.
         21    1    1    2  503  502  0.26670602017E+03 -0.18053450252E+03 -0.18977399667E+03  0.37381677010E+03  0.00000000000E+00 0. -1.
         21    1    1    2  504  501 -0.83340645061E+01  0.51760914965E+02 -0.10219393979E+03  0.11485752165E+03  0.00000000000E+00 0. -1.
         21    1    1    2  505  503  0.32026707285E+02  0.53774842378E+02  0.11808868735E+04  0.11825443973E+04  0.00000000000E+00 0.  1.
          2    1    1    2  501    0 -0.29039866295E+03  0.74998745178E+02  0.23693692587E+04  0.23882769687E+04  0.00000000000E+00 0.  1.
<scales pt_clust_3="289.91432" pt_clust_4="52.42756" pt_clust_5="62.70364" pt_clust_6="14000.00000"></scales>
<clustering>
<clus scale="   52.428">  2  4  1 -1</clus>
<clus scale="   62.704">  1  5  2 -1</clus>
<clus scale="  289.914">  2  3  1 -1</clus>
<clus scale="   52.428">  2  3  1 -1</clus>
</clustering>
</event>
<event>
 6    0  0.1631680E+002  0.1539704E+03  0.7546771E-02  0.1195677E+00
         21   -1    0    0  505  502  0.00000000000E+00  0.00000000000E+00  0.73671834037E+02  0.73671834037E+02  0.00000000000E+00 0.  1.
          1   -1    0    0  503    0 -0.00000000000E+00 -0.00000000000E+00 -0.24688684553E+04  0.24688684553E+04  0.00000000000E+00 0.  1.
         21    1    1    2  503  504  0.13974470853E+03 -0.11860353811E+02 -0.12046805483E+04  0.12128167524E+04  0.00000000000E+00 0.  1.
         21    1    1    2  504  502  0.28777238870E+02  0.10320725951E+02  0.19246954897E+02  0.36126058932E+02  0.00000000000E+00 0. -1.
         21    1    1    2  505  501 -0.48190431717E+02  0.14815115025E+03 -0.14751858294E+03  0.21455258875E+03  0.00000000000E+00 0.  1.
          1    1    1    2  501    0 -0.12033151568E+03 -0.14661152238E+03 -0.10622444449E+04  0.10790448892E+04  0.00000000000E+00 0.  1.
<scales pt_clust_3="142.71100" pt_clust_4="30.57199" pt_clust_5="153.97037" pt_clust_6="14000.00000"></scales>
<clustering>
<clus scale="   30.572">  1  4  2 -1</clus>
<clus scale="  142.711">  2  3  1 -1</clus>
<clus scale="  153.970">  1  5  2 -1</clus>
<clus scale="   30.572">  1  3  2 -1</clus>
</clustering>
</event>
<event>
 6    0  0.1631680E+002  0.1111622E+03  0.7546771E-02  0.1258433E+00
         21   -1    0    0  503  502  0.00000000000E+00  0.00000000000E+00  0.13386925930E+03  0.13386925930E+03  0.00000000000E+00 0. -1.
          2   -1    0    0  504    0 -0.00000000000E+00 -0.00000000000E+00 -0.20897171061E+04  0.20897171061E+04  0.00000000000E+00 0.  1.
         21    1    1    2  503  501  0.50735292970E+02  0.39774984902E+02  0.11464386181E+03  0.13152693423E+03  0.00000000000E+00 0. -1.
         21    1    1    2  504  505 -0.18719329583E+02  0.33010270284E+02 -0.71606977019E+03  0.71707461748E+03  0.00000000000E+00 0.  1.
         21    1    1    2  505  502  0.79188592541E+02  0.28216637438E+02 -0.39237017011E+03  0.40127467178E+03  0.00000000000E+00 0.  1.
          2    1    1    2  501    0 -0.11120455593E+03 -0.10100189262E+03 -0.96205176835E+03  0.97371014196E+03  0.00000000000E+00 0.  1.
<scales pt_clust_3="64.50302" pt_clust_4="37.94853" pt_clust_5="14000.00000" pt_clust_6="111.16219"></scales>
<clustering>
<clus scale="   37.949">  2  4  1 -1</clus>
<clus scale="   64.503">  1  3  2 -1</clus>
<clus scale="  111.162">  1  6  2 -1</clus>
<clus scale="   64.503">  1  3  2 -1</clus>
</clustering>
</event>
<event>
 6    0  0.1631680E+002  0.9268625E+02  0.7546771E-02  0.1296474E+00
          1   -1    0    0  505    0 -0.00000000000E+00  0.00000000000E+00  0.56740576549E+03  0.56740576549E+03  0.00000000000E+00 0. -1.
         21   -1    0    0  504  502  0.00000000000E+00 -0.00000000000E+00 -0.18644918639E+03  0.18644918639E+03  0.00000000000E+00 0.  1.
         21    1    1    2  503  502  0.20344734620E+02 -0.48910872707E+02  0.19799833906E+02  0.56552764021E+02  0.00000000000E+00 0. -1.
         21    1    1    2  504  501 -0.11799106054E+02  0.36394738039E+02 -0.14922667215E+03  0.15405322308E+03  0.00000000000E+00 0.  1.
         21    1    1    2  505  503  0.75905997270E+02 -0.40677612302E+02  0.22520281459E+03  0.24110722980E+03  0.00000000000E+00 0. -1.
          1    1    1    2  501    0 -0.84451625836E+02  0.53193746971E+02  0.28518060276E+03  0.30214173497E+03  0.00000000000E+00 0. -1.
<scales pt_clust_3="32.88145" pt_clust_4="38.25959" pt_clust_5="92.68625" pt_clust_6="14000.00000"></scales>
<clustering>
<clus scale="   38.260">  2  4  1 -1</clus>
<clus scale="   32.881">  2  3  1 -1</clus>
<clus scale="   92.686">  1  5  2 -1</clus>
<clus scale="   38.260">  2  3  1 -1</clus>
</clustering>
</event>
<event>
 6    0  0.1631680E+002  0.9665777E+02  0.7546771E-02  0.1287485E+00
          1   -1    0    0  505    0 -0.00000000000E+00  0.00000000000E+00  0.62323775352E+03  0.62323775352E+03  0.00000000000E+00 0.  1.
         21   -1    0    0  503  502  0.00000000000E+00 -0.00000000000E+00 -0.11928028298E+03  0.11928028298E+03  0.00000000000E+00 0. -1.
         21    1    1    2  503  504 -0.28778519100E+02 -0.16290714977E+02 -0.71793214013E+02  0.79043381345E+02  0.00000000000E+00 0. -1.
         21    1    1    2  504  501 -0.70677056720E+02  0.14989367506E+02  0.85570794413E+01  0.72754045203E+02  0.00000000000E+00 0. -1.
         21    1    1    2  505  502 -0.32125622614E+02  0.66244244668E+01  0.94767242076E+02  0.10028344230E+03  0.00000000000E+00 0.  1.
          1    1    1    2  501    0  0.13158119843E+03 -0.53230769958E+01  0.47242636303E+03  0.49043716766E+03  0.00000000000E+00 0.  1.
<scales pt_clust_3="33.24009" pt_clust_4="14000.00000" pt_clust_5="32.80150" pt_clust_6="96.65777"></scales>
<clustering>
<clus scale="   32.802">  1  5  2 -1</clus>
<clus scale="   33.240">  2  3  1 -1</clus>
<clus scale="   96.658">  1  6  2 -1</clus>
<clus scale="   33.240">  2  3  1 -1</clus>
</clustering>
</event>
<event>
 6    0  0.1631680E+002  0.8552179E+02  0.7546771E-02  0.1314074E+00
         21   -1    0    0  503  502  0.00000000000E+00  0.00000000000E+00  0.21891103031E+03  0.21891103031E+03  0.00000000000E+00 0. -1.
          2   -1    0    0  504    0 -0.00000000000E+00 -0.00000000000E+00 -0.71386988009E+03  0.71386988009E+03  0.00000000000E+00 0.  1.
         21    1    1    2  503  505 -0.46842329883E+02  0.74600803743E+01  0.19577971334E+03  0.20144367159E+03  0.00000000000E+00 0. -1.
         21    1    1    2  504  502 -0.14483370600E+02 -0.30176844816E+02 -0.31210323469E+02  0.45765645173E+02  0.00000000000E+00 0.  1.
         21    1    1    2  505  501  0.18886383737E+02 -0.76625740263E+02 -0.26217598021E+03  0.27379635527E+03  0.00000000000E+00 0.  1.
          2    1    1    2  501    0  0.42439316746E+02  0.99342504705E+02 -0.39735225944E+03  0.41177523836E+03  0.00000000000E+00 0.  1.
<scales pt_clust_3="47.47292" pt_clust_4="33.47253" pt_clust_5="14000.00000" pt_clust_6="85.52179"></scales>
<clustering>
<clus scale="   33.473">  2  4  1 -1</clus>
<clus scale="   47.473">  1  3  2 -1</clus>
<clus scale="   85.522">  2  6  1 -1</clus>
<clus scale="   47.473">  1  3  2 -1</clus>
</clustering>
</event>
<event>
 6    0  0.1631680E+002  0.1251430E+03  0.7546771E-02  0.1234846E+00
         21   -1    0    0  503  502  0.00000000000E+00  0.00000000000E+00  0.12109895684E+03  0.12109895684E+03  0.00000000000E+00 0.  1.
          2   -1    0    0  504    0 -0.00000000000E+00 -0.00000000000E+00 -0.11142829773E+04  0.11142829773E+04  0.00000000000E+00 0. -1.
         21    1    1    2  503  505  0.40328314835E+02  0.45280039644E+02  0.29071218336E+02  0.67244261489E+02  0.00000000000E+00 0.  1.
         21    1    1    2  504  502 -0.17586898228E+02 -0.34033175953E+02  0.38047727999E+02  0.53992459294E+02  0.00000000000E+00 0.  1.
         21    1    1    2  505  501 -0.41875608653E+02  0.11360725767E+03 -0.13949143017E+03  0.18471067832E+03  0.00000000000E+00 0.  1.
          2    1    1    2  501    0  0.19134192046E+02 -0.12485412136E+03 -0.92081153659E+03  0.92943453500E+03  0.00000000000E+00 0. -1.
<scales pt_clust_3="37.33192" pt_clust_4="38.30869" pt_clust_5="14000.00000" pt_clust_6="125.14302"></scales>
<clustering>
<clus scale="   38.309">  1  4  2 -1</clus>
<clus scale="   37.332">  1  3  2 -1</clus>
<clus scale="  125.143">  2  6  1 -1</clus>
<clus scale="   38.309">  1  3  2 -1</clus>
</clustering>
</event>
<event>
 6    0  0.1631680E+002  0.1745246E+03  0.7546771E-02  0.1173210E+00
          1   -1    0    0  505    0 -0.00000000000E+00  0.00000000000E+00  0.32284102084E+03  0.32284102084E+03  0.00000000000E+00 0. -1.
         21   -1    0    0  504  502  0.00000000000E+00 -0.00000000000E+00 -0.98688134552E+03  0.98688134552E+03  0.00000000000E+00 0.  1.
         21    1    1    2  503  502 -0.63669542730E+02  0.36337683673E+02 -0.11135393404E+03  0.13331892796E+03  0.00000000000E+00 0.  1.
         21    1    1    2  504  501 -0.11464766706E+02  0.12245957404E+03 -0.79905884995E+03  0.80846943902E+03  0.00000000000E+00 0.  1.
         21    1    1    2  505  503 -0.23579808810E+02  0.35266535200E+02  0.47547157942E+01  0.42688912036E+02  0.00000000000E+00 0.  1.
          1    1    1    2  501    0  0.98714118246E+02 -0.19406379291E+03  0.24161774352E+03  0.32524508735E+03  0.00000000000E+00 0. -1.
<scales pt_clust_3="74.70618" pt_clust_4="174.52461" pt_clust_5="42.42329" pt_clust_6="14000.00000"></scales>
<clustering>
<clus scale="   42.423">  1  5  2 -1</clus>
<clus scale="   74.706">  2  3  1 -1</clus>
<clus scale="  174.525">  2  4  1 -1</clus>
<clus scale="   74.706">  2  3  1 -1</clus>
</clustering>
</event>
<event>
 6    0  0.1631680E+002  0.1966764E+03  0.7546771E-02  0.1152574E+00
          1   -1    0    0  505    0 -0.00000000000E+00  0.00000000000E+00  0.28295159802E+04  0.28295159802E+04  0.00000000000E+00 0. -1.
         21   -1    0    0  504  502  0.00000000000E+00 -0.00000000000E+00 -0.65826937443E+02  0.65826937443E+02  0.00000000000E+00 0.  1.
         21    1    1    2  503  502 -0.23875330531E+02  0.18133727052E+03  0.81802360705E+02  0.20036183096E+03  0.00000000000E+00 0.  1.
         21    1    1    2  504  501  0.35729118443E+01 -0.70429493325E+02  0.96843680299E+03  0.97100098898E+03  0.00000000000E+00 0. -1.
         21    1    1    2  505  503 -0.84898106901E+01  0.29102566180E+02  0.68193190385E+03  0.68260541877E+03  0.00000000000E+00 0.  1.
          1    1    1    2  501    0  0.28792229376E+02 -0.14001034338E+03  0.10315179752E+04  0.10413746789E+04  0.00000000000E+00 0. -1.
<scales pt_clust_3="184.87111" pt_clust_4="44.83584" pt_clust_5="30.31561" pt_clust_6="44.83584"></scales>
<clustering>
<clus scale="   30.316">  1  5  2 -1</clus>
<clus scale="   44.836">  4  6 -1 -1</clus>
<clus scale="  184.871">  2  3  1 -1</clus>
<clus scale="  184.871">  2  3  1 -1</clus>
</clustering>
</event>
<event>
 6    0  0.1631680E+002  0.1157915E+03  0.7546771E-02  0.1250206E+00
          2   -1    0    0  503    0 -0.00000000000E+00  0.00000000000E+00  0.25588945004E+04  0.25588945004E+04  0.00000000000E+00 0. -1.
         21   -1    0    0  504  502  0.00000000000E+00 -0.00000000000E+00 -0.19952836031E+03  0.19952836031E+03  0.00000000000E+00 0. -1.
         21    1    1    2  503  502  0.15577320168E+02  0.10677243879E+03  0.59253950299E+03  0.60228404362E+03  0.00000000000E+00 0. -1.
         21    1    1    2  504  505  0.10605184564E+02 -0.28260440920E+02 -0.15521143786E+03  0.15811929960E+03  0.00000000000E+00 0. -1.
         21    1    1    2  505  501  0.26507585267E+01 -0.92647067143E+02  0.18877271291E+02  0.94587826607E+02  0.00000000000E+00 0. -1.
          2    1    1    2  501    0 -0.28833263259E+02  0.14135069271E+02  0.19031608036E+04  0.19034316909E+04  0.00000000000E+00 0. -1.
<scales pt_clust_3="115.79150" pt_clust_4="30.18481" pt_clust_5="14000.00000" pt_clust_6="32.04231"></scales>
<clustering>
<clus scale="   30.185">  2  4  1 -1</clus>
<clus scale="   32.042">  1  6  2 -1</clus>
<clus scale="  115.791">  1  3  2 -1</clus>
<clus scale="   30.185">  2  3  1 -1</clus>
</clustering>
</event>
<event>
 6    0  0.1631680E+002  0.8930845E+02  0.7546771E-02  0.1304535E+00
         21   -1    0    0  503  502  0.00000000000E+00  0.00000000000E+00  0.21005959954E+02  0.21005959954E+02  0.00000000000E+00 0.  1.
          2   -1    0    0  504    0 -0.00000000000E+00 -0.00000000000E+00 -0.24131761787E+04  0.24131761787E+04  0.00000000000E+00 0.  1.
         21    1    1    2  503  501  0.18439112277E+02 -0.83307492588E+02 -0.12166430538E+03  0.14860128663E+03  0.00000000000E+00 0.  1.
         21    1    1    2  504  505 -0.43494822794E+02  0.30372660856E+01 -0.40899241673E+03  0.41130988504E+03  0.00000000000E+00 0. -1.
         21    1    1    2  505  502  0.69304653241E+02  0.31472039742E+02 -0.24810377705E+03  0.25951706771E+03  0.00000000000E+00 0.  1.
          2    1    1    2  501    0 -0.44248942724E+02  0.48798186760E+02 -0.16134097196E+04  0.16147538993E+04  0.00000000000E+00 0.  1.
<scales pt_clust_3="14000.00000" pt_clust_4="43.60074" pt_clust_5="71.30528" pt_clust_6="89.30845"></scales>
<clustering>
<clus scale="   43.601">  2  4  1 -1</clus>
<clus scale="   71.305">  1  5  2 -1</clus>
<clus scale="   89.308">  2  6  1 -1</clus>
<clus scale="   71.305">  1  3  2 -1</clus>
</clustering>
</event>
<event>
 6    0  0.1631680E+002  0.8355893E+02  0.7546771E-02  0.1319245E+00
          1   -1    0    0  503    0 -0.00000000000E+00  0.00000000000E+00  0.36087999899E+03  0.36087999899E+03  0.00000000000E+00 0. -1.
         21   -1    0    0  501  502  0.00000000000E+00 -0.00000000000E+00 -0.24297645148E+03  0.24297645148E+03  0.00000000000E+00 0.  1.
         21    1    1    2  503  504  0.43446593243E+02 -0.48228569548E+01  0.42608591755E+02  0.61043906371E+02  0.00000000000E+00 0. -1.
         21    1    1    2  504  505  0.55043267413E+02 -0.14907707572E+02 -0.36026333980E+02  0.67452930052E+02  0.00000000000E+00 0.  1.
         21    1    1    2  505  502  0.30347058027E+02 -0.73244898099E+01 -0.16571764981E+03  0.16863253405E+03  0.00000000000E+00 0.  1.
          1    1    1    2  501    0 -0.12883691868E+03  0.27055054336E+02  0.27703893955E+03  0.30672708000E+03  0.00000000000E+00 0. -1.
<scales pt_clust_3="47.48189" pt_clust_4="14000.00000" pt_clust_5="31.21846" pt_clust_6="83.55893"></scales>
<clustering>
<clus scale="   31.218">  2  5  1 -1</clus>
<clus scale="   47.482">  1  3  2 -1</clus>
<clus scale="   83.559">  1  6  2 -1</clus>
<clus scale="   31.218">  2  3  1 -1</clus>
</clustering>
</event>
<event>
 6    0  0.1631680E+002  0.1347111E+03  0.7546771E-02  0.1220628E+00
         21   -1    0    0  504  502  0.00000000000E+00  0.00000000000E+00  0.41572936677E+03  0.41572936677E+03  0.00000000000E+00 0.  1.
          2   -1    0    0  503    0 -0.00000000000E+00 -0.00000000000E+00 -0.21362787741E+04  0.21362787741E+04  0.00000000000E+00 0. -1.
         21    1    1    2  503  505 -0.21551431059E+02  0.24811213749E+02 -0.20901957676E+03  0.21158743814E+03  0.00000000000E+00 0.  1.
         21    1    1    2  504  501 -0.33481779212E+02 -0.58262150456E+02  0.15498283099E+02  0.68961616092E+02  0.00000000000E+00 0.  1.
         21    1    1    2  505  502 -0.79735775692E+02 -0.15721970522E+02  0.36503117879E+03  0.37396889679E+03  0.00000000000E+00 0.  1.
          2    1    1    2  501    0  0.13476898596E+03  0.49172907230E+02 -0.18920592925E+04  0.18974901899E+04  0.00000000000E+00 0. -1.
<scales pt_clust_3="32.86427" pt_clust_4="67.04938" pt_clust_5="134.71114" pt_clust_6="14000.00000"></scales>
<clustering>
<clus scale="   32.864">  2  3  1 -1</clus>
<clus scale="   67.049">  1  4  2 -1</clus>
<clus scale="  134.711">  1  5  2 -1</clus>
<clus scale="   67.049">  1  3  2 -1</clus>
</clustering>
</event>
<event>
 6    0  0.1934026E+002  0.1043104E+03  0.7546771E-02  0.1271484E+00
         21   -1    0    0  501  502  0.00000000000E+00  0.00000000000E+00  0.20219639419E+03  0.20219639419E+03  0.00000000000E+00 0.  1.
          2   -1    0    0  504    0 -0.00000000000E+00 -0.00000000000E+00 -0.28512699134E+04  0.28512699134E+04  0.00000000000E+00 0.  1.
         21    1    1    2  503  502 -0.10166576416E+03  0.24011665926E+02  0.17780200792E+03  0.20621843207E+03  0.00000000000E+00 0.  1.
         21    1    1    2  504  505  0.31432089831E+02 -0.86005451403E+00 -0.89878002020E+02  0.95219594685E+02  0.00000000000E+00 0. -1.
         21    1    1    2  505  503 -0.20461749015E+02 -0.71953836135E+02 -0.20988201496E+03  0.22281494095E+03  0.00000000000E+00 0.  1.
          2    1    1    2  501    0  0.90695423342E+02  0.48802224723E+02 -0.25271155101E+04  0.25292133399E+04  0.00000000000E+00 0.  1.
<scales pt_clust_3="104.31035" pt_clust_4="31.44385" pt_clust_5="74.23576" pt_clust_6="14000.00000"></scales>
<clustering>
<clus scale="   31.444">  2  4  1 -1</clus>
<clus scale="   74.236">  2  5  1 -1</clus>
<clus scale="  104.310">  1  3  2 -1</clus>
<clus scale="  104.310">  1  3  2 -1</clus>
</clustering>
</event>
<event>
 6    0  0.1631680E+002  0.8788139E+02  0.7546771E-02  0.1308065E+00
          1   -1    0    0  505    0 -0.00000000000E+00  0.00000000000E+00  0.18876751687E+04  0.18876751687E+04  0.00000000000E+00 0.  1.
         21   -1    0    0  504  502  0.00000000000E+00 -0.00000000000E+00 -0.39333081437E+02  0.39333081437E+02  0.00000000000E+00 0. -1.
         21    1    1    2  503  502  0.48969522509E+02 -0.99582357362E+02  0.75491415973E+02  0.13421480514E+03  0.00000000000E+00 0. -1.
         21    1    1    2  504  501  0.10022708653E+02  0.36505217431E+02  0.42421887010E+02  0.56856856103E+02  0.00000000000E+00 0. -1.
         21    1    1    2  505  503  0.24347628775E+02  0.24684899561E+02  0.85703211529E+03  0.85773317408E+03  0.00000000000E+00 0. -1.
          1    1    1    2  501    0 -0.83339859937E+02  0.38392240370E+02  0.87339666904E+03  0.87820341485E+03  0.00000000000E+00 0.  1.
<scales pt_clust_3="87.88139" pt_clust_4="39.32204" pt_clust_5="34.67205" pt_clust_6="14000.00000"></scales>
<clustering>
<clus scale="   34.672">  1  5  2 -1</clus>
<clus scale="   39.322">  2  4  1 -1</clus>
<clus scale="   87.881">  2  3  1 -1</clus>
<clus scale="   39.322">  2  3  1 -1</clus>
</clustering>
</event>
<event>
 6    0  0.1631680E+002  0.1089166E+03  0.7546771E-02  0.1262589E+00
         21   -1    0    0  503  502  0.00000000000E+00  0.00000000000E+00  0.66484590681E+02  0.66484590681E+02  0.00000000000E+00 0.  1.
          2   -1    0    0  504    0 -0.00000000000E+00 -0.00000000000E+00 -0.13384927454E+04  0.13384927454E+04  0.00000000000E+00 0. -1.
         21    1    1    2  503  501 -0.73356165835E+02  0.12747764689E+02 -0.99090866368E+02  0.12394608654E+03  0.00000000000E+00 0. -1.
         21    1    1    2  504  505 -0.54850342384E+01 -0.39313949689E+02 -0.19455413759E+03  0.19856229424E+03  0.00000000000E+00 0.  1.
         21    1    1    2  505  502  0.13731666102E+03 -0.14365674657E+02 -0.43316079627E+02  0.14470148844E+03  0.00000000000E+00 0.  1.
          2    1    1    2  501    0 -0.58475460949E+02  0.40931859657E+02 -0.93504707113E+03  0.93776746686E+03  0.00000000000E+00 0. -1.
<scales pt_clust_3="108.91659" pt_clust_4="39.69474" pt_clust_5="14000.00000" pt_clust_6="63.57056"></scales>
<clustering>
<clus scale="   39.695">  2  4  1 -1</clus>
<clus scale="   63.571">  2  6  1 -1</clus>
<clus scale="  108.917">  2  3  1 -1</clus>
<clus scale="  108.917">  1  3  2 -1</clus>
</clustering>
</event>
<event>
 6    0  0.1631680E+002  0.1834686E+03  0.7546771E-02  0.1164488E+00
         21   -1    0    0  504  502  0.00000000000E+00  0.00000000000E+00  0.59629370003E+03  0.59629370003E+03  0.00000000000E+00 0.  1.
         -2   -1    0    0    0  501 -0.00000000000E+00 -0.00000000000E+00 -0.13662116111E+03  0.13662116111E+03  0.00000000000E+00 0.  1.
         21    1    1    2  503  501  0.42831086167E+02 -0.36034623223E+02  0.31548744352E+02  0.64251998282E+02  0.00000000000E+00 0. -1.
         21    1    1    2  504  503  0.55373225720E+02 -0.16504059824E+03  0.34250559903E+03  0.38420655716E+03  0.00000000000E+00 0.  1.
         21    1    1    2  505  502 -0.44381183561E+02 -0.95717150765E+01  0.43743331233E+02  0.63045905586E+02  0.00000000000E+00 0.  1.
         -2    1    1    2    0  505 -0.53823128325E+02  0.21064693654E+03  0.41874864299E+02  0.22141040011E+03  0.00000000000E+00 0.  1.
<scales pt_clust_3="53.61410" pt_clust_4="183.46865" pt_clust_5="45.40162" pt_clust_6="14000.00000"></scales>
<clustering>
<clus scale="   45.402">  1  5  2 -1</clus>
<clus scale="   53.614">  2  3  1 -1</clus>
<clus scale="  183.469">  1  4  2 -1</clus>
<clus scale="   45.402">  1  3  2 -1</clus>
</clustering>
</event>
<event>
 6    0  0.1631680E+002  0.9157097E+02  0.7546771E-02  0.1299091E+00
         21   -1    0    0  504  502  0.00000000000E+00  0.00000000000E+00  0.54700889525E+03  0.54700889525E+03  0.00000000000E+00 0. -1.
          1   -1    0    0  505    0 -0.00000000000E+00 -0.00000000000E+00 -0.22692353813E+03  0.22692353813E+03  0.00000000000E+00 0. -1.
         21    1    1    2  503  501 -0.73076800900E+02 -0.35500485073E+02  0.11245193885E+03  0.13872974382E+03  0.00000000000E+00 0. -1.
         21    1    1    2  504  503  0.15459073507E+02  0.42039751094E+02  0.36304408147E+03  0.36579684077E+03  0.00000000000E+00 0. -1.
         21    1    1    2  505  502  0.92089493800E+01 -0.93048856766E+02 -0.14106536066E+03  0.16924045165E+03  0.00000000000E+00 0. -1.
          1    1    1    2  501    0  0.48408778013E+02  0.86509590746E+02 -0.14345302530E+02  0.10016539714E+03  0.00000000000E+00 0. -1.
<scales pt_clust_3="62.78965" pt_clust_4="44.79200" pt_clust_5="91.57097" pt_clust_6="14000.00000"></scales>
<clustering>
<clus scale="   44.792">  1  4  2 -1</clus>
<clus scale="   62.790">  1  3  2 -1</clus>
<clus scale="   91.571">  2  5  1 -1</clus>
<clus scale="   44.792">  1  3  2 -1</clus>
</clustering>
</event>
<event>
 6    0  0.1631680E+002  0.1643028E+03  0.7546771E-02  0.1183923E+00
         21   -1    0    0  504  502  0.00000000000E+00  0.00000000000E+00  0.93509591751E+03  0.93509591751E+03  0.00000000000E+00 0. -1.
         -3   -1    0    0    0  501 -0.00000000000E+00 -0.00000000000E+00 -0.87378901251E+03  0.87378901251E+03  0.00000000000E+00 0. -1.
         21    1    1    2  503  502  0.20751414693E+02 -0.37059170001E+02  0.49089041418E+03  0.49272446867E+03  0.00000000000E+00 0. -1.
         21    1    1    2  504  505  0.27036891714E+02  0.19211277119E+03  0.40211335655E+03  0.44646776131E+03  0.00000000000E+00 0. -1.
         21    1    1    2  505  501 -0.37366716479E+02  0.41568604333E+02 -0.22530843619E+03  0.23213813083E+03  0.00000000000E+00 0. -1.
         -3    1    1    2    0  503 -0.10421589927E+02 -0.19662220553E+03 -0.60638842954E+03  0.63755456921E+03  0.00000000000E+00 0. -1.
<scales pt_clust_3="42.47356" pt_clust_4="14000.00000" pt_clust_5="55.57559" pt_clust_6="164.30276"></scales>
<clustering>
<clus scale="   42.474">  1  3  2 -1</clus>
<clus scale="   55.576">  2  5  1 -1</clus>
<clus scale="  164.303">  2  6  1 -1</clus>
<clus scale="   42.474">  1  3  2 -1</clus>
</clustering>
</event>
<event>
 6    0  0.1631680E+002  0.1383508E+03  0.7546771E-02  0.1215566E+00
         21   -1    0    0  503  502  0.00000000000E+00  0.00000000000E+00  0.38972571224E+03  0.38972571224E+03  0.00000000000E+00 0.  1.
          1   -1    0    0  505    0 -0.00000000000E+00 -0.00000000000E+00 -0.28325272142E+04  0.28325272142E+04  0.00000000000E+00 0.  1.
         21    1    1    2  503  504 -0.39079170676E+02 -0.80308317519E+02  0.33098810966E+03  0.34282610195E+03  0.00000000000E+00 0.  1.
         21    1    1    2  504  501 -0.99805449824E+02  0.70763184534E+02 -0.49636814311E+02  0.13203169860E+03  0.00000000000E+00 0.  1.
         21    1    1    2  505  502 -0.89438625446E+02 -0.62393626437E+02 -0.11478206706E+04  0.11529893860E+04  0.00000000000E+00 0.  1.
          1    1    1    2  501    0  0.22832324594E+03  0.71938759422E+02 -0.15763321267E+04  0.15944057399E+04  0.00000000000E+00 0.  1.
<scales pt_clust_3="89.31185" pt_clust_4="14000.00000" pt_clust_5="112.88799" pt_clust_6="138.35077"></scales>
<clustering>
<clus scale="   89.312">  1  3  2 -1</clus>
<clus scale="  112.888">  2  5  1 -1</clus>
<clus scale="  138.351">  2  6  1 -1</clus>
<clus scale="   89.312">  1  3  2 -1</clus>
</clustering>
</event>
<event>
 6    0  0.1631680E+002  0.9219119E+02  0.7546771E-02  0.1297631E+00
          1   -1    0    0  504    0 -0.00000000000E+00  0.00000000000E+00  0.42960522280E+03  0.42960522280E+03  0.00000000000E+00 0. -1.
         21   -1    0    0  503  502  0.00000000000E+00 -0.00000000000E+00 -0.12418600968E+03  0.12418600968E+03  0.00000000000E+00 0.  1.
         21    1    1    2  503  505  0.12168344591E+02  0.52792059561E+02 -0.38841758074E+01  0.54315347596E+02  0.00000000000E+00 0.  1.
         21    1    1    2  504  502 -0.50713033430E+02 -0.53741034596E+02  0.40361939567E+02  0.84196179989E+02  0.00000000000E+00 0.  1.
         21    1    1    2  505  501 -0.57202485799E+02  0.54562030774E+01 -0.53731885280E+02  0.78670261404E+02  0.00000000000E+00 0.  1.
          1    1    1    2  501    0  0.95747174639E+02 -0.45072280425E+01  0.32267333464E+03  0.33660944349E+03  0.00000000000E+00 0. -1.
<scales pt_clust_3="54.17629" pt_clust_4="63.43094" pt_clust_5="92.19119" pt_clust_6="14000.00000"></scales>
<clustering>
<clus scale="   54.176">  2  3  1 -1</clus>
<clus scale="   63.431">  2  4  1 -1</clus>
<clus scale="   92.191">  2  5  1 -1</clus>
<clus scale="   54.176">  2  3  1 -1</clus>
</clustering>
</event>
<event>
 6    0  0.4734862E+002  0.7951667E+02  0.7546771E-02  0.1330429E+00
          2   -1    0    0  503    0 -0.00000000000E+00  0.00000000000E+00  0.18968720574E+04  0.18968720574E+04  0.00000000000E+00 0. -1.
         21   -1    0    0  504  502  0.00000000000E+00 -0.00000000000E+00 -0.47985173952E+03  0.47985173952E+03  0.00000000000E+00 0. -1.
         21    1    1    2  503  505 -0.10068921154E+02 -0.33635248625E+02  0.26252891078E+02  0.43839792578E+02  0.00000000000E+00 0. -1.
         21    1    1    2  504  501 -0.31206011528E+02  0.16272018337E+02 -0.21766477386E+02  0.41380832205E+02  0.00000000000E+00 0.  1.
         21    1    1    2  505  502  0.10749746657E+03 -0.35929695781E+02 -0.43118128791E+03  0.44582950934E+03  0.00000000000E+00 0. -1.
          2    1    1    2  501    0 -0.66222533888E+02  0.53292926069E+02  0.18437151921E+04  0.18456736628E+04  0.00000000000E+00 0. -1.
<scales pt_clust_3="35.11001" pt_clust_4="35.15924" pt_clust_5="79.51667" pt_clust_6="14000.00000"></scales>
<clustering>
<clus scale="   35.110">  1  3  2 -1</clus>
<clus scale="   35.159">  2  4  1 -1</clus>
<clus scale="   79.517">  2  5  1 -1</clus>
<clus scale="   35.159">  2  3  1 -1</clus>
</clustering>
</event>
<event>
 6    0  0.1631680E+002  0.7920762E+02  0.7546771E-02  0.1331315E+00
         21   -1    0    0  503  502  0.00000000000E+00  0.00000000000E+00  0.55492108098E+03  0.55492108098E+03  0.00000000000E+00 0. -1.
          2   -1    0    0  504    0 -0.00000000000E+00 -0.00000000000E+00 -0.17168278096E+03  0.17168278096E+03  0.00000000000E+00 0. -1.
         21    1    1    2  503  501  0.41656887143E+02 -0.28724547769E+02  0.55580422718E+02  0.75163683255E+02  0.00000000000E+00 0. -1.
         21    1    1    2  504  505  0.46015503533E+02  0.63822192172E+02  0.12660086180E+03  0.14905863608E+03  0.00000000000E+00 0. -1.
         21    1    1    2  505  502 -0.20993423011E+02 -0.73640266284E+02  0.33729669582E+03  0.34587956523E+03  0.00000000000E+00 0. -1.
          2    1    1    2  501    0 -0.66678967664E+02  0.38542621881E+02 -0.13623968032E+03  0.15650197738E+03  0.00000000000E+00 0. -1.
<scales pt_clust_3="50.60035" pt_clust_4="14000.00000" pt_clust_5="79.20762" pt_clust_6="75.97319"></scales>
<clustering>
<clus scale="   50.600">  1  3  2 -1</clus>
<clus scale="   75.973">  2  6  1 -1</clus>
<clus scale="   79.208">  1  5  2 -1</clus>
<clus scale="   50.600">  1  3  2 -1</clus>
</clustering>
</event>
<event>
 6    0  0.1631680E+002  0.1419271E+03  0.7546771E-02  0.1210759E+00
          2   -1    0    0  504    0 -0.00000000000E+00  0.00000000000E+00  0.55979927377E+03  0.55979927377E+03  0.00000000000E+00 0. -1.
         21   -1    0    0  505  502  0.00000000000E+00 -0.00000000000E+00 -0.75147217015E+03  0.75147217015E+03  0.00000000000E+00 0. -1.
         21    1    1    2  503  501  0.76462336654E+02 -0.11768934893E+03 -0.11495492998E+03  0.18141639315E+03  0.00000000000E+00 0. -1.
         21    1    1    2  504  502  0.30222393552E+02 -0.15041553825E+02  0.20336152431E+02  0.39410664917E+02  0.00000000000E+00 0. -1.
         21    1    1    2  505  503 -0.69915978402E+01  0.31306033246E+02 -0.58311925185E+03  0.58400086647E+03  0.00000000000E+00 0. -1.
          2    1    1    2  501    0 -0.99693132367E+02  0.10142486951E+03  0.48606513302E+03  0.50644351939E+03  0.00000000000E+00 0. -1.
<scales pt_clust_3="14000.00000" pt_clust_4="32.64146" pt_clust_5="32.07725" pt_clust_6="141.92715"></scales>
<clustering>
<clus scale="   32.077">  2  5  1 -1</clus>
<clus scale="   32.641">  2  4  1 -1</clus>
<clus scale="  141.927">  1  6  2 -1</clus>
<clus scale="   32.077">  2  3  1 -1</clus>
</clustering>
</event>
<event>
 6    0  0.1631680E+002  0.8852158E+02  0.7546771E-02  0.1306472E+00
          1   -1    0    0  505    0 -0.00000000000E+00  0.00000000000E+00  0.15451499206E+04  0.15451499206E+04  0.00000000000E+00 0. -1.
         21   -1    0    0  503  502  0.00000000000E+00 -0.00000000000E+00 -0.26293336543E+02  0.26293336543E+02  0.00000000000E+00 0.  1.
         21    1    1    2  503  501 -0.67142578202E+02  0.34986918168E+02  0.32322101340E+03  0.33196992899E+03  0.00000000000E+00 0. -1.
         21    1    1    2  504  502  0.86402603156E+02 -0.34590112223E+02  0.94655084674E+02  0.13274588789E+03  0.00000000000E+00 0.  1.
         21    1    1    2  505  504  0.40631039048E+02  0.87804630756E+00  0.22067571092E+03  0.22438676808E+03  0.00000000000E+00 0. -1.
          1    1    1    2  501    0 -0.59891064002E+02 -0.12748522525E+01  0.88030477503E+03  0.88234067215E+03  0.00000000000E+00 0. -1.
<scales pt_clust_3="88.52158" pt_clust_4="14000.00000" pt_clust_5="40.64053" pt_clust_6="32.82395"></scales>
<clustering>
<clus scale="   40.641">  1  5  2 -1</clus>
<clus scale="   32.824">  1  6  2 -1</clus>
<clus scale="   88.522">  1  3  2 -1</clus>
<clus scale="   88.522">  2  3  1 -1</clus>
</clustering>
</event>
<event>
 6    0  0.1631680E+002  0.7617883E+02  0.7546771E-02  0.1340259E+00
          2   -1    0    0  503    0 -0.00000000000E+00  0.00000000000E+00  0.20711309338E+03  0.20711309338E+03  0.00000000000E+00 0. -1.
         21   -1    0    0  505  502  0.00000000000E+00 -0.00000000000E+00 -0.13564102683E+03  0.13564102683E+03  0.00000000000E+00 0. -1.
         21    1    1    2  503  504  0.15918898641E+02  0.31174413467E+02  0.26069528608E+02  0.43644881840E+02  0.00000000000E+00 0. -1.
         21    1    1    2  504  502  0.68054683245E+02 -0.39177712649E+02  0.16534694153E+01  0.78543408642E+02  0.00000000000E+00 0. -1.
         21    1    1    2  505  501  0.50073097572E+01  0.57068630194E+02 -0.54609849103E+02  0.79146303276E+02  0.00000000000E+00 0. -1.
          2    1    1    2  501    0 -0.88980891643E+02 -0.49065331012E+02  0.98358917634E+02  0.14141952646E+03  0.00000000000E+00 0. -1.
<scales pt_clust_3="35.00365" pt_clust_4="14000.00000" pt_clust_5="59.60609" pt_clust_6="76.17883"></scales>
<clustering>
<clus scale="   35.004">  1  3  2 -1</clus>
<clus scale="   59.606">  2  5  1 -1</clus>
<clus scale="   76.179">  1  6  2 -1</clus>
<clus scale="   59.606">  2  3  1 -1</clus>
</clustering>
</event>
<event>
 6    0  0.1631680E+002  0.1235635E+03  0.7546771E-02  0.1237332E+00
         21   -1    0    0  505  502  0.00000000000E+00  0.00000000000E+00  0.94034076855E+03  0.94034076855E+03  0.00000000000E+00 0.  1.
          1   -1    0    0  504    0 -0.00000000000E+00 -0.00000000000E+00 -0.83908020699E+03  0.83908020699E+03  0.00000000000E+00 0. -1.
         21    1    1    2  503  501 -0.19964276832E+02 -0.11493026398E+03 -0.54113036507E+02  0.12859144080E+03  0.00000000000E+00 0.  1.
         21    1    1    2  504  502  0.73042450489E+02  0.12240561923E+01 -0.27645697598E+03  0.28594607438E+03  0.00000000000E+00 0. -1.
         21    1    1    2  505  503 -0.36554617322E+02 -0.55064153194E+01  0.89020503693E+03  0.89097226019E+03  0.00000000000E+00 0.  1.
          1    1    1    2  501    0 -0.16523556335E+02  0.11921262311E+03 -0.45837446288E+03  0.47391120016E+03  0.00000000000E+00 0. -1.
<scales pt_clust_3="123.56348" pt_clust_4="69.55998" pt_clust_5="36.96702" pt_clust_6="14000.00000"></scales>
<clustering>
<clus scale="   36.967">  1  5  2 -1</clus>
<clus scale="   69.560">  2  4  1 -1</clus>
<clus scale="  123.563">  1  3  2 -1</clus>
<clus scale="   36.967">  1  3  2 -1</clus>
</clustering>
</event>
<event>
 6    0  0.1631680E+002  0.1337644E+03  0.7546771E-02  0.1221975E+00
         -1   -1    0    0    0  501 -0.00000000000E+00  0.00000000000E+00  0.22303614885E+03  0.22303614885E+03  0.00000000000E+00 0.  1.
         21   -1    0    0  504  502  0.00000000000E+00 -0.00000000000E+00 -0.96334479621E+03  0.96334479621E+03  0.00000000000E+00 0. -1.
         21    1    1    2  503  502  0.53630835098E+02  0.16261025620E+02 -0.21125792950E+03  0.21856486498E+03  0.00000000000E+00 0.  1.
         21    1    1    2  504  505 -0.12582324617E+03 -0.23630826977E+02 -0.63555265868E+03  0.64831866178E+03  0.00000000000E+00 0. -1.
         21    1    1    2  505  501 -0.62060870965E+02  0.77203619868E+02 -0.41892999418E+02  0.10754986762E+03  0.00000000000E+00 0. -1.
         -1    1    1    2    0  503  0.13425328204E+03 -0.69833818510E+02  0.14839494024E+03  0.21194755067E+03  0.00000000000E+00 0.  1.
<scales pt_clust_3="56.04184" pt_clust_4="80.40900" pt_clust_5="14000.00000" pt_clust_6="133.76437"></scales>
<clustering>
<clus scale="   56.042">  2  3  1 -1</clus>
<clus scale="   80.409">  2  4  1 -1</clus>
<clus scale="  133.764">  1  6  2 -1</clus>
<clus scale="   56.042">  2  3  1 -1</clus>
</clustering>
</event>
<event>
 6    0  0.1631680E+002  0.6833659E+02  0.7546771E-02  0.1365843E+00
         21   -1    0    0  501  502  0.00000000000E+00  0.00000000000E+00  0.66011322276E+02  0.66011322276E+02  0.00000000000E+00 0.  1.
          1   -1    0    0  504    0 -0.00000000000E+00 -0.00000000000E+00 -0.40360377719E+03  0.40360377719E+03  0.00000000000E+00 0.  1.
         21    1    1    2  503  502  0.38591972189E+02 -0.40609410848E+02 -0.10280381340E+02  0.56957447339E+02  0.00000000000E+00 0.  1.
         21    1    1    2  504  505  0.68927505038E+02  0.98692385320E+01 -0.19532237900E+03  0.20736256788E+03  0.00000000000E+00 0.  1.
         21    1    1    2  505  503 -0.89381136916E+02 -0.22684530480E+01 -0.26456102891E+02  0.93241937430E+02  0.00000000000E+00 0.  1.
          1    1    1    2  501    0 -0.18138340312E+02  0.33008625364E+02 -0.10553359168E+03  0.11205314681E+03  0.00000000000E+00 0.  1.
<scales pt_clust_3="51.88008" pt_clust_4="68.33659" pt_clust_5="14000.00000" pt_clust_6="37.66389"></scales>
<clustering>
<clus scale="   37.664">  2  6  1 -1</clus>
<clus scale="   51.880">  1  3  2 -1</clus>
<clus scale="   68.337">  2  4  1 -1</clus>
<clus scale="   51.880">  1  3  2 -1</clus>
</clustering>
</event>
<event>
 6    0  0.1631680E+002  0.1259302E+03  0.7546771E-02  0.1233623E+00
         21   -1    0    0  504  502  0.00000000000E+00  0.00000000000E+00  0.47944956316E+03  0.47944956316E+03  0.00000000000E+00 0.  1.
          2   -1    0    0  503    0 -0.00000000000E+00 -0.00000000000E+00 -0.27980746043E+03  0.27980746043E+03  0.00000000000E+00 0. -1.
         21    1    1    2  503  505 -0.40802706019E+02  0.10677479868E+02 -0.41983042501E+02  0.59510043291E+02  0.00000000000E+00 0.  1.
         21    1    1    2  504  501 -0.11947753125E+03  0.20233731751E+01  0.28548230232E+03  0.30948201797E+03  0.00000000000E+00 0.  1.
         21    1    1    2  505  502  0.79487882678E+01 -0.58406406816E+02  0.13717005234E+03  0.14929874363E+03  0.00000000000E+00 0.  1.
          2    1    1    2  501    0  0.15233144900E+03  0.45705553773E+02 -0.18102720942E+03  0.24096621869E+03  0.00000000000E+00 0. -1.
<scales pt_clust_3="42.17665" pt_clust_4="125.93021" pt_clust_5="58.52815" pt_clust_6="14000.00000"></scales>
<clustering>
<clus scale="   42.177">  2  3  1 -1</clus>
<clus scale="   58.528">  1  5  2 -1</clus>
<clus scale="  125.930">  1  4  2 -1</clus>
<clus scale="   58.528">  1  3  2 -1</clus>
</clustering>
</event>
<event>
 6    0  0.1631680E+002  0.7293589E+02  0.7546771E-02  0.1350385E+00
         21   -1    0    0  505  502  0.00000000000E+00  0.00000000000E+00  0.64651384928E+02  0.64651384928E+02  0.00000000000E+00 0. -1.
          2   -1    0    0  504    0 -0.00000000000E+00 -0.00000000000E+00 -0.33330790090E+04  0.33330790090E+04  0.00000000000E+00 0. -1.
         21    1    1    2  503  501  0.42961531995E+02  0.79663198095E+02 -0.16158773668E+03  0.18520938153E+03  0.00000000000E+00 0. -1.
         21    1    1    2  504  502  0.48803384280E+02 -0.16343613875E+02 -0.29322026192E+03  0.29770288213E+03  0.00000000000E+00 0.  1.
         21    1    1    2  505  503 -0.35861969079E+01 -0.71353828258E+02  0.24340986734E+02  0.75476574184E+02  0.00000000000E+00 0. -1.
          2    1    1    2  501    0 -0.88178719367E+02  0.80342440385E+01 -0.28379606122E+04  0.28393415561E+04  0.00000000000E+00 0. -1.
<scales pt_clust_3="72.93589" pt_clust_4="51.46731" pt_clust_5="14000.00000" pt_clust_6="43.18305"></scales>
<clustering>
<clus scale="   51.467">  2  4  1 -1</clus>
<clus scale="   43.183">  2  6  1 -1</clus>
<clus scale="   72.936">  2  3  1 -1</clus>
<clus scale="   72.936">  1  3  2 -1</clus>
</clustering>
</event>
<event>
 6    0  0.1631680E+002  0.1181778E+03  0.7546771E-02  0.1246134E+00
          1   -1    0    0  503    0 -0.00000000000E+00  0.00000000000E+00  0.22851099646E+04  0.22851099646E+04  0.00000000000E+00 0.  1.
         21   -1    0    0  504  502  0.00000000000E+00 -0.00000000000E+00 -0.35710311593E+02  0.35710311593E+02  0.00000000000E+00 0.  1.
         21    1    1    2  503  502 -0.32441983969E+02  0.11390206631E+02  0.13343527177E+04  0.13347956377E+04  0.00000000000E+00 0.  1.
         21    1    1    2  504  505  0.48683695937E+02  0.62803670836E+02  0.14303277828E+03  0.16362389490E+03  0.00000000000E+00 0.  1.
         21    1    1    2  505  501 -0.77664867109E+02  0.57536583860E+02  0.11850766662E+03  0.15292598573E+03  0.00000000000E+00 0.  1.
          1    1    1    2  501    0  0.61423155141E+02 -0.13173046133E+03  0.65350649039E+03  0.66947475786E+03  0.00000000000E+00 0.  1.
<scales pt_clust_3="34.38341" pt_clust_4="77.88716" pt_clust_5="118.17776" pt_clust_6="14000.00000"></scales>
<clustering>
<clus scale="   34.383">  1  3  2 -1</clus>
<clus scale="   77.887">  2  4  1 -1</clus>
<clus scale="  118.178">  2  5  1 -1</clus>
<clus scale="   77.887">  2  3  1 -1</clus>
</clustering>
</event>
<event>
 6    0  0.1631680E+002  0.1141789E+03  0.7546771E-02  0.1253021E+00
         -1   -1    0    0    0  501 -0.00000000000E+00  0.00000000000E+00  0.39822586764E+03  0.39822586764E+03  0.00000000000E+00 0.  1.
         21   -1    0    0  505  502  0.00000000000E+00 -0.00000000000E+00 -0.36777015343E+03  0.36777015343E+03  0.00000000000E+00 0. -1.
         21    1    1    2  503  501  0.31747092823E+02 -0.58468435461E+01  0.84741401181E+02  0.90681688098E+02  0.00000000000E+00 0.  1.
         21    1    1    2  504  502 -0.73802151221E+02 -0.12304613957E+03 -0.30287938085E+03  0.33514628050E+03  0.00000000000E+00 0. -1.
         21    1    1    2  505  503  0.97004155298E+00  0.35171752320E+02 -0.28182486298E+02  0.45080435621E+02  0.00000000000E+00 0.  1.
         -1    1    1    2    0  504  0.41085016845E+02  0.93721230794E+02  0.27677618017E+03  0.29508761685E+03  0.00000000000E+00 0.  1.
<scales pt_clust_3="32.28101" pt_clust_4="14000.00000" pt_clust_5="35.06066" pt_clust_6="114.17894"></scales>
<clustering>
<clus scale="   32.281">  1  3  2 -1</clus>
<clus scale="   35.061">  2  5  1 -1</clus>
<clus scale="  114.179">  1  6  2 -1</clus>
<clus scale="   35.061">  2  3  1 -1</clus>
</clustering>
</event>
<event>
 6    0  0.1631680E+002  0.1322380E+03  0.7546771E-02  0.1224172E+00
          2   -1    0    0  503    0 -0.00000000000E+00  0.00000000000E+00  0.26181067321E+04  0.26181067321E+04  0.00000000000E+00 0. -1.
         21   -1    0    0  505  502  0.00000000000E+00 -0.00000000000E+00 -0.45914727644E+03  0.45914727644E+03  0.00000000000E+00 0.  1.
         21    1    1    2  503  504 -0.43700691042E+02 -0.45197228033E+02  0.11136228104E+04  0.11153960300E+04  0.00000000000E+00 0. -1.
         21    1    1    2  504  502  0.17750530474E+02  0.11484968551E+03 -0.73362994871E+01  0.11644463441E+03  0.00000000000E+00 0. -1.
         21    1    1    2  505  501 -0.57092162414E+02  0.14879026052E+02 -0.39173492947E+03  0.39615294444E+03  0.00000000000E+00 0.  1.
          2    1    1    2  501    0  0.83042322982E+02 -0.84531483528E+02  0.14444078742E+04  0.14492603997E+04  0.00000000000E+00 0. -1.
<scales pt_clust_3="63.26726" pt_clust_4="14000.00000" pt_clust_5="58.99916" pt_clust_6="132.23798"></scales>
<clustering>
<clus scale="   58.999">  2  5  1 -1</clus>
<clus scale="   63.267">  1  3  2 -1</clus>
<clus scale="  132.238">  1  6  2 -1</clus>
<clus scale="   58.999">  2  3  1 -1</clus>
</clustering>
</event>
<event>
 6    0  0.1631680E+002  0.9213130E+02  0.7546771E-02  0.1297771E+00
         21   -1    0    0  505  502  0.00000000000E+00  0.00000000000E+00  0.21099947120E+03  0.21099947120E+03  0.00000000000E+00 0.  1.
         -1   -1    0    0    0  501 -0.00000000000E+00 -0.00000000000E+00 -0.14480604298E+04  0.14480604298E+04  0.00000000000E+00 0. -1.
         21    1    1    2  503  501  0.27664790908E+02 -0.17024543071E+02 -0.18250631116E+03  0.18537456497E+03  0.00000000000E+00 0. -1.
         21    1    1    2  504  502  0.84325242869E+02  0.16813786998E+02  0.14243786610E+03  0.16637907236E+03  0.00000000000E+00 0.  1.
         21    1    1    2  505  503 -0.15571346381E+03  0.20337747445E+02 -0.58164778865E+02  0.16746178156E+03  0.00000000000E+00 0.  1.
         -1    1    1    2    0  504  0.43723430036E+02 -0.20126991372E+02 -0.11388277347E+04  0.11398444822E+04  0.00000000000E+00 0. -1.
<scales pt_clust_3="32.48347" pt_clust_4="14000.00000" pt_clust_5="92.13130" pt_clust_6="77.27889"></scales>
<clustering>
<clus scale="   32.483">  2  3  1 -1</clus>
<clus scale="   77.279">  2  6  1 -1</clus>
<clus scale="   92.131">  2  5  1 -1</clus>
<clus scale="   92.131">  1  3  2 -1</clus>
</clustering>
</event>
<event>
 6    0  0.1631680E+002  0.9538722E+02  0.7546771E-02  0.1290306E+00
          2   -1    0    0  503    0 -0.00000000000E+00  0.00000000000E+00  0.10230212359E+04  0.10230212359E+04  0.00000000000E+00 0.  1.
         21   -1    0    0  504  502  0.00000000000E+00 -0.00000000000E+00 -0.37521699025E+02  0.37521699025E+02  0.00000000000E+00 0.  1.
         21    1    1    2  503  505  0.61953989336E+02  0.36415956210E+02  0.20810330348E+03  0.22016222106E+03  0.00000000000E+00 0.  1.
         21    1    1    2  504  501  0.53985942957E+01  0.52266277606E+02  0.27394685755E+02  0.59256876418E+02  0.00000000000E+00 0.  1.
         21    1    1    2  505  502 -0.27613207082E+02  0.56352686047E+02  0.15072078126E+03  0.16326318732E+03  0.00000000000E+00 0.  1.
          2    1    1    2  501    0 -0.39739376550E+02 -0.14503491986E+03  0.59928076643E+03  0.61786065018E+03  0.00000000000E+00 0.  1.
<scales pt_clust_3="95.38722" pt_clust_4="52.54435" pt_clust_5="76.12788" pt_clust_6="14000.00000"></scales>
<clustering>
<clus scale="   52.544">  2  4  1 -1</clus>
<clus scale="   76.128">  2  5  1 -1</clus>
<clus scale="   95.387">  1  3  2 -1</clus>
<clus scale="   52.544">  2  3  1 -1</clus>
</clustering>
</event>
<event>
 6    0  0.1631680E+002  0.9476401E+02  0.7546771E-02  0.1291708E+00
          2   -1    0    0  504    0 -0.00000000000E+00  0.00000000000E+00  0.13596648215E+04  0.13596648215E+04  0.00000000000E+00 0.  1.
         21   -1    0    0  503  502  0.00000000000E+00 -0.00000000000E+00 -0.87396153398E+02  0.87396153398E+02  0.00000000000E+00 0.  1.
         21    1    1    2  503  501  0.82522809258E+02  0.45465055419E+02  0.21452796277E+03  0.23430606506E+03  0.00000000000E+00 0.  1.
         21    1    1    2  504  505 -0.58449995114E+01  0.51359162087E+02  0.61724534559E+03  0.61940596074E+03  0.00000000000E+00 0. -1.
         21    1    1    2  505  502  0.16196573862E+02 -0.55285420310E+02 -0.59669487844E+02  0.82941271291E+02  0.00000000000E+00 0.  1.
          2    1    1    2  501    0 -0.92874383609E+02 -0.41538797196E+02  0.50016484755E+03  0.51040767777E+03  0.00000000000E+00 0.  1.
<scales pt_clust_3="94.76401" pt_clust_4="51.69069" pt_clust_5="56.80985" pt_clust_6="14000.00000"></scales>
<clustering>
<clus scale="   51.691">  1  4  2 -1</clus>
<clus scale="   56.810">  2  5  1 -1</clus>
<clus scale="   94.764">  2  3  1 -1</clus>
<clus scale="   56.810">  2  3  1 -1</clus>
</clustering>
</event>
<event>
 6    0  0.1631680E+002  0.1023371E+03  0.7546771E-02  0.1275457E+00
          1   -1    0    0  503    0 -0.00000000000E+00  0.00000000000E+00  0.12544976023E+04  0.12544976023E+04  0.00000000000E+00 0.  1.
         21   -1    0    0  505  502  0.00000000000E+00 -0.00000000000E+00 -0.40698127563E+02  0.40698127563E+02  0.00000000000E+00 0. -1.
         21    1    1    2  503  502  0.14272725296E+02  0.85148734781E+02  0.30054357572E+03  0.31269867066E+03  0.00000000000E+00 0. -1.
         21    1    1    2  504  501 -0.47104799031E+02  0.48830919193E+02  0.58583351639E+02  0.89640001396E+02  0.00000000000E+00 0. -1.
         21    1    1    2  505  504 -0.37887454537E+02 -0.27590968905E+02  0.24449644799E+02  0.52863086433E+02  0.00000000000E+00 0.  1.
          1    1    1    2  501    0  0.70719528271E+02 -0.10638868507E+03  0.83022290253E+03  0.83999397134E+03  0.00000000000E+00 0.  1.
<scales pt_clust_3="14000.00000" pt_clust_4="76.62149" pt_clust_5="46.86919" pt_clust_6="102.33707"></scales>
<clustering>
<clus scale="   46.869">  2  5  1 -1</clus>
<clus scale="   76.621">  2  4  1 -1</clus>
<clus scale="  102.337">  1  6  2 -1</clus>
<clus scale="   46.869">  2  3  1 -1</clus>
</clustering>
</event>
<event>
 6    0  0.1631680E+002  0.1189630E+03  0.7546771E-02  0.1244818E+00
          4   -1    0    0  505    0 -0.00000000000E+00  0.00000000000E+00  0.74900232920E+02  0.74900232920E+02  0.00000000000E+00 0.  1.
         21   -1    0    0  501  502  0.00000000000E+00 -0.00000000000E+00 -0.11988973541E+04  0.11988973541E+04  0.00000000000E+00 0. -1.
         21    1    1    2  503  504  0.88383971694E+02  0.32528987987E+01 -0.81261856765E+02  0.12010744010E+03  0.00000000000E+00 0.  1.
         21    1    1    2  504  502 -0.10114541266E+03 -0.78875534531E+02 -0.10283489196E+04  0.10363171546E+04  0.00000000000E+00 0. -1.
         21    1    1    2  505  503  0.11885370639E+01  0.36638824970E+02 -0.50895744026E+02  0.62723144655E+02  0.00000000000E+00 0.  1.
          4    1    1    2  501    0  0.11572903907E+02  0.38983810763E+02  0.36509399286E+02  0.54649847600E+02  0.00000000000E+00 0.  1.
<scales pt_clust_3="14000.00000" pt_clust_4="118.96302" pt_clust_5="36.65810" pt_clust_6="64.38829"></scales>
<clustering>
<clus scale="   36.658">  1  5  2 -1</clus>
<clus scale="   64.388">  1  6  2 -1</clus>
<clus scale="  118.963">  2  4  1 -1</clus>
<clus scale="  118.963">  2  3  1 -1</clus>
</clustering>
</event>
<event>
 6    0  0.1631680E+002  0.7083492E+02  0.7546771E-02  0.1357277E+00
         21   -1    0    0  503  502  0.00000000000E+00  0.00000000000E+00  0.40198867719E+04  0.40198867719E+04  0.00000000000E+00 0.  1.
          2   -1    0    0  504    0 -0.00000000000E+00 -0.00000000000E+00 -0.20499389962E+04  0.20499389962E+04  0.00000000000E+00 0.  1.
         21    1    1    2  503  505  0.68377551154E+02 -0.18131336636E+02  0.39859600925E+04  0.39865877758E+04  0.00000000000E+00 0.  1.
         21    1    1    2  504  502  0.25635190885E+02 -0.19713455500E+02 -0.36516982737E+02  0.48777795847E+02  0.00000000000E+00 0.  1.
         21    1    1    2  505  501 -0.94764469769E+02  0.74003846783E+02 -0.10504222624E+03  0.15965820794E+03  0.00000000000E+00 0. -1.
          2    1    1    2  501    0  0.75172773015E+00 -0.36159054646E+02 -0.18744531079E+04  0.18748019884E+04  0.00000000000E+00 0.  1.
<scales pt_clust_3="70.83492" pt_clust_4="32.33857" pt_clust_5="14000.00000" pt_clust_6="59.89634"></scales>
<clustering>
<clus scale="   32.339">  2  4  1 -1</clus>
<clus scale="   59.896">  2  6  1 -1</clus>
<clus scale="   70.835">  1  3  2 -1</clus>
<clus scale="   70.835">  1  3  2 -1</clus>
</clustering>
</event>
<event>
 6    0  0.1631680E+002  0.2080383E+03  0.7546771E-02  0.1143129E+00
          2   -1    0    0  504    0 -0.00000000000E+00  0.00000000000E+00  0.28263569643E+04  0.28263569643E+04  0.00000000000E+00 0. -1.
         21   -1    0    0  503  502  0.00000000000E+00 -0.00000000000E+00 -0.13280511438E+04  0.13280511438E+04  0.00000000000E+00 0. -1.
         21    1    1    2  503  501  0.47169399941E+02 -0.44471525231E+02 -0.12759707702E+04  0.12776165603E+04  0.00000000000E+00 0. -1.
         21    1    1    2  504  505  0.34612307977E+02  0.23393006204E+03  0.14617479513E+04  0.14807526325E+04  0.00000000000E+00 0. -1.
         21    1    1    2  505  502 -0.37015385382E+02 -0.62328227934E+01 -0.25114508464E+02  0.45163318859E+02  0.00000000000E+00 0. -1.
          2    1    1    2  501    0 -0.44766322536E+02 -0.18322571401E+03  0.13376431478E+04  0.13508755964E+04  0.00000000000E+00 0. -1.
<scales pt_clust_3="51.72761" pt_clust_4="14000.00000" pt_clust_5="37.53647" pt_clust_6="208.03825"></scales>
<clustering>
<clus scale="   37.536">  2  5  1 -1</clus>
<clus scale="   51.728">  2  3  1 -1</clus>
<clus scale="  208.038">  1  6  2 -1</clus>
<clus scale="   37.536">  2  3  1 -1</clus>
</clustering>
</event>
<event>
 6    0  0.1631680E+002  0.8680768E+02  0.7546771E-02  0.1310772E+00
          1   -1    0    0  505    0 -0.00000000000E+00  0.00000000000E+00  0.51625760161E+03  0.51625760161E+03  0.00000000000E+00 0.  1.
         21   -1    0    0  503  502  0.00000000000E+00 -0.00000000000E+00 -0.32074443223E+03  0.32074443223E+03  0.00000000000E+00 0.  1.
         21    1    1    2  503  501  0.64893550689E+02  0.48437214970E+02 -0.76484105530E+01  0.81337782727E+02  0.00000000000E+00 0. -1.
         21    1    1    2  504  502 -0.80807782595E+02  0.37395426466E+02 -0.25194990018E+03  0.26722100937E+03  0.00000000000E+00 0.  1.
         21    1    1    2  505  504 -0.30383401348E+02  0.78187218268E+01  0.12669867633E+02  0.33835026737E+02  0.00000000000E+00 0. -1.
          1    1    1    2  501    0  0.46297633254E+02 -0.93651363262E+02  0.44244161249E+03  0.45460821500E+03  0.00000000000E+00 0.  1.
<scales pt_clust_3="79.52819" pt_clust_4="14000.00000" pt_clust_5="31.37329" pt_clust_6="86.80768"></scales>
<clustering>
<clus scale="   31.373">  1  5  2 -1</clus>
<clus scale="   79.528">  2  3  1 -1</clus>
<clus scale="   86.808">  1  6  2 -1</clus>
<clus scale="   79.528">  2  3  1 -1</clus>
</clustering>
</event>
<event>
 6    0  0.1631680E+002  0.1319540E+03  0.7546771E-02  0.1224585E+00
         21   -1    0    0  505  502  0.00000000000E+00  0.00000000000E+00  0.29724848197E+03  0.29724848197E+03  0.00000000000E+00 0.  1.
          2   -1    0    0  504    0 -0.00000000000E+00 -0.00000000000E+00 -0.24350482607E+04  0.24350482607E+04  0.00000000000E+00 0.  1.
         21    1    1    2  503  501  0.42692138851E+02 -0.40044184710E+02  0.95670416720E+02  0.11215607021E+03  0.00000000000E+00 0.  1.
         21    1    1    2  504  502 -0.36090127126E+02  0.27235116273E+02 -0.18674318257E+04  0.18679790878E+04  0.00000000000E+00 0.  1.
         21    1    1    2  505  503  0.18812888032E+02 -0.69414384696E+02  0.18289281031E+03  0.19652496437E+03  0.00000000000E+00 0.  1.
          2    1    1    2  501    0 -0.25414899757E+02  0.82223453133E+02 -0.54893118006E+03  0.55563662030E+03  0.00000000000E+00 0.  1.
<scales pt_clust_3="39.55580" pt_clust_4="45.21337" pt_clust_5="39.55580" pt_clust_6="124.45640"></scales>
<clustering>
<clus scale="   39.556">  3  5 -1 -1</clus>
<clus scale="   45.213">  2  4  1 -1</clus>
<clus scale="  124.456">  2  6  1 -1</clus>
<clus scale="  131.954">  1  3  2 -1</clus>
</clustering>
</event>
<event>
 6    0  0.1631680E+002  0.1510269E+03  0.7546771E-02  0.1199217E+00
          2   -1    0    0  505    0 -0.00000000000E+00  0.00000000000E+00  0.12239380550E+04  0.12239380550E+04  0.00000000000E+00 0.  1.
         21   -1    0    0  503  502  0.00000000000E+00 -0.00000000000E+00 -0.40228462546E+03  0.40228462546E+03  0.00000000000E+00 0.  1.
         21    1    1    2  503  501 -0.16915746795E+03 -0.76493404777E+02 -0.62592342828E+02  0.19591654172E+03  0.00000000000E+00 0.  1.
         21    1    1    2  504  502  0.14314025687E+03 -0.52207160645E+02 -0.23114040854E+03  0.27684040388E+03  0.00000000000E+00 0.  1.
         21    1    1    2  505  504  0.58987397230E+02 -0.31316245453E+02  0.75398204486E+02  0.10072293433E+03  0.00000000000E+00 0. -1.
          2    1    1    2  501    0 -0.32970186151E+02  0.16001681087E+03  0.10399879765E+04  0.10527428005E+04  0.00000000000E+00 0.  1.
<scales pt_clust_3="14000.00000" pt_clust_4="151.02690" pt_clust_5="66.78488" pt_clust_6="132.89762"></scales>
<clustering>
<clus scale="   66.785">  1  5  2 -1</clus>
<clus scale="  132.898">  1  6  2 -1</clus>
<clus scale="  151.027">  2  4  1 -1</clus>
<clus scale="  151.027">  2  3  1 -1</clus>
</clustering>
</event>
<event>
 6    0  0.1631680E+002  0.2233658E+03  0.7546771E-02  0.1131398E+00
          2   -1    0    0  504    0 -0.00000000000E+00  0.00000000000E+00  0.96155652406E+03  0.96155652406E+03  0.00000000000E+00 0.  1.
         21   -1    0    0  505  502  0.00000000000E+00 -0.00000000000E+00 -0.29395398167E+03  0.29395398167E+03  0.00000000000E+00 0.  1.
         21    1    1    2  503  502  0.59257745378E+01 -0.16455691160E+03 -0.39023581698E+02  0.16922450144E+03  0.00000000000E+00 0.  1.
         21    1    1    2  504  503  0.56874919733E+01  0.32327727062E+02  0.51831427383E+03  0.51935259309E+03  0.00000000000E+00 0.  1.
         21    1    1    2  505  501 -0.14243855138E+03 -0.76943556278E+02 -0.97799455358E+02  0.18913959195E+03  0.00000000000E+00 0.  1.
          2    1    1    2  501    0  0.13082528487E+03  0.20917274081E+03  0.28611130562E+03  0.37779381925E+03  0.00000000000E+00 0.  1.
<scales pt_clust_3="223.36575" pt_clust_4="32.82422" pt_clust_5="159.81298" pt_clust_6="14000.00000"></scales>
<clustering>
<clus scale="   32.824">  1  4  2 -1</clus>
<clus scale="  159.813">  2  5  1 -1</clus>
<clus scale="  223.366">  2  3  1 -1</clus>
<clus scale="  159.813">  2  3  1 -1</clus>
</clustering>
</event>
<event>
 6    0  0.1631680E+002  0.7568566E+02  0.7546771E-02  0.1341761E+00
         21   -1    0    0  501  502  0.00000000000E+00  0.00000000000E+00  0.32009928517E+02  0.32009928517E+02  0.00000000000E+00 0.  1.
          2   -1    0    0  503    0 -0.00000000000E+00 -0.00000000000E+00 -0.74646106209E+03  0.74646106209E+03  0.00000000000E+00 0.  1.
         21    1    1    2  503  504 -0.20038221914E+02  0.37718603643E+02 -0.28809208959E+03  0.29124092344E+03  0.00000000000E+00 0.  1.
         21    1    1    2  504  505 -0.74249734584E+00  0.69995954022E+02 -0.14820225957E+03  0.16390208852E+03  0.00000000000E+00 0.  1.
         21    1    1    2  505  502 -0.47604156254E+02 -0.35478679428E+02 -0.64582954076E+02  0.87725995827E+02  0.00000000000E+00 0.  1.
          2    1    1    2  501    0  0.68384875514E+02 -0.72235878237E+02 -0.21357383034E+03  0.23560198282E+03  0.00000000000E+00 0.  1.
<scales pt_clust_3="42.71093" pt_clust_4="75.68566" pt_clust_5="58.71504" pt_clust_6="14000.00000"></scales>
<clustering>
<clus scale="   42.711">  2  3  1 -1</clus>
<clus scale="   58.715">  1  5  2 -1</clus>
<clus scale="   75.686">  1  4  2 -1</clus>
<clus scale="   58.715">  1  3  2 -1</clus>
</clustering>
</event>
<event>
 6    0  0.1631680E+002  0.1882247E+03  0.7546771E-02  0.1160072E+00
         21   -1    0    0  503  502  0.00000000000E+00  0.00000000000E+00  0.11940777624E+03  0.11940777624E+03  0.00000000000E+00 0. -1.
          2   -1    0    0  505    0 -0.00000000000E+00 -0.00000000000E+00 -0.27342768317E+04  0.27342768317E+04  0.00000000000E+00 0.  1.
         21    1    1    2  503  504  0.32824676832E+02  0.49400171199E+02  0.62865964284E+02  0.86428963832E+02  0.00000000000E+00 0. -1.
         21    1    1    2  504  501 -0.11120978620E+02 -0.29391065540E+02 -0.84584044399E+03  0.84642398808E+03  0.00000000000E+00 0.  1.
         21    1    1    2  505  502 -0.31393096132E+02  0.13077960935E+03 -0.68423978902E+02  0.15089954803E+03  0.00000000000E+00 0. -1.
          2    1    1    2  501    0  0.96893979197E+01 -0.15078871501E+03 -0.17634705968E+04  0.17699321080E+04  0.00000000000E+00 0.  1.
<scales pt_clust_3="59.31135" pt_clust_4="30.07211" pt_clust_5="176.29587" pt_clust_6="30.07211"></scales>
<clustering>
<clus scale="   30.072">  4  6 -1 -1</clus>
<clus scale="   59.311">  1  3  2 -1</clus>
<clus scale="  176.296">  1  5  2 -1</clus>
<clus scale="   59.311">  1  3  2 -1</clus>
</clustering>
</event>
<event>
 6    0  0.1631680E+002  0.6578698E+02  0.7546771E-02  0.1375035E+00
         21   -1    0    0  501  502  0.00000000000E+00  0.00000000000E+00  0.75810474119E+03  0.75810474119E+03  0.00000000000E+00 0. -1.
          2   -1    0    0  503    0 -0.00000000000E+00 -0.00000000000E+00 -0.81465231809E+03  0.81465231809E+03  0.00000000000E+00 0. -1.
         21    1    1    2  503  504 -0.71711078788E+01  0.35408705656E+02 -0.74337812043E+02  0.82651748461E+02  0.00000000000E+00 0. -1.
         21    1    1    2  504  505 -0.97831762592E+02  0.25867154492E+02 -0.12347813765E+03  0.15964652809E+03  0.00000000000E+00 0. -1.
         21    1    1    2  505  502  0.48031293315E+02 -0.44595856223E+02  0.73291585943E+03  0.73584064343E+03  0.00000000000E+00 0. -1.
          2    1    1    2  501    0  0.56971577156E+02 -0.16680003925E+02 -0.59164748664E+03  0.59461813930E+03  0.00000000000E+00 0. -1.
<scales pt_clust_3="36.12757" pt_clust_4="65.78698" pt_clust_5="14000.00000" pt_clust_6="52.54714"></scales>
<clustering>
<clus scale="   36.128">  2  3  1 -1</clus>
<clus scale="   52.547">  2  6  1 -1</clus>
<clus scale="   65.787">  2  4  1 -1</clus>
<clus scale="   65.787">  1  3  2 -1</clus>
</clustering>
</event>
<event>
 6    0  0.1631680E+002  0.2639092E+03  0.7546771E-02  0.1104817E+00
         21   -1    0    0  504  502  0.00000000000E+00  0.00000000000E+00  0.49406556912E+02  0.49406556912E+02  0.00000000000E+00 0. -1.
          2   -1    0    0  503    0 -0.00000000000E+00 -0.00000000000E+00 -0.51241234638E+04  0.51241234638E+04  0.00000000000E+00 0. -1.
         21    1    1    2  503  505 -0.20234881044E+02  0.36753523183E+02 -0.53858737234E+03  0.54021905698E+03  0.00000000000E+00 0.  1.
         21    1    1    2  504  501  0.26085384901E+03 -0.89141648877E+02 -0.67460680931E+03  0.72875600257E+03  0.00000000000E+00 0. -1.
         21    1    1    2  505  502 -0.22895147196E+03  0.10555957182E+03 -0.72545271510E+03  0.76801252696E+03  0.00000000000E+00 0. -1.
          2    1    1    2  501    0 -0.11667496010E+02 -0.53171446123E+02 -0.31360700102E+04  0.31365424343E+04  0.00000000000E+00 0. -1.
<scales pt_clust_3="41.95559" pt_clust_4="263.90920" pt_clust_5="14000.00000" pt_clust_6="37.89962"></scales>
<clustering>
<clus scale="   41.956">  2  3  1 -1</clus>
<clus scale="   37.900">  2  6  1 -1</clus>
<clus scale="  263.909">  1  4  2 -1</clus>
<clus scale="  263.909">  1  3  2 -1</clus>
</clustering>
</event>
<event>
 6    0  0.1631680E+002  0.8833675E+02  0.7546771E-02  0.1306930E+00
          1   -1    0    0  505    0 -0.00000000000E+00  0.00000000000E+00  0.25694333945E+03  0.25694333945E+03  0.00000000000E+00 0.  1.
         21   -1    0    0  503  502  0.00000000000E+00 -0.00000000000E+00 -0.48383520869E+03  0.48383520869E+03  0.00000000000E+00 0.  1.
         21    1    1    2  503  501  0.50852876257E+02 -0.66855692743E+02 -0.32585055932E+03  0.33650302478E+03  0.00000000000E+00 0.  1.
         21    1    1    2  504  502 -0.97349434966E+02 -0.19128736198E+02 -0.12173186018E+03  0.15703969823E+03  0.00000000000E+00 0.  1.
         21    1    1    2  505  504  0.14451411805E+02  0.45236905863E+02  0.50482386568E+02  0.69308674124E+02  0.00000000000E+00 0. -1.
          1    1    1    2  501    0  0.32045146904E+02  0.40747523078E+02  0.17020816370E+03  0.17792715101E+03  0.00000000000E+00 0.  1.
<scales pt_clust_3="83.26811" pt_clust_4="88.33675" pt_clust_5="47.48917" pt_clust_6="14000.00000"></scales>
<clustering>
<clus scale="   47.489">  1  5  2 -1</clus>
<clus scale="   83.268">  2  3  1 -1</clus>
<clus scale="   88.337">  2  4  1 -1</clus>
<clus scale="   83.268">  2  3  1 -1</clus>
</clustering>
</event>
<event>
 6    0  0.1631680E+002  0.8628273E+02  0.7546771E-02  0.1312112E+00
         -1   -1    0    0    0  501 -0.00000000000E+00  0.00000000000E+00  0.48879899641E+03  0.48879899641E+03  0.00000000000E+00 0.  1.
         21   -1    0    0  504  502  0.00000000000E+00 -0.00000000000E+00 -0.77653144575E+02  0.77653144575E+02  0.00000000000E+00 0. -1.
         21    1    1    2  503  502 -0.89139979089E+01  0.39894554436E+02 -0.80408137167E+01  0.41661607237E+02  0.00000000000E+00 0. -1.
         21    1    1    2  504  505 -0.72145979009E+02 -0.29378149703E+02  0.13414791575E+02  0.79044763268E+02  0.00000000000E+00 0. -1.
         21    1    1    2  505  501 -0.29917984348E+02  0.13097563196E+02  0.25483199582E+03  0.25691628606E+03  0.00000000000E+00 0.  1.
         -1    1    1    2    0  503  0.11097796127E+03 -0.23613967929E+02  0.15093987816E+03  0.18882948442E+03  0.00000000000E+00 0.  1.
<scales pt_clust_3="42.31438" pt_clust_4="86.28273" pt_clust_5="32.65933" pt_clust_6="14000.00000"></scales>
<clustering>
<clus scale="   32.659">  1  5  2 -1</clus>
<clus scale="   42.314">  2  3  1 -1</clus>
<clus scale="   86.283">  2  4  1 -1</clus>
<clus scale="   42.314">  2  3  1 -1</clus>
</clustering>
</event>
<event>
 6    0  0.1631680E+002  0.1269356E+03  0.7546771E-02  0.1232075E+00
         21   -1    0    0  501  502  0.00000000000E+00  0.00000000000E+00  0.24231711730E+04  0.24231711730E+04  0.00000000000E+00 0.  1.
          2   -1    0    0  504    0 -0.00000000000E+00 -0.00000000000E+00 -0.23118365831E+03  0.23118365831E+03  0.00000000000E+00 0. -1.
         21    1    1    2  503  505 -0.16482152935E+03  0.69887434575E+02  0.29685210738E+03  0.34665770395E+03  0.00000000000E+00 0.  1.
         21    1    1    2  504  503  0.44805276389E+02  0.25162243452E+01  0.29458994055E+02  0.53681249129E+02  0.00000000000E+00 0. -1.
         21    1    1    2  505  502  0.60605375891E+02 -0.11001538293E+03  0.20514958510E+04  0.20553373501E+04  0.00000000000E+00 0.  1.
          2    1    1    2  501    0  0.59410877073E+02  0.37611724006E+02 -0.18581943774E+03  0.19867852813E+03  0.00000000000E+00 0. -1.
<scales pt_clust_3="126.93559" pt_clust_4="44.87588" pt_clust_5="14000.00000" pt_clust_6="106.45779"></scales>
<clustering>
<clus scale="   44.876">  2  4  1 -1</clus>
<clus scale="  106.458">  2  6  1 -1</clus>
<clus scale="  126.936">  2  3  1 -1</clus>
<clus scale="  126.936">  1  3  2 -1</clus>
</clustering>
</event>
<event>
 6    0  0.1631680E+002  0.1011630E+03  0.7546771E-02  0.1277869E+00
         21   -1    0    0  501  502  0.00000000000E+00  0.00000000000E+00  0.11377403742E+03  0.11377403742E+03  0.00000000000E+00 0. -1.
          2   -1    0    0  505    0 -0.00000000000E+00 -0.00000000000E+00 -0.68319568951E+03  0.68319568951E+03  0.00000000000E+00 0. -1.
         21    1    1    2  503  504 -0.14285601795E+02  0.72772242974E+02  0.30895699837E+02  0.80339417689E+02  0.00000000000E+00 0. -1.
         21    1    1    2  504  502 -0.54569382322E+02  0.57093534772E+01  0.13796472316E+02  0.56575231794E+02  0.00000000000E+00 0. -1.
         21    1    1    2  505  503 -0.65078932316E+02  0.25683587683E+02 -0.14028550340E+03  0.15676395176E+03  0.00000000000E+00 0. -1.
          2    1    1    2  501    0  0.13393391643E+03 -0.10416518414E+03 -0.47382832084E+03  0.50329112568E+03  0.00000000000E+00 0. -1.
<scales pt_clust_3="101.16299" pt_clust_4="54.86724" pt_clust_5="75.52082" pt_clust_6="14000.00000"></scales>
<clustering>
<clus scale="   54.867">  1  4  2 -1</clus>
<clus scale="   75.521">  2  5  1 -1</clus>
<clus scale="  101.163">  1  3  2 -1</clus>
<clus scale="   54.867">  1  3  2 -1</clus>
</clustering>
</event>
<event>
 6    0  0.1631680E+002  0.1643656E+03  0.7546771E-02  0.1183854E+00
          2   -1    0    0  503    0 -0.00000000000E+00  0.00000000000E+00  0.25245593301E+04  0.25245593301E+04  0.00000000000E+00 0.  1.
         21   -1    0    0  504  502  0.00000000000E+00 -0.00000000000E+00 -0.68441598802E+02  0.68441598802E+02  0.00000000000E+00 0.  1.
         21    1    1    2  503  502 -0.36046459940E+02 -0.90744584884E+02 -0.14850829558E+02  0.98764741171E+02  0.00000000000E+00 0.  1.
         21    1    1    2  504  505 -0.48368259465E+02 -0.20676548183E+02  0.13314496557E+03  0.14315931693E+03  0.00000000000E+00 0.  1.
         21    1    1    2  505  501 -0.43371524022E+02 -0.31316961124E+02  0.35328702691E+03  0.35731437773E+03  0.00000000000E+00 0. -1.
          2    1    1    2  501    0  0.12778624343E+03  0.14273809419E+03  0.19845365684E+04  0.19937624931E+04  0.00000000000E+00 0.  1.
<scales pt_clust_3="97.64183" pt_clust_4="51.88999" pt_clust_5="51.88999" pt_clust_6="155.81310"></scales>
<clustering>
<clus scale="   51.890">  4  5 -1 -1</clus>
<clus scale="   97.642">  2  3  1 -1</clus>
<clus scale="  155.813">  1  6  2 -1</clus>
<clus scale="   97.642">  2  3  1 -1</clus>
</clustering>
</event>
<event>
 6    0  0.1631680E+002  0.1800017E+03  0.7546771E-02  0.1167801E+00
         21   -1    0    0  503  502  0.00000000000E+00  0.00000000000E+00  0.42836088702E+03  0.42836088702E+03  0.00000000000E+00 0. -1.
          2   -1    0    0  504    0 -0.00000000000E+00 -0.00000000000E+00 -0.13846296267E+04  0.13846296267E+04  0.00000000000E+00 0. -1.
         21    1    1    2  503  501  0.12135591401E+03  0.12659882230E+03 -0.14471542310E+03  0.22736990425E+03  0.00000000000E+00 0. -1.
         21    1    1    2  504  505 -0.13116847910E+03 -0.14277134007E+03 -0.23880190521E+03  0.30759579871E+03  0.00000000000E+00 0. -1.
         21    1    1    2  505  502  0.12679327113E+03  0.16479572148E+02  0.33717802153E+03  0.36060661129E+03  0.00000000000E+00 0. -1.
          2    1    1    2  501    0 -0.11698070604E+03 -0.30705438371E+00 -0.90992943288E+03  0.91741819946E+03  0.00000000000E+00 0. -1.
<scales pt_clust_3="14000.00000" pt_clust_4="180.00170" pt_clust_5="124.97384" pt_clust_6="116.98111"></scales>
<clustering>
<clus scale="  116.981">  2  6  1 -1</clus>
<clus scale="  124.974">  1  5  2 -1</clus>
<clus scale="  180.002">  1  4  2 -1</clus>
<clus scale="  124.974">  1  3  2 -1</clus>
</clustering>
</event>
<event>
 6    0  0.1631680E+002  0.2061472E+03  0.7546771E-02  0.1144654E+00
         21   -1    0    0  505  502  0.00000000000E+00  0.00000000000E+00  0.18903792939E+03  0.18903792939E+03  0.00000000000E+00 0.  1.
          2   -1    0    0  503    0 -0.00000000000E+00 -0.00000000000E+00 -0.49669655813E+03  0.49669655813E+03  0.00000000000E+00 0. -1.
         21    1    1    2  503  504 -0.21494742914E+02 -0.42239444587E+02 -0.17128852176E+03  0.17772437182E+03  0.00000000000E+00 0.  1.
         21    1    1    2  504  502 -0.92691843280E+02 -0.14570619911E+03 -0.22382414745E+02  0.17413513936E+03  0.00000000000E+00 0.  1.
         21    1    1    2  505  501 -0.10362745817E+02 -0.29127075152E+02  0.31710774605E+02  0.44287088794E+02  0.00000000000E+00 0. -1.
          2    1    1    2  501    0  0.12454933201E+03  0.21707271885E+03 -0.14569846684E+03  0.28958788755E+03  0.00000000000E+00 0. -1.
<scales pt_clust_3="48.04731" pt_clust_4="206.14716" pt_clust_5="30.91558" pt_clust_6="14000.00000"></scales>
<clustering>
<clus scale="   30.916">  1  5  2 -1</clus>
<clus scale="   48.047">  2  3  1 -1</clus>
<clus scale="  206.147">  1  4  2 -1</clus>
<clus scale="   30.916">  1  3  2 -1</clus>
</clustering>
</event>
<event>
 6    0  0.1631680E+002  0.1432022E+03  0.7546771E-02  0.1209084E+00
         21   -1    0    0  503  502  0.00000000000E+00  0.00000000000E+00  0.82836840574E+02  0.82836840574E+02  0.00000000000E+00 0. -1.
          2   -1    0    0  504    0 -0.00000000000E+00 -0.00000000000E+00 -0.54086589187E+04  0.54086589187E+04  0.00000000000E+00 0.  1.
         21    1    1    2  503  501  0.63056905118E+02  0.90290554103E+02  0.27652449314E+02  0.11354829544E+03  0.00000000000E+00 0. -1.
         21    1    1    2  504  505 -0.19305359193E+02  0.79086050688E+02 -0.30412759610E+04  0.30423653250E+04  0.00000000000E+00 0. -1.
         21    1    1    2  505  502 -0.64388629874E+01  0.39936896946E+02 -0.54385484220E+02  0.67780495632E+02  0.00000000000E+00 0.  1.
          2    1    1    2  501    0 -0.37312682938E+02 -0.20931350174E+03 -0.22578130823E+04  0.22678016432E+04  0.00000000000E+00 0.  1.
<scales pt_clust_3="143.20220" pt_clust_4="81.69671" pt_clust_5="40.45262" pt_clust_6="14000.00000"></scales>
<clustering>
<clus scale="   40.453">  1  5  2 -1</clus>
<clus scale="   81.697">  2  4  1 -1</clus>
<clus scale="  143.202">  1  3  2 -1</clus>
<clus scale="   40.453">  1  3  2 -1</clus>
</clustering>
</event>
<event>
 6    0  0.1631680E+002  0.8398222E+02  0.7546771E-02  0.1318116E+00
          2   -1    0    0  503    0 -0.00000000000E+00  0.00000000000E+00  0.91262373565E+03  0.91262373565E+03  0.00000000000E+00 0.  1.
         21   -1    0    0  501  502  0.00000000000E+00 -0.00000000000E+00 -0.70587807931E+02  0.70587807931E+02  0.00000000000E+00 0.  1.
         21    1    1    2  503  505 -0.27881576945E+02 -0.35089646835E+02  0.10656030263E+03  0.11560174629E+03  0.00000000000E+00 0. -1.
         21    1    1    2  504  502 -0.30256842474E+02  0.80023530451E+02 -0.28062632985E+02  0.90037510585E+02  0.00000000000E+00 0.  1.
         21    1    1    2  505  504  0.69403558464E+02  0.22799160873E+02  0.28889551223E+03  0.29798871228E+03  0.00000000000E+00 0. -1.
          2    1    1    2  501    0 -0.11265139045E+02 -0.67733044489E+02  0.47464274584E+03  0.47958357442E+03  0.00000000000E+00 0.  1.
<scales pt_clust_3="44.81814" pt_clust_4="14000.00000" pt_clust_5="60.02710" pt_clust_6="83.98222"></scales>
<clustering>
<clus scale="   44.818">  1  3  2 -1</clus>
<clus scale="   60.027">  1  5  2 -1</clus>
<clus scale="   83.982">  1  6  2 -1</clus>
<clus scale="   83.982">  2  3  1 -1</clus>
</clustering>
</event>
<event>
 6    0  0.1631680E+002  0.9201266E+02  0.7546771E-02  0.1298050E+00
         21   -1    0    0  503  502  0.00000000000E+00  0.00000000000E+00  0.17792949568E+03  0.17792949568E+03  0.00000000000E+00 0. -1.
          2   -1    0    0  504    0 -0.00000000000E+00 -0.00000000000E+00 -0.91025175195E+03  0.91025175195E+03  0.00000000000E+00 0.  1.
         21    1    1    2  503  501  0.58187701816E+02 -0.73796148593E+01  0.13869856496E+03  0.15059070118E+03  0.00000000000E+00 0. -1.
         21    1    1    2  504  505  0.17433013593E+02 -0.78623155097E+02 -0.49222952104E+03  0.49877390857E+03  0.00000000000E+00 0.  1.
         21    1    1    2  505  502 -0.11452545842E+02 -0.37555845734E+02 -0.45619199883E+01  0.39527376197E+02  0.00000000000E+00 0. -1.
          2    1    1    2  501    0 -0.64168169568E+02  0.12355861569E+03 -0.37422938020E+03  0.39928926169E+03  0.00000000000E+00 0.  1.
<scales pt_clust_3="63.17703" pt_clust_4="92.01266" pt_clust_5="39.26324" pt_clust_6="14000.00000"></scales>
<clustering>
<clus scale="   39.263">  1  5  2 -1</clus>
<clus scale="   63.177">  1  3  2 -1</clus>
<clus scale="   92.013">  2  4  1 -1</clus>
<clus scale="   39.263">  1  3  2 -1</clus>
</clustering>
</event>
<event>
 6    0  0.1631680E+002  0.7662896E+02  0.7546771E-02  0.1338900E+00
         21   -1    0    0  504  502  0.00000000000E+00  0.00000000000E+00  0.24333520717E+03  0.24333520717E+03  0.00000000000E+00 0.  1.
          2   -1    0    0  503    0 -0.00000000000E+00 -0.00000000000E+00 -0.27632647139E+04  0.27632647139E+04  0.00000000000E+00 0.  1.
         21    1    1    2  503  505 -0.86232818941E+01  0.62046836944E+02 -0.40795992734E+03  0.41274141213E+03  0.00000000000E+00 0. -1.
         21    1    1    2  504  501  0.64884420251E+02 -0.21923754990E+02  0.22172810296E+03  0.23206462605E+03  0.00000000000E+00 0.  1.
         21    1    1    2  505  502 -0.20381083114E+02  0.35517147170E+02 -0.18248167935E+02  0.44831372107E+02  0.00000000000E+00 0.  1.
          2    1    1    2  501    0 -0.35880055243E+02 -0.75640229124E+02 -0.23154495144E+04  0.23169625108E+04  0.00000000000E+00 0.  1.
<scales pt_clust_3="76.62896" pt_clust_4="46.66100" pt_clust_5="40.94944" pt_clust_6="14000.00000"></scales>
<clustering>
<clus scale="   40.949">  1  5  2 -1</clus>
<clus scale="   46.661">  1  4  2 -1</clus>
<clus scale="   76.629">  1  3  2 -1</clus>
<clus scale="   40.949">  1  3  2 -1</clus>
</clustering>
</event>
<event>
 6    0  0.1631680E+002  0.7783398E+02  0.7546771E-02  0.1335313E+00
         21   -1    0    0  504  502  0.00000000000E+00  0.00000000000E+00  0.89306217155E+03  0.89306217155E+03  0.00000000000E+00 0.  1.
          2   -1    0    0  503    0 -0.00000000000E+00 -0.00000000000E+00 -0.55945946698E+03  0.55945946698E+03  0.00000000000E+00 0.  1.
         21    1    1    2  503  505  0.44625198671E+02  0.62159184236E+02 -0.40271893487E+03  0.40992403326E+03  0.00000000000E+00 0.  1.
         21    1    1    2  504  501  0.57796870227E+02  0.30121055799E+02  0.84336514055E+03  0.84587972934E+03  0.00000000000E+00 0.  1.
         21    1    1    2  505  502 -0.29470142655E+02 -0.82769713484E+02 -0.78452116067E+02  0.11778815430E+03  0.00000000000E+00 0.  1.
          2    1    1    2  501    0 -0.72951926243E+02 -0.95105265508E+01 -0.28591385041E+02  0.78929721629E+02  0.00000000000E+00 0.  1.
<scales pt_clust_3="14000.00000" pt_clust_4="65.17481" pt_clust_5="77.83398" pt_clust_6="43.35781"></scales>
<clustering>
<clus scale="   65.175">  1  4  2 -1</clus>
<clus scale="   43.358">  1  6  2 -1</clus>
<clus scale="   77.834">  1  5  2 -1</clus>
<clus scale="   65.175">  1  3  2 -1</clus>
</clustering>
</event>
<event>
 6    0  0.1631680E+002  0.1617652E+03  0.7546771E-02  0.1186718E+00
         -3   -1    0    0    0  501 -0.00000000000E+00  0.00000000000E+00  0.49007649434E+02  0.49007649434E+02  0.00000000000E+00 0.  1.
         21   -1    0    0  504  502  0.00000000000E+00 -0.00000000000E+00 -0.12325100965E+04  0.12325100965E+04  0.00000000000E+00 0.  1.
         21    1    1    2  503  501 -0.35460695351E+02 -0.35504328823E+01  0.84364874382E+01  0.36622954670E+02  0.00000000000E+00 0.  1.
         21    1    1    2  504  505  0.11737219005E+03  0.14519684791E+02 -0.74174968924E+03  0.75111893448E+03  0.00000000000E+00 0.  1.
         21    1    1    2  505  503  0.28634352965E+02  0.42731606094E+02 -0.27504728354E+03  0.27981587609E+03  0.00000000000E+00 0.  1.
         -3    1    1    2    0  502 -0.11054584766E+03 -0.53700858004E+02 -0.17514196175E+03  0.21395998072E+03  0.00000000000E+00 0.  1.
<scales pt_clust_3="35.63799" pt_clust_4="43.85964" pt_clust_5="43.85964" pt_clust_6="147.69258"></scales>
<clustering>
<clus scale="   35.638">  1  3  2 -1</clus>
<clus scale="   43.860">  4  5 -1 -1</clus>
<clus scale="  147.693">  1  6  2 -1</clus>
<clus scale="  161.765">  2  3  1 -1</clus>
</clustering>
</event>
<event>
 6    0  0.1631680E+002  0.1314016E+03  0.7546771E-02  0.1225391E+00
          1   -1    0    0  505    0 -0.00000000000E+00  0.00000000000E+00  0.11663650836E+03  0.11663650836E+03  0.00000000000E+00 0.  1.
         21   -1    0    0  503  502  0.00000000000E+00 -0.00000000000E+00 -0.19306008077E+04  0.19306008077E+04  0.00000000000E+00 0. -1.
         21    1    1    2  503  504 -0.21871741534E+02  0.51728833982E+02 -0.12768661073E+04  0.12781006616E+04  0.00000000000E+00 0. -1.
         21    1    1    2  504  501 -0.11517486008E+03 -0.43724126202E+02 -0.58062237534E+03  0.59354813650E+03  0.00000000000E+00 0. -1.
         21    1    1    2  505  502  0.35599464841E+02 -0.43987024460E+02 -0.63744001307E+01  0.56945703920E+02  0.00000000000E+00 0. -1.
          1    1    1    2  501    0  0.10144713677E+03  0.35982316681E+02  0.49898583452E+02  0.11864281395E+03  0.00000000000E+00 0.  1.
<scales pt_clust_3="56.16267" pt_clust_4="131.40161" pt_clust_5="53.97688" pt_clust_6="14000.00000"></scales>
<clustering>
<clus scale="   56.163">  2  3  1 -1</clus>
<clus scale="   53.977">  1  5  2 -1</clus>
<clus scale="  131.402">  2  4  1 -1</clus>
<clus scale="   56.163">  2  3  1 -1</clus>
</clustering>
</event>
<event>
 6    0  0.1631680E+002  0.1587860E+03  0.7546771E-02  0.1190074E+00
         21   -1    0    0  501  502  0.00000000000E+00  0.00000000000E+00  0.78112517998E+02  0.78112517998E+02  0.00000000000E+00 0. -1.
          2   -1    0    0  503    0 -0.00000000000E+00 -0.00000000000E+00 -0.24050160843E+04  0.24050160843E+04  0.00000000000E+00 0.  1.
         21    1    1    2  503  505  0.17582535380E+02  0.30562606217E+02 -0.49135715112E+03  0.49262061305E+03  0.00000000000E+00 0. -1.
         21    1    1    2  504  502 -0.43100162032E+02  0.24031152534E+02  0.30854976415E+01  0.49443306473E+02  0.00000000000E+00 0. -1.
         21    1    1    2  505  504 -0.10882093272E+03 -0.12192419179E+02 -0.13301889861E+02  0.11030680286E+03  0.00000000000E+00 0. -1.
          2    1    1    2  501    0  0.13433855937E+03 -0.42401339572E+02 -0.18253300230E+04  0.18307578799E+04  0.00000000000E+00 0.  1.
<scales pt_clust_3="35.25930" pt_clust_4="31.45509" pt_clust_5="31.45509" pt_clust_6="151.71503"></scales>
<clustering>
<clus scale="   31.455">  4  5 -1 -1</clus>
<clus scale="   35.259">  2  3  1 -1</clus>
<clus scale="  151.715">  2  6  1 -1</clus>
<clus scale="  158.786">  1  3  2 -1</clus>
</clustering>
</event>
<event>
 6    0  0.1631680E+002  0.1794868E+03  0.7546771E-02  0.1168301E+00
         21   -1    0    0  505  502  0.00000000000E+00  0.00000000000E+00  0.33919358240E+03  0.33919358240E+03  0.00000000000E+00 0. -1.
          1   -1    0    0  503    0 -0.00000000000E+00 -0.00000000000E+00 -0.10897698667E+04  0.10897698667E+04  0.00000000000E+00 0. -1.
         21    1    1    2  503  502 -0.20192268923E+02 -0.90050040104E+02  0.66089270122E+02  0.11351003952E+03  0.00000000000E+00 0. -1.
         21    1    1    2  504  501 -0.70836849417E+02 -0.64836082012E+01 -0.72696013094E+02  0.10170843982E+03  0.00000000000E+00 0. -1.
         21    1    1    2  505  504 -0.42803675530E+02 -0.38126551377E+02  0.22200716900E+03  0.22928796664E+03  0.00000000000E+00 0. -1.
          1    1    1    2  501    0  0.13383279387E+03  0.13466019968E+03 -0.96597671031E+03  0.98445700310E+03  0.00000000000E+00 0. -1.
<scales pt_clust_3="14000.00000" pt_clust_4="77.14546" pt_clust_5="57.32180" pt_clust_6="179.48682"></scales>
<clustering>
<clus scale="   57.322">  1  5  2 -1</clus>
<clus scale="   77.145">  1  4  2 -1</clus>
<clus scale="  179.487">  2  6  1 -1</clus>
<clus scale="   57.322">  1  3  2 -1</clus>
</clustering>
</event>
<event>
 6    0  0.1631680E+002  0.9592757E+02  0.7546771E-02  0.1289101E+00
          1   -1    0    0  505    0 -0.00000000000E+00  0.00000000000E+00  0.66637865714E+02  0.66637865714E+02  0.00000000000E+00 0. -1.
         21   -1    0    0  503  502  0.00000000000E+00 -0.00000000000E+00 -0.49495101982E+03  0.49495101982E+03  0.00000000000E+00 0. -1.
         21    1    1    2  503  501  0.42691269691E+02 -0.40004428866E+02 -0.13558628329E+03  0.14767037297E+03  0.00000000000E+00 0. -1.
         21    1    1    2  504  502  0.59811888264E+02  0.84013970836E+02 -0.26482360597E+03  0.28419597385E+03  0.00000000000E+00 0. -1.
         21    1    1    2  505  504 -0.43635022735E+02 -0.76158936917E+01 -0.39739325070E+02  0.59508243150E+02  0.00000000000E+00 0. -1.
          1    1    1    2  501    0 -0.58868135221E+02 -0.36393648278E+02  0.11836060228E+02  0.70214295561E+02  0.00000000000E+00 0. -1.
<scales pt_clust_3="55.79756" pt_clust_4="14000.00000" pt_clust_5="44.29466" pt_clust_6="95.92757"></scales>
<clustering>
<clus scale="   44.295">  1  5  2 -1</clus>
<clus scale="   55.798">  2  3  1 -1</clus>
<clus scale="   95.928">  1  6  2 -1</clus>
<clus scale="   55.798">  2  3  1 -1</clus>
</clustering>
</event>
<event>
 6    0  0.1631680E+002  0.3798258E+03  0.7546771E-02  0.1050998E+00
          1   -1    0    0  503    0 -0.00000000000E+00  0.00000000000E+00  0.73047290542E+03  0.73047290542E+03  0.00000000000E+00 0.  1.
         21   -1    0    0  501  502  0.00000000000E+00 -0.00000000000E+00 -0.88484039499E+03  0.88484039499E+03  0.00000000000E+00 0.  1.
         21    1    1    2  503  505 -0.34494328834E+02 -0.15074010372E+02  0.11946747611E+03  0.12525798321E+03  0.00000000000E+00 0. -1.
         21    1    1    2  504  502 -0.20333168941E+03 -0.20242376466E+03 -0.51935851050E+03  0.59334005330E+03  0.00000000000E+00 0.  1.
         21    1    1    2  505  504 -0.82469222581E+02 -0.13044225616E+02 -0.24981088515E+03  0.26339476615E+03  0.00000000000E+00 0.  1.
          1    1    1    2  501    0  0.32029524082E+03  0.23054200065E+03  0.49533442998E+03  0.63332049776E+03  0.00000000000E+00 0.  1.
<scales pt_clust_3="37.64418" pt_clust_4="64.34661" pt_clust_5="64.34661" pt_clust_6="360.55962"></scales>
<clustering>
<clus scale="   37.644">  1  3  2 -1</clus>
<clus scale="   64.347">  4  5 -1 -1</clus>
<clus scale="  360.560">  1  6  2 -1</clus>
<clus scale="  379.826">  2  3  1 -1</clus>
</clustering>
</event>
<event>
 6    0  0.1631680E+002  0.1260393E+03  0.7546771E-02  0.1233454E+00
          2   -1    0    0  503    0 -0.00000000000E+00  0.00000000000E+00  0.14587091251E+04  0.14587091251E+04  0.00000000000E+00 0.  1.
         21   -1    0    0  504  502  0.00000000000E+00 -0.00000000000E+00 -0.34073343120E+03  0.34073343120E+03  0.00000000000E+00 0. -1.
         21    1    1    2  503  502 -0.21382081326E+02 -0.31840078811E+02  0.75814601596E+02  0.84963744243E+02  0.00000000000E+00 0.  1.
         21    1    1    2  504  505  0.20282561854E+02  0.41595888100E+02 -0.31781479990E+03  0.32116638562E+03  0.00000000000E+00 0. -1.
         21    1    1    2  505  501 -0.28370953078E+02  0.10292008377E+03  0.19316876107E+03  0.22070710200E+03  0.00000000000E+00 0. -1.
          2    1    1    2  501    0  0.29470472550E+02 -0.11267589306E+03  0.11668071312E+04  0.11726053245E+04  0.00000000000E+00 0.  1.
<scales pt_clust_3="38.35341" pt_clust_4="46.23124" pt_clust_5="126.03931" pt_clust_6="14000.00000"></scales>
<clustering>
<clus scale="   38.353">  1  3  2 -1</clus>
<clus scale="   46.231">  2  4  1 -1</clus>
<clus scale="  126.039">  2  5  1 -1</clus>
<clus scale="   46.231">  2  3  1 -1</clus>
</clustering>
</event>
<event>
 6    0  0.1631680E+002  0.8429134E+02  0.7546771E-02  0.1317296E+00
          2   -1    0    0  503    0 -0.00000000000E+00  0.00000000000E+00  0.19517189289E+04  0.19517189289E+04  0.00000000000E+00 0.  1.
         21   -1    0    0  504  502  0.00000000000E+00 -0.00000000000E+00 -0.87143142162E+02  0.87143142162E+02  0.00000000000E+00 0.  1.
         21    1    1    2  503  505  0.23697391470E+02  0.19274051741E+02  0.19904255135E+03  0.20137277046E+03  0.00000000000E+00 0.  1.
         21    1    1    2  504  501  0.39879654554E+02 -0.64667868466E+02 -0.15878076307E+02  0.77617223388E+02  0.00000000000E+00 0.  1.
         21    1    1    2  505  502 -0.76348835647E+01  0.11813007034E+03  0.54404826161E+02  0.13028004481E+03  0.00000000000E+00 0.  1.
          2    1    1    2  501    0 -0.55942162459E+02 -0.72736253615E+02  0.16270064855E+04  0.16295920324E+04  0.00000000000E+00 0.  1.
<scales pt_clust_3="30.54596" pt_clust_4="84.29134" pt_clust_5="14000.00000" pt_clust_6="64.45951"></scales>
<clustering>
<clus scale="   30.546">  1  3  2 -1</clus>
<clus scale="   64.460">  1  6  2 -1</clus>
<clus scale="   84.291">  2  4  1 -1</clus>
<clus scale="   84.291">  2  3  1 -1</clus>
</clustering>
</event>
<event>
 6    0  0.1631680E+002  0.1276614E+03  0.7546771E-02  0.1230968E+00
         21   -1    0    0  504  502  0.00000000000E+00  0.00000000000E+00  0.12589708919E+04  0.12589708919E+04  0.00000000000E+00 0.  1.
         -1   -1    0    0    0  501 -0.00000000000E+00 -0.00000000000E+00 -0.13740128648E+03  0.13740128648E+03  0.00000000000E+00 0.  1.
         21    1    1    2  503  501 -0.37913864520E+02 -0.96833025640E+02  0.67173562392E+03  0.67973733487E+03  0.00000000000E+00 0.  1.
         21    1    1    2  504  503 -0.70758512993E+02 -0.63416652194E+01  0.46573446920E+03  0.47112161878E+03  0.00000000000E+00 0.  1.
         21    1    1    2  505  502  0.41757090912E+00  0.31719883057E+02  0.78777154238E+02  0.84924468656E+02  0.00000000000E+00 0.  1.
         -1    1    1    2    0  505  0.10825480660E+03  0.71454807803E+02 -0.94677641906E+02  0.16058875611E+03  0.00000000000E+00 0.  1.
<scales pt_clust_3="127.66141" pt_clust_4="70.87123" pt_clust_5="31.72263" pt_clust_6="14000.00000"></scales>
<clustering>
<clus scale="   31.723">  1  5  2 -1</clus>
<clus scale="   70.871">  1  4  2 -1</clus>
<clus scale="  127.661">  1  3  2 -1</clus>
<clus scale="   31.723">  1  3  2 -1</clus>
</clustering>
</event>
<event>
 6    0  0.1631680E+002  0.1373928E+03  0.7546771E-02  0.1216881E+00
         -2   -1    0    0    0  501 -0.00000000000E+00  0.00000000000E+00  0.14435927324E+04  0.14435927324E+04  0.00000000000E+00 0.  1.
         21   -1    0    0  504  502  0.00000000000E+00 -0.00000000000E+00 -0.12638151119E+03  0.12638151119E+03  0.00000000000E+00 0. -1.
         21    1    1    2  503  505  0.49945191908E+02  0.16353732821E+02  0.91502228481E+02  0.10552073061E+03  0.00000000000E+00 0. -1.
         21    1    1    2  504  501 -0.13859671964E+03 -0.53256146387E+01 -0.63124593625E+02  0.15238808086E+03  0.00000000000E+00 0. -1.
         21    1    1    2  505  502  0.15450371219E+02  0.57899146504E+02  0.84776172977E+02  0.10381726562E+03  0.00000000000E+00 0. -1.
         -2    1    1    2    0  503  0.73201156515E+02 -0.68927264686E+02  0.12040574134E+04  0.12082481665E+04  0.00000000000E+00 0.  1.
<scales pt_clust_3="50.93515" pt_clust_4="126.16861" pt_clust_5="50.93515" pt_clust_6="100.54540"></scales>
<clustering>
<clus scale="   50.935">  3  5 -1 -1</clus>
<clus scale="  100.545">  1  6  2 -1</clus>
<clus scale="  126.169">  2  4  1 -1</clus>
<clus scale="  126.169">  2  3  1 -1</clus>
</clustering>
</event>
<event>
 6    0  0.1631680E+002  0.9376720E+02  0.7546771E-02  0.1293977E+00
         21   -1    0    0  504  502  0.00000000000E+00  0.00000000000E+00  0.22129097583E+03  0.22129097583E+03  0.00000000000E+00 0.  1.
          2   -1    0    0  505    0 -0.00000000000E+00 -0.00000000000E+00 -0.11858438868E+04  0.11858438868E+04  0.00000000000E+00 0. -1.
         21    1    1    2  503  501  0.11928397873E+03 -0.60209089369E+01 -0.35089292688E+02  0.12448364305E+03  0.00000000000E+00 0. -1.
         21    1    1    2  504  503 -0.41793189329E+02 -0.16874210956E+02  0.16354147731E+03  0.16963851116E+03  0.00000000000E+00 0.  1.
         21    1    1    2  505  502 -0.11476597833E+01 -0.30906983132E+02 -0.22028059628E+02  0.37970964437E+02  0.00000000000E+00 0.  1.
          2    1    1    2  501    0 -0.76343129617E+02  0.53802103025E+02 -0.10709770360E+04  0.10750417440E+04  0.00000000000E+00 0. -1.
<scales pt_clust_3="93.76720" pt_clust_4="59.19687" pt_clust_5="30.92828" pt_clust_6="14000.00000"></scales>
<clustering>
<clus scale="   30.928">  1  5  2 -1</clus>
<clus scale="   59.197">  1  4  2 -1</clus>
<clus scale="   93.767">  1  3  2 -1</clus>
<clus scale="   30.928">  1  3  2 -1</clus>
</clustering>
</event>
<event>
 6    0  0.1631680E+002  0.3100446E+03  0.7546771E-02  0.1080325E+00
         -2   -1    0    0    0  501 -0.00000000000E+00  0.00000000000E+00  0.15903434362E+03  0.15903434362E+03  0.00000000000E+00 0. -1.
         21   -1    0    0  505  502  0.00000000000E+00 -0.00000000000E+00 -0.10341609001E+04  0.10341609001E+04  0.00000000000E+00 0. -1.
         21    1    1    2  503  501  0.47879027319E+02 -0.19914915151E+02  0.10732047009E+02  0.52954527054E+02  0.00000000000E+00 0.  1.
         21    1    1    2  504  502 -0.14786517140E+02 -0.28729715496E+02 -0.39450049197E+02  0.50993568450E+02  0.00000000000E+00 0.  1.
         21    1    1    2  505  503  0.17125560498E+03 -0.23031419578E+03 -0.59852117866E+03  0.66377760758E+03  0.00000000000E+00 0. -1.
         -2    1    1    2    0  504 -0.20434811515E+03  0.27895882643E+03 -0.24788737560E+03  0.42546954062E+03  0.00000000000E+00 0. -1.
<scales pt_clust_3="51.80427" pt_clust_4="32.31157" pt_clust_5="310.04456" pt_clust_6="14000.00000"></scales>
<clustering>
<clus scale="   32.312">  2  4  1 -1</clus>
<clus scale="   51.804">  1  3  2 -1</clus>
<clus scale="  310.045">  2  5  1 -1</clus>
<clus scale="   32.312">  2  3  1 -1</clus>
</clustering>
</event>
<event>
 6    0  0.1631680E+002  0.1845466E+03  0.7546771E-02  0.1163474E+00
         21   -1    0    0  503  502  0.00000000000E+00  0.00000000000E+00  0.64254560786E+03  0.64254560786E+03  0.00000000000E+00 0.  1.
          1   -1    0    0  505    0 -0.00000000000E+00 -0.00000000000E+00 -0.30154623875E+03  0.30154623875E+03  0.00000000000E+00 0. -1.
         21    1    1    2  503  504 -0.32979854664E+02 -0.56955842972E+01  0.16391774685E+03  0.16729954641E+03  0.00000000000E+00 0.  1.
         21    1    1    2  504  501 -0.13820090434E+03  0.99591990689E+02  0.39457506984E+03  0.42977615139E+03  0.00000000000E+00 0.  1.
         21    1    1    2  505  502  0.48795356320E+02 -0.76797892331E+02  0.64749722077E+01  0.91218574479E+02  0.00000000000E+00 0.  1.
          1    1    1    2  501    0  0.12238540268E+03 -0.17098514060E+02 -0.22396841979E+03  0.25579757434E+03  0.00000000000E+00 0. -1.
<scales pt_clust_3="33.46805" pt_clust_4="184.54656" pt_clust_5="89.72522" pt_clust_6="14000.00000"></scales>
<clustering>
<clus scale="   33.468">  1  3  2 -1</clus>
<clus scale="   89.725">  2  5  1 -1</clus>
<clus scale="  184.547">  1  4  2 -1</clus>
<clus scale="   33.468">  1  3  2 -1</clus>
</clustering>
</event>
<event>
 6    0  0.1631680E+002  0.1030233E+03  0.7546771E-02  0.1274064E+00
         21   -1    0    0  505  502  0.00000000000E+00  0.00000000000E+00  0.28530211815E+03  0.28530211815E+03  0.00000000000E+00 0.  1.
         -3   -1    0    0    0  501 -0.00000000000E+00 -0.00000000000E+00 -0.44458834735E+03  0.44458834735E+03  0.00000000000E+00 0.  1.
         21    1    1    2  503  504 -0.71723411276E+02  0.39535608316E+02 -0.45749065221E+02  0.93809855658E+02  0.00000000000E+00 0. -1.
         21    1    1    2  504  502 -0.58869434591E+02  0.14629033704E+02  0.22707981139E+03  0.23504225087E+03  0.00000000000E+00 0.  1.
         21    1    1    2  505  501  0.27960948748E+02 -0.12764353258E+02  0.10822385602E+02  0.32586306926E+02  0.00000000000E+00 0. -1.
         -3    1    1    2    0  503  0.10263189712E+03 -0.41400288761E+02 -0.35143936097E+03  0.36845205204E+03  0.00000000000E+00 0.  1.
<scales pt_clust_3="14000.00000" pt_clust_4="34.53159" pt_clust_5="30.73668" pt_clust_6="103.02327"></scales>
<clustering>
<clus scale="   30.737">  1  5  2 -1</clus>
<clus scale="   34.532">  1  4  2 -1</clus>
<clus scale="  103.023">  2  6  1 -1</clus>
<clus scale="   30.737">  1  3  2 -1</clus>
</clustering>
</event>
<event>
 6    0  0.1631680E+002  0.1121779E+03  0.7546771E-02  0.1256589E+00
         21   -1    0    0  504  502  0.00000000000E+00  0.00000000000E+00  0.61937314635E+03  0.61937314635E+03  0.00000000000E+00 0. -1.
          2   -1    0    0  503    0 -0.00000000000E+00 -0.00000000000E+00 -0.10316516736E+04  0.10316516736E+04  0.00000000000E+00 0. -1.
         21    1    1    2  503  505 -0.38819870154E+01 -0.33991426788E+02 -0.27589446838E+03  0.27800763407E+03  0.00000000000E+00 0. -1.
         21    1    1    2  504  501 -0.25376857027E+02 -0.10723767616E+03  0.42690179192E+03  0.44089572918E+03  0.00000000000E+00 0. -1.
         21    1    1    2  505  502  0.61466643686E+02  0.10509760180E+03  0.16342941513E+03  0.20379604491E+03  0.00000000000E+00 0. -1.
          2    1    1    2  501    0 -0.32207799644E+02  0.36131501144E+02 -0.72671526595E+03  0.72832541182E+03  0.00000000000E+00 0. -1.
<scales pt_clust_3="34.21238" pt_clust_4="14000.00000" pt_clust_5="112.17795" pt_clust_6="36.10705"></scales>
<clustering>
<clus scale="   34.212">  2  3  1 -1</clus>
<clus scale="   36.107">  2  6  1 -1</clus>
<clus scale="  112.178">  2  5  1 -1</clus>
<clus scale="  112.178">  1  3  2 -1</clus>
</clustering>
</event>
<event>
 6    0  0.1631680E+002  0.9946074E+02  0.7546771E-02  0.1281434E+00
          1   -1    0    0  505    0 -0.00000000000E+00  0.00000000000E+00  0.56130906746E+03  0.56130906746E+03  0.00000000000E+00 0. -1.
         21   -1    0    0  503  502  0.00000000000E+00 -0.00000000000E+00 -0.23010713166E+03  0.23010713166E+03  0.00000000000E+00 0. -1.
         21    1    1    2  503  501 -0.10628134437E+03 -0.85341980416E+02 -0.18363650373E+03  0.22869486939E+03  0.00000000000E+00 0. -1.
         21    1    1    2  504  502  0.31072377896E+02  0.21661197458E+02  0.76191799785E+01  0.38636149484E+02  0.00000000000E+00 0. -1.
         21    1    1    2  505  504  0.25410284377E+02 -0.18577600865E+02  0.75729112966E+02  0.82010416148E+02  0.00000000000E+00 0.  1.
          1    1    1    2  501    0  0.49798682092E+02  0.82258383823E+02  0.43149014659E+03  0.44207476410E+03  0.00000000000E+00 0. -1.
<scales pt_clust_3="14000.00000" pt_clust_4="38.39396" pt_clust_5="31.47713" pt_clust_6="99.46074"></scales>
<clustering>
<clus scale="   31.477">  1  5  2 -1</clus>
<clus scale="   38.394">  2  4  1 -1</clus>
<clus scale="   99.461">  1  6  2 -1</clus>
<clus scale="   38.394">  2  3  1 -1</clus>
</clustering>
</event>
<event>
 6    0  0.1631680E+002  0.8420929E+02  0.7546771E-02  0.1317513E+00
          1   -1    0    0  504    0 -0.00000000000E+00  0.00000000000E+00  0.12239913466E+04  0.12239913466E+04  0.00000000000E+00 0.  1.
         21   -1    0    0  503  502  0.00000000000E+00 -0.00000000000E+00 -0.24510594228E+03  0.24510594228E+03  0.00000000000E+00 0. -1.
         21    1    1    2  503  501  0.41575773964E+02 -0.73196561005E+02  0.17130256019E+01  0.84197482032E+02  0.00000000000E+00 0. -1.
         21    1    1    2  504  505  0.58693381174E+02  0.36482289298E+02  0.23409353852E+03  0.24408124713E+03  0.00000000000E+00 0.  1.
         21    1    1    2  505  502 -0.72853721214E+01  0.47356639916E+02 -0.19361765262E+03  0.19945807428E+03  0.00000000000E+00 0. -1.
          1    1    1    2  501    0 -0.92983783017E+02 -0.10642368209E+02  0.93669649280E+03  0.94136048543E+03  0.00000000000E+00 0.  1.
<scales pt_clust_3="48.37648" pt_clust_4="14000.00000" pt_clust_5="47.91376" pt_clust_6="84.20929"></scales>
<clustering>
<clus scale="   47.914">  2  5  1 -1</clus>
<clus scale="   48.376">  2  3  1 -1</clus>
<clus scale="   84.209">  1  6  2 -1</clus>
<clus scale="   47.914">  2  3  1 -1</clus>
</clustering>
</event>
<event>
 6    0  0.1631680E+002  0.1042026E+03  0.7546771E-02  0.1271699E+00
         21   -1    0    0  504  502  0.00000000000E+00  0.00000000000E+00  0.43995377572E+03  0.43995377572E+03  0.00000000000E+00 0.  1.
         -1   -1    0    0    0  501 -0.00000000000E+00 -0.00000000000E+00 -0.14599876015E+03  0.14599876015E+03  0.00000000000E+00 0. -1.
         21    1    1    2  503  502 -0.27625805468E+02 -0.77648042807E+02 -0.54429662666E+02  0.98767362309E+02  0.00000000000E+00 0. -1.
         21    1    1    2  504  505  0.64173757754E+02  0.85529992684E+02  0.33717808021E+03  0.35372688420E+03  0.00000000000E+00 0.  1.
         21    1    1    2  505  501  0.36667512551E+02 -0.38906433303E+02  0.51869572292E+01  0.53713327530E+02  0.00000000000E+00 0. -1.
         -1    1    1    2    0  503 -0.73215464837E+02  0.31024483426E+02  0.60196407997E+01  0.79744961838E+02  0.00000000000E+00 0. -1.
<scales pt_clust_3="104.20256" pt_clust_4="14000.00000" pt_clust_5="53.46230" pt_clust_6="65.02483"></scales>
<clustering>
<clus scale="   53.462">  2  5  1 -1</clus>
<clus scale="   65.025">  2  6  1 -1</clus>
<clus scale="  104.203">  2  3  1 -1</clus>
<clus scale="  104.203">  1  3  2 -1</clus>
</clustering>
</event>
<event>
 6    0  0.1631680E+002  0.8459271E+02  0.7546771E-02  0.1316501E+00
          4   -1    0    0  503    0 -0.00000000000E+00  0.00000000000E+00  0.30724572995E+03  0.30724572995E+03  0.00000000000E+00 0. -1.
         21   -1    0    0  505  502  0.00000000000E+00 -0.00000000000E+00 -0.25241146387E+04  0.25241146387E+04  0.00000000000E+00 0.  1.
         21    1    1    2  503  504 -0.15215682361E+02  0.97034180057E+02 -0.13952908275E+03  0.17063268744E+03  0.00000000000E+00 0.  1.
         21    1    1    2  504  502  0.32748693449E+02 -0.77421007370E+02 -0.23253056346E+04  0.23268246138E+04  0.00000000000E+00 0.  1.
         21    1    1    2  505  501  0.89678433981E+01 -0.44648677826E+02 -0.29364574326E+02  0.54186759196E+02  0.00000000000E+00 0.  1.
          4    1    1    2  501    0 -0.26500854486E+02  0.25035505139E+02  0.27733038289E+03  0.27971630821E+03  0.00000000000E+00 0. -1.
<scales pt_clust_3="84.59271" pt_clust_4="14000.00000" pt_clust_5="33.92173" pt_clust_6="36.45644"></scales>
<clustering>
<clus scale="   36.456">  1  6  2 -1</clus>
<clus scale="   33.922">  1  5  2 -1</clus>
<clus scale="   84.593">  1  3  2 -1</clus>
<clus scale="   84.593">  2  3  1 -1</clus>
</clustering>
</event>
<event>
 6    0  0.1631680E+002  0.1230046E+03  0.7546771E-02  0.1238221E+00
         21   -1    0    0  503  502  0.00000000000E+00  0.00000000000E+00  0.15258660300E+03  0.15258660300E+03  0.00000000000E+00 0. -1.
          2   -1    0    0  505    0 -0.00000000000E+00 -0.00000000000E+00 -0.28715989485E+04  0.28715989485E+04  0.00000000000E+00 0. -1.
         21    1    1    2  503  501  0.95701218501E+02  0.21136414611E+02 -0.10623823281E+03  0.14454076710E+03  0.00000000000E+00 0. -1.
         21    1    1    2  504  502 -0.12628905539E+03  0.43759351299E+02  0.88093428770E+02  0.16007578995E+03  0.00000000000E+00 0. -1.
         21    1    1    2  505  504  0.21144056513E+02  0.79369987164E+02 -0.22567878193E+03  0.24016156771E+03  0.00000000000E+00 0.  1.
          2    1    1    2  501    0  0.94437803718E+01 -0.14426575307E+03 -0.24751887595E+04  0.24794074267E+04  0.00000000000E+00 0. -1.
<scales pt_clust_3="14000.00000" pt_clust_4="123.00460" pt_clust_5="82.13809" pt_clust_6="75.65211"></scales>
<clustering>
<clus scale="   82.138">  2  5  1 -1</clus>
<clus scale="   75.652">  2  6  1 -1</clus>
<clus scale="  123.005">  1  4  2 -1</clus>
<clus scale="  123.005">  1  3  2 -1</clus>
</clustering>
</event>
<event>
 6    0  0.1631680E+002  0.1302806E+03  0.7546771E-02  0.1227040E+00
         21   -1    0    0  504  502  0.00000000000E+00  0.00000000000E+00  0.27186087364E+03  0.27186087364E+03  0.00000000000E+00 0.  1.
         -1   -1    0    0    0  501 -0.00000000000E+00 -0.00000000000E+00 -0.10874511653E+04  0.10874511653E+04  0.00000000000E+00 0. -1.
         21    1    1    2  503  505 -0.63836470174E+02 -0.43535505478E+02 -0.38134212793E+03  0.38909157495E+03  0.00000000000E+00 0. -1.
         21    1    1    2  504  501  0.72661287487E+02  0.59882437571E+02 -0.12385878788E+03  0.15558460195E+03  0.00000000000E+00 0.  1.
         21    1    1    2  505  502  0.18305422091E+02  0.24067486446E+02  0.25015806285E+03  0.25197894514E+03  0.00000000000E+00 0.  1.
         -1    1    1    2    0  503 -0.27130239404E+02 -0.40414418539E+02 -0.56054743872E+03  0.56265691693E+03  0.00000000000E+00 0. -1.
<scales pt_clust_3="46.83013" pt_clust_4="116.73189" pt_clust_5="30.23793" pt_clust_6="46.83013"></scales>
<clustering>
<clus scale="   30.238">  1  5  2 -1</clus>
<clus scale="   46.830">  3  6 -1 -1</clus>
<clus scale="  116.732">  1  4  2 -1</clus>
<clus scale="   30.238">  1  3  2 -1</clus>
</clustering>
</event>
<event>
 6    0  0.1631680E+002  0.9135337E+02  0.7546771E-02  0.1299607E+00
         21   -1    0    0  505  502  0.00000000000E+00  0.00000000000E+00  0.45680157435E+02  0.45680157435E+02  0.00000000000E+00 0. -1.
          2   -1    0    0  503    0 -0.00000000000E+00 -0.00000000000E+00 -0.34787886827E+04  0.34787886827E+04  0.00000000000E+00 0. -1.
         21    1    1    2  503  504  0.56960733722E+02 -0.20095337151E+02 -0.27673262433E+03  0.28324775927E+03  0.00000000000E+00 0. -1.
         21    1    1    2  504  502 -0.77014085900E+02  0.19183358679E+02 -0.90345787420E+02  0.12025610996E+03  0.00000000000E+00 0. -1.
         21    1    1    2  505  501  0.88307571233E+02 -0.58396473014E+02 -0.77836410059E+02  0.13140350805E+03  0.00000000000E+00 0. -1.
          2    1    1    2  501    0 -0.68254219055E+02  0.59308451486E+02 -0.29881937034E+04  0.29895614628E+04  0.00000000000E+00 0. -1.
<scales pt_clust_3="60.40155" pt_clust_4="91.35337" pt_clust_5="14000.00000" pt_clust_6="43.22938"></scales>
<clustering>
<clus scale="   60.402">  2  3  1 -1</clus>
<clus scale="   43.229">  2  6  1 -1</clus>
<clus scale="   91.353">  2  4  1 -1</clus>
<clus scale="   91.353">  1  3  2 -1</clus>
</clustering>
</event>
<event>
 6    0  0.1631680E+002  0.8453895E+02  0.7546771E-02  0.1316643E+00
         21   -1    0    0  504  502  0.00000000000E+00  0.00000000000E+00  0.41034419626E+03  0.41034419626E+03  0.00000000000E+00 0. -1.
          3   -1    0    0  503    0 -0.00000000000E+00 -0.00000000000E+00 -0.26839430325E+03  0.26839430325E+03  0.00000000000E+00 0.  1.
         21    1    1    2  503  505 -0.15472603240E+02 -0.76644445660E+02 -0.15082157368E+03  0.16988501873E+03  0.00000000000E+00 0.  1.
         21    1    1    2  504  501  0.34748411367E+01 -0.37250016056E+02  0.34182688312E+02  0.50676369221E+02  0.00000000000E+00 0.  1.
         21    1    1    2  505  502 -0.27780535404E+02  0.17707547367E+02  0.33019702785E+03  0.33183639430E+03  0.00000000000E+00 0. -1.
          3    1    1    2  501    0  0.39778297508E+02  0.96186914350E+02 -0.71608249473E+02  0.12634071726E+03  0.00000000000E+00 0.  1.
<scales pt_clust_3="84.53895" pt_clust_4="30.02100" pt_clust_5="32.94413" pt_clust_6="14000.00000"></scales>
<clustering>
<clus scale="   32.944">  1  5  2 -1</clus>
<clus scale="   30.021">  1  4  2 -1</clus>
<clus scale="   84.539">  2  3  1 -1</clus>
<clus scale="   32.944">  1  3  2 -1</clus>
</clustering>
</event>
<event>
 6    0  0.1631680E+002  0.9586364E+02  0.7546771E-02  0.1289243E+00
         21   -1    0    0  504  502  0.00000000000E+00  0.00000000000E+00  0.19707680357E+03  0.19707680357E+03  0.00000000000E+00 0. -1.
          1   -1    0    0  505    0 -0.00000000000E+00 -0.00000000000E+00 -0.13405198095E+04  0.13405198095E+04  0.00000000000E+00 0.  1.
         21    1    1    2  503  501  0.60513492741E+02 -0.41518564843E+01  0.36252914053E+02  0.70663954696E+02  0.00000000000E+00 0. -1.
         21    1    1    2  504  503  0.28526310744E+02 -0.15376390994E+02  0.13314748297E+03  0.13703443372E+03  0.00000000000E+00 0. -1.
         21    1    1    2  505  502 -0.68152479502E+00  0.94903365543E+02 -0.51934192626E+03  0.52794237340E+03  0.00000000000E+00 0.  1.
          1    1    1    2  501    0 -0.88358278690E+02 -0.75375118064E+02 -0.79350147669E+03  0.80195585125E+03  0.00000000000E+00 0.  1.
<scales pt_clust_3="86.87834" pt_clust_4="32.40654" pt_clust_5="14000.00000" pt_clust_6="95.86364"></scales>
<clustering>
<clus scale="   32.407">  1  4  2 -1</clus>
<clus scale="   86.878">  1  3  2 -1</clus>
<clus scale="   95.864">  2  6  1 -1</clus>
<clus scale="   32.407">  1  3  2 -1</clus>
</clustering>
</event>
<event>
 6    0  0.1631680E+002  0.1045327E+03  0.7546771E-02  0.1271043E+00
          2   -1    0    0  503    0 -0.00000000000E+00  0.00000000000E+00  0.23222592295E+04  0.23222592295E+04  0.00000000000E+00 0. -1.
         21   -1    0    0  505  502  0.00000000000E+00 -0.00000000000E+00 -0.34376837136E+02  0.34376837136E+02  0.00000000000E+00 0. -1.
         21    1    1    2  503  502 -0.78486188480E+02  0.91258368305E+01  0.29154519665E+03  0.30206284837E+03  0.00000000000E+00 0. -1.
         21    1    1    2  504  501 -0.14926657059E+02  0.58328921198E+02  0.35811739534E+03  0.36314341104E+03  0.00000000000E+00 0.  1.
         21    1    1    2  505  504  0.14652261573E+02  0.27459436250E+02 -0.14343633530E+02  0.34270238272E+02  0.00000000000E+00 0. -1.
          2    1    1    2  501    0  0.78760583966E+02 -0.94914194278E+02  0.16525634339E+04  0.16571595689E+04  0.00000000000E+00 0. -1.
<scales pt_clust_3="104.53267" pt_clust_4="66.14874" pt_clust_5="31.12410" pt_clust_6="14000.00000"></scales>
<clustering>
<clus scale="   31.124">  2  5  1 -1</clus>
<clus scale="   66.149">  2  4  1 -1</clus>
<clus scale="  104.533">  2  3  1 -1</clus>
<clus scale="   31.124">  2  3  1 -1</clus>
</clustering>
</event>
<event>
 6    0  0.1631680E+002  0.8456582E+02  0.7546771E-02  0.1316572E+00
         21   -1    0    0  504  502  0.00000000000E+00  0.00000000000E+00  0.21054950670E+03  0.21054950670E+03  0.00000000000E+00 0.  1.
          2   -1    0    0  505    0 -0.00000000000E+00 -0.00000000000E+00 -0.55707775903E+03  0.55707775903E+03  0.00000000000E+00 0.  1.
         21    1    1    2  503  502 -0.39330068214E+02  0.27924316144E+00  0.16263791030E+02  0.42561051927E+02  0.00000000000E+00 0. -1.
         21    1    1    2  504  501  0.10977537599E+03 -0.45683639979E+02  0.14639041968E+03  0.18859422873E+03  0.00000000000E+00 0.  1.
         21    1    1    2  505  503 -0.24832175877E+02 -0.18693918127E+02 -0.40363886578E+03  0.40483383443E+03  0.00000000000E+00 0.  1.
          2    1    1    2  501    0 -0.45613131896E+02  0.64098314945E+02 -0.10554359726E+03  0.13163815064E+03  0.00000000000E+00 0.  1.
<scales pt_clust_3="41.48762" pt_clust_4="14000.00000" pt_clust_5="31.08214" pt_clust_6="84.56582"></scales>
<clustering>
<clus scale="   31.082">  2  5  1 -1</clus>
<clus scale="   41.488">  1  3  2 -1</clus>
<clus scale="   84.566">  2  6  1 -1</clus>
<clus scale="   41.488">  1  3  2 -1</clus>
</clustering>
</event>
<event>
 6    0  0.1631680E+002  0.8797773E+02  0.7546771E-02  0.1307824E+00
          2   -1    0    0  503    0 -0.00000000000E+00  0.00000000000E+00  0.47405272782E+03  0.47405272782E+03  0.00000000000E+00 0.  1.
         21   -1    0    0  504  502  0.00000000000E+00 -0.00000000000E+00 -0.56245507796E+03  0.56245507796E+03  0.00000000000E+00 0. -1.
         21    1    1    2  503  505  0.30810050275E+02  0.12178608441E+02  0.53388638820E+02  0.62832511143E+02  0.00000000000E+00 0.  1.
         21    1    1    2  504  501 -0.26175467906E+02 -0.21639500011E+02 -0.25179881962E+02  0.42278239515E+02  0.00000000000E+00 0.  1.
         21    1    1    2  505  502  0.88076136650E+02  0.81638772667E+02 -0.50838867014E+03  0.52238045042E+03  0.00000000000E+00 0. -1.
          2    1    1    2  501    0 -0.92710719019E+02 -0.72177881097E+02  0.39177756314E+03  0.40901660470E+03  0.00000000000E+00 0.  1.
<scales pt_clust_3="33.12971" pt_clust_4="33.31518" pt_clust_5="87.97773" pt_clust_6="14000.00000"></scales>
<clustering>
<clus scale="   33.130">  1  3  2 -1</clus>
<clus scale="   33.315">  2  4  1 -1</clus>
<clus scale="   87.978">  2  5  1 -1</clus>
<clus scale="   33.315">  2  3  1 -1</clus>
</clustering>
</event>
<event>
 6    0  0.1631680E+002  0.8263499E+02  0.7546771E-02  0.1321736E+00
          2   -1    0    0  505    0 -0.00000000000E+00  0.00000000000E+00  0.24491981782E+04  0.24491981782E+04  0.00000000000E+00 0.  1.
         21   -1    0    0  503  502  0.00000000000E+00 -0.00000000000E+00 -0.95215872214E+02  0.95215872214E+02  0.00000000000E+00 0.  1.
         21    1    1    2  503  504 -0.58303891089E+02  0.20885378085E+00  0.66007020012E+02  0.88069938270E+02  0.00000000000E+00 0.  1.
         21    1    1    2  504  501 -0.11216594377E+03  0.13949733417E+01  0.15865817996E+04  0.15905423452E+04  0.00000000000E+00 0.  1.
         21    1    1    2  505  502  0.11136969009E+03  0.24448442647E+02 -0.40576175666E+02  0.12102627917E+03  0.00000000000E+00 0.  1.
          2    1    1    2  501    0  0.59100144767E+02 -0.26052269769E+02  0.74196966202E+03  0.74477548780E+03  0.00000000000E+00 0.  1.
<scales pt_clust_3="58.30427" pt_clust_4="82.63499" pt_clust_5="60.64417" pt_clust_6="14000.00000"></scales>
<clustering>
<clus scale="   58.304">  2  3  1 -1</clus>
<clus scale="   60.644">  2  5  1 -1</clus>
<clus scale="   82.635">  2  4  1 -1</clus>
<clus scale="   58.304">  2  3  1 -1</clus>
</clustering>
</event>
<event>
 6    0  0.1631680E+002  0.9042424E+02  0.7546771E-02  0.1301828E+00
         -1   -1    0    0    0  501 -0.00000000000E+00  0.00000000000E+00  0.18235667859E+03  0.18235667859E+03  0.00000000000E+00 0. -1.
         21   -1    0    0  503  502  0.00000000000E+00 -0.00000000000E+00 -0.46670964459E+03  0.46670964459E+03  0.00000000000E+00 0. -1.
         21    1    1    2  503  504  0.67193524772E+02 -0.12122224706E+03 -0.32332067866E+03  0.35177558785E+03  0.00000000000E+00 0. -1.
         21    1    1    2  504  501  0.10094835364E+02 -0.42850370204E+02  0.59841661516E+02  0.74290540317E+02  0.00000000000E+00 0. -1.
         21    1    1    2  505  502 -0.37533655851E+02  0.51218437305E+02 -0.69235179553E+02  0.93944737635E+02  0.00000000000E+00 0.  1.
         -1    1    1    2    0  505 -0.39754704285E+02  0.11285417996E+03  0.48361230699E+02  0.12905545739E+03  0.00000000000E+00 0. -1.
<scales pt_clust_3="14000.00000" pt_clust_4="44.02340" pt_clust_5="59.18420" pt_clust_6="90.42424"></scales>
<clustering>
<clus scale="   44.023">  1  4  2 -1</clus>
<clus scale="   59.184">  2  5  1 -1</clus>
<clus scale="   90.424">  1  6  2 -1</clus>
<clus scale="   59.184">  2  3  1 -1</clus>
</clustering>
</event>
<event>
 6    0  0.1631680E+002  0.6936461E+02  0.7546771E-02  0.1362267E+00
         21   -1    0    0  505  502  0.00000000000E+00  0.00000000000E+00  0.44395658051E+03  0.44395658051E+03  0.00000000000E+00 0.  1.
         -4   -1    0    0    0  501 -0.00000000000E+00 -0.00000000000E+00 -0.10019230343E+03  0.10019230343E+03  0.00000000000E+00 0.  1.
         21    1    1    2  503  502  0.29209684176E+02  0.16415875084E+02  0.94650283562E+02  0.10040598978E+03  0.00000000000E+00 0.  1.
         21    1    1    2  504  501 -0.72328218886E+01 -0.38317001414E+02 -0.13396709286E+02  0.41230791037E+02  0.00000000000E+00 0.  1.
         21    1    1    2  505  504 -0.78072983676E+02 -0.54430815828E+02  0.28890338698E+03  0.30417638222E+03  0.00000000000E+00 0.  1.
         -4    1    1    2    0  503  0.56096121389E+02  0.76331942159E+02 -0.26392684182E+02  0.98335720910E+02  0.00000000000E+00 0.  1.
<scales pt_clust_3="33.50652" pt_clust_4="38.14191" pt_clust_5="14000.00000" pt_clust_6="69.36461"></scales>
<clustering>
<clus scale="   33.507">  1  3  2 -1</clus>
<clus scale="   38.142">  2  4  1 -1</clus>
<clus scale="   69.365">  2  6  1 -1</clus>
<clus scale="   33.507">  1  3  2 -1</clus>
</clustering>
</event>
<event>
 6    0  0.1631680E+002  0.1011451E+03  0.7546771E-02  0.1277906E+00
          1   -1    0    0  505    0 -0.00000000000E+00  0.00000000000E+00  0.27070406154E+04  0.27070406154E+04  0.00000000000E+00 0. -1.
         21   -1    0    0  503  502  0.00000000000E+00 -0.00000000000E+00 -0.24461322930E+03  0.24461322930E+03  0.00000000000E+00 0. -1.
         21    1    1    2  503  504  0.57340355918E+02 -0.69989935439E+02 -0.21443596092E+03  0.23274296727E+03  0.00000000000E+00 0. -1.
         21    1    1    2  504  501 -0.88859167084E+02 -0.63174991059E+02  0.18232827725E+03  0.21243971323E+03  0.00000000000E+00 0.  1.
         21    1    1    2  505  502  0.31495150324E+02  0.83093852751E+02  0.34207184004E+03  0.35342563094E+03  0.00000000000E+00 0.  1.
          1    1    1    2  501    0  0.23660841484E-01  0.50071073747E+02  0.21524632297E+04  0.21530455333E+04  0.00000000000E+00 0. -1.
<scales pt_clust_3="89.84147" pt_clust_4="101.14506" pt_clust_5="14000.00000" pt_clust_6="50.07108"></scales>
<clustering>
<clus scale="   50.071">  1  6  2 -1</clus>
<clus scale="   89.841">  2  3  1 -1</clus>
<clus scale="  101.145">  2  4  1 -1</clus>
<clus scale="   89.841">  2  3  1 -1</clus>
</clustering>
</event>
<event>
 6    0  0.1631680E+002  0.6124405E+02  0.7546771E-02  0.1392684E+00
         21   -1    0    0  505  502  0.00000000000E+00  0.00000000000E+00  0.32881858944E+03  0.32881858944E+03  0.00000000000E+00 0. -1.
          2   -1    0    0  503    0 -0.00000000000E+00 -0.00000000000E+00 -0.51757020430E+03  0.51757020430E+03  0.00000000000E+00 0. -1.
         21    1    1    2  503  504  0.25643289852E+02 -0.54106488984E+02 -0.45905917366E+02  0.75448285029E+02  0.00000000000E+00 0. -1.
         21    1    1    2  504  502 -0.27537068501E+02 -0.54400964823E+02  0.27343772911E+03  0.28015343442E+03  0.00000000000E+00 0. -1.
         21    1    1    2  505  501 -0.38901311668E+02  0.58367475079E+02 -0.63870858838E+00  0.70146148471E+02  0.00000000000E+00 0. -1.
          2    1    1    2  501    0  0.40795090318E+02  0.50139978728E+02 -0.41564471802E+03  0.42064092583E+03  0.00000000000E+00 0. -1.
<scales pt_clust_3="59.87562" pt_clust_4="61.24405" pt_clust_5="57.70345" pt_clust_6="14000.00000"></scales>
<clustering>
<clus scale="   59.876">  2  3  1 -1</clus>
<clus scale="   61.244">  1  4  2 -1</clus>
<clus scale="   57.703">  1  5  2 -1</clus>
<clus scale="   61.244">  1  3  2 -1</clus>
</clustering>
</event>
<event>
 6    0  0.1631680E+002  0.1178871E+03  0.7546771E-02  0.1246624E+00
          3   -1    0    0  504    0 -0.00000000000E+00  0.00000000000E+00  0.75468320874E+02  0.75468320874E+02  0.00000000000E+00 0.  1.
         21   -1    0    0  503  502  0.00000000000E+00 -0.00000000000E+00 -0.62757775541E+03  0.62757775541E+03  0.00000000000E+00 0.  1.
         21    1    1    2  503  501 -0.80563249116E+02 -0.98069522931E+02 -0.32940729970E+03  0.35301166770E+03  0.00000000000E+00 0.  1.
         21    1    1    2  504  505  0.35692498225E+02 -0.16112212055E+02 -0.80755228298E+01  0.39984645501E+02  0.00000000000E+00 0.  1.
         21    1    1    2  505  502  0.31168274612E+02 -0.74976804166E+01 -0.17995378516E+03  0.18278687411E+03  0.00000000000E+00 0.  1.
          3    1    1    2  501    0  0.13702476279E+02  0.12167941540E+03 -0.34672826851E+02  0.12726288898E+03  0.00000000000E+00 0.  1.
<scales pt_clust_3="117.88706" pt_clust_4="40.85795" pt_clust_5="32.05739" pt_clust_6="14000.00000"></scales>
<clustering>
<clus scale="   32.057">  2  5  1 -1</clus>
<clus scale="   40.858">  1  4  2 -1</clus>
<clus scale="  117.887">  2  3  1 -1</clus>
<clus scale="   32.057">  2  3  1 -1</clus>
</clustering>
</event>
<event>
 6    0  0.1631680E+002  0.9585680E+02  0.7546771E-02  0.1289258E+00
         21   -1    0    0  505  502  0.00000000000E+00  0.00000000000E+00  0.40573281915E+03  0.40573281915E+03  0.00000000000E+00 0.  1.
          2   -1    0    0  504    0 -0.00000000000E+00 -0.00000000000E+00 -0.25452767445E+04  0.25452767445E+04  0.00000000000E+00 0. -1.
         21    1    1    2  503  501  0.12007682527E+02  0.38605854978E+02  0.11732183666E+03  0.12409274691E+03  0.00000000000E+00 0.  1.
         21    1    1    2  504  502  0.50487573205E+02  0.16059314791E+02 -0.17442696320E+03  0.18229553514E+03  0.00000000000E+00 0.  1.
         21    1    1    2  505  503 -0.23983885827E+02  0.45298721871E+02  0.27752942978E+03  0.28222293560E+03  0.00000000000E+00 0.  1.
          2    1    1    2  501    0 -0.38511369905E+02 -0.99963891640E+02 -0.23599682286E+04  0.23623983460E+04  0.00000000000E+00 0. -1.
<scales pt_clust_3="39.73356" pt_clust_4="52.98015" pt_clust_5="39.73356" pt_clust_6="84.77630"></scales>
<clustering>
<clus scale="   39.734">  3  5 -1 -1</clus>
<clus scale="   52.980">  2  4  1 -1</clus>
<clus scale="   84.776">  2  6  1 -1</clus>
<clus scale="   95.857">  1  3  2 -1</clus>
</clustering>
</event>
<event>
 6    0  0.1631680E+002  0.1302961E+03  0.7546771E-02  0.1227017E+00
         21   -1    0    0  503  502  0.00000000000E+00  0.00000000000E+00  0.14845909187E+03  0.14845909187E+03  0.00000000000E+00 0. -1.
          2   -1    0    0  505    0 -0.00000000000E+00 -0.00000000000E+00 -0.18323714877E+04  0.18323714877E+04  0.00000000000E+00 0.  1.
         21    1    1    2  503  501  0.41537348801E+02 -0.82442447364E+02  0.11190703093E+03  0.14506995569E+03  0.00000000000E+00 0. -1.
         21    1    1    2  504  502  0.23822137229E+02 -0.29606269343E+02 -0.28702509983E+02  0.47622048317E+02  0.00000000000E+00 0.  1.
         21    1    1    2  505  504  0.20050769221E+02 -0.68681314681E+02 -0.37786763464E+03  0.38458172817E+03  0.00000000000E+00 0.  1.
          2    1    1    2  501    0 -0.85410255251E+02  0.18073003139E+03 -0.13892492821E+04  0.14035568474E+04  0.00000000000E+00 0.  1.
<scales pt_clust_3="14000.00000" pt_clust_4="38.00033" pt_clust_5="72.39675" pt_clust_6="130.29607"></scales>
<clustering>
<clus scale="   38.000">  1  4  2 -1</clus>
<clus scale="   72.397">  2  5  1 -1</clus>
<clus scale="  130.296">  2  6  1 -1</clus>
<clus scale="   38.000">  1  3  2 -1</clus>
</clustering>
</event>
<event>
 6    0  0.1631680E+002  0.1624521E+03  0.7546771E-02  0.1185956E+00
         21   -1    0    0  505  502  0.00000000000E+00  0.00000000000E+00  0.48838967888E+03  0.48838967888E+03  0.00000000000E+00 0.  1.
          1   -1    0    0  503    0 -0.00000000000E+00 -0.00000000000E+00 -0.20156432619E+03  0.20156432619E+03  0.00000000000E+00 0. -1.
         21    1    1    2  503  502  0.30353829120E+02 -0.14636477001E+02  0.79500770929E+01  0.34623476530E+02  0.00000000000E+00 0.  1.
         21    1    1    2  504  501 -0.22804501707E+02  0.19019122259E+03  0.21896913761E+03  0.29092993946E+03  0.00000000000E+00 0.  1.
         21    1    1    2  505  504 -0.66723084323E+01 -0.32688647859E+02  0.17672842758E+03  0.17984995000E+03  0.00000000000E+00 0.  1.
          1    1    1    2  501    0 -0.87701898065E+00 -0.14286609773E+03 -0.11682228958E+03  0.18455063908E+03  0.00000000000E+00 0. -1.
<scales pt_clust_3="34.33230" pt_clust_4="14000.00000" pt_clust_5="33.36266" pt_clust_6="162.45214"></scales>
<clustering>
<clus scale="   33.363">  1  5  2 -1</clus>
<clus scale="   34.332">  2  3  1 -1</clus>
<clus scale="  162.452">  2  6  1 -1</clus>
<clus scale="   33.363">  1  3  2 -1</clus>
</clustering>
</event>
<event>
 6    0  0.1631680E+002  0.8102181E+02  0.7546771E-02  0.1326176E+00
         -2   -1    0    0    0  501 -0.00000000000E+00  0.00000000000E+00  0.13040436989E+04  0.13040436989E+04  0.00000000000E+00 0. -1.
         21   -1    0    0  504  502  0.00000000000E+00 -0.00000000000E+00 -0.30960094236E+02  0.30960094236E+02  0.00000000000E+00 0. -1.
         21    1    1    2  503  502  0.15656312953E+02 -0.42460449014E+02  0.71187938185E+02  0.84354800745E+02  0.00000000000E+00 0. -1.
         21    1    1    2  504  505 -0.74209322707E+02  0.91365643995E+02  0.17678672220E+03  0.21238702792E+03  0.00000000000E+00 0. -1.
         21    1    1    2  505  501  0.85107828726E+02  0.22642726697E+02  0.58304479203E+03  0.58965860046E+03  0.00000000000E+00 0. -1.
         -2    1    1    2    0  503 -0.26554818973E+02 -0.71547921678E+02  0.44206415227E+03  0.44860336404E+03  0.00000000000E+00 0. -1.
<scales pt_clust_3="45.25494" pt_clust_4="80.76444" pt_clust_5="14000.00000" pt_clust_6="81.02181"></scales>
<clustering>
<clus scale="   45.255">  2  3  1 -1</clus>
<clus scale="   81.022">  1  6  2 -1</clus>
<clus scale="   80.764">  2  4  1 -1</clus>
<clus scale="   45.255">  2  3  1 -1</clus>
</clustering>
</event>
<event>
 6    0  0.1631680E+002  0.1410930E+03  0.7546771E-02  0.1211866E+00
         21   -1    0    0  501  502  0.00000000000E+00  0.00000000000E+00  0.55648505996E+03  0.55648505996E+03  0.00000000000E+00 0. -1.
          2   -1    0    0  504    0 -0.00000000000E+00 -0.00000000000E+00 -0.58951093748E+03  0.58951093748E+03  0.00000000000E+00 0.  1.
         21    1    1    2  503  505 -0.16331749284E+02  0.12361173725E+03  0.35595817497E+03  0.37716416843E+03  0.00000000000E+00 0. -1.
         21    1    1    2  504  503  0.29637878600E+02  0.22110572727E+02 -0.24161039429E+03  0.24442353386E+03  0.00000000000E+00 0.  1.
         21    1    1    2  505  502 -0.42691739579E+02  0.52994618724E+01  0.16804638438E+03  0.17346543237E+03  0.00000000000E+00 0. -1.
          2    1    1    2  501    0  0.29385610263E+02 -0.15102177185E+03 -0.31542004259E+03  0.35094286277E+03  0.00000000000E+00 0.  1.
<scales pt_clust_3="141.09301" pt_clust_4="36.97677" pt_clust_5="42.81117" pt_clust_6="14000.00000"></scales>
<clustering>
<clus scale="   36.977">  2  4  1 -1</clus>
<clus scale="   42.811">  1  5  2 -1</clus>
<clus scale="  141.093">  1  3  2 -1</clus>
<clus scale="   42.811">  1  3  2 -1</clus>
</clustering>
</event>
<event>
 6    0  0.1631680E+002  0.1105616E+03  0.7546771E-02  0.1259533E+00
          2   -1    0    0  503    0 -0.00000000000E+00  0.00000000000E+00  0.15806073696E+04  0.15806073696E+04  0.00000000000E+00 0. -1.
         21   -1    0    0  505  502  0.00000000000E+00 -0.00000000000E+00 -0.59989628388E+02  0.59989628388E+02  0.00000000000E+00 0. -1.
         21    1    1    2  503  504  0.98771879353E+02  0.40269724786E+02  0.89399398823E+03  0.90033481876E+03  0.00000000000E+00 0. -1.
         21    1    1    2  504  502  0.83748260028E+02 -0.61274003763E+02  0.31462711418E+02  0.10843512717E+03  0.00000000000E+00 0. -1.
         21    1    1    2  505  501 -0.63984041503E+02  0.48152120795E+02  0.14626646636E+03  0.16675270158E+03  0.00000000000E+00 0. -1.
          2    1    1    2  501    0 -0.11853609788E+03 -0.27147841818E+02  0.44889457519E+03  0.46507435045E+03  0.00000000000E+00 0. -1.
<scales pt_clust_3="110.56164" pt_clust_4="41.83175" pt_clust_5="80.07861" pt_clust_6="14000.00000"></scales>
<clustering>
<clus scale="   80.079">  2  5  1 -1</clus>
<clus scale="   41.832">  2  4  1 -1</clus>
<clus scale="  110.562">  1  3  2 -1</clus>
<clus scale="   80.079">  2  3  1 -1</clus>
</clustering>
</event>
<event>
 6    0  0.1631680E+002  0.1611017E+03  0.7546771E-02  0.1187459E+00
         -4   -1    0    0    0  501 -0.00000000000E+00  0.00000000000E+00  0.97437434752E+03  0.97437434752E+03  0.00000000000E+00 0.  1.
         21   -1    0    0  505  502  0.00000000000E+00 -0.00000000000E+00 -0.11162843466E+03  0.11162843466E+03  0.00000000000E+00 0.  1.
         21    1    1    2  503  502 -0.38431229425E+02  0.85849421452E+02  0.58258221775E+02  0.11063951809E+03  0.00000000000E+00 0. -1.
         21    1    1    2  504  501 -0.77548811001E+01 -0.51209019554E+02  0.26787472586E+03  0.27283579424E+03  0.00000000000E+00 0. -1.
         21    1    1    2  505  504  0.19523822832E+03 -0.52807700084E+02  0.72706245591E+02  0.21492514309E+03  0.00000000000E+00 0.  1.
         -4    1    1    2    0  503 -0.14905211779E+03  0.18167298187E+02  0.46390671963E+03  0.48760232676E+03  0.00000000000E+00 0.  1.
<scales pt_clust_3="88.89597" pt_clust_4="51.79287" pt_clust_5="161.10172" pt_clust_6="14000.00000"></scales>
<clustering>
<clus scale="   51.793">  1  4  2 -1</clus>
<clus scale="   88.896">  2  3  1 -1</clus>
<clus scale="  161.102">  2  5  1 -1</clus>
<clus scale="   88.896">  2  3  1 -1</clus>
</clustering>
</event>
<event>
 6    0  0.1631680E+002  0.6386291E+02  0.7546771E-02  0.1382301E+00
         21   -1    0    0  501  502  0.00000000000E+00  0.00000000000E+00  0.25061348777E+02  0.25061348777E+02  0.00000000000E+00 0.  1.
          2   -1    0    0  505    0 -0.00000000000E+00 -0.00000000000E+00 -0.43868853003E+04  0.43868853003E+04  0.00000000000E+00 0. -1.
         21    1    1    2  503  502  0.47955645443E+02 -0.28104105424E+02 -0.67568046777E+02  0.87493003245E+02  0.00000000000E+00 0.  1.
         21    1    1    2  504  503 -0.89043931198E+02  0.68602772420E+02 -0.21922535966E+03  0.24636339092E+03  0.00000000000E+00 0.  1.
         21    1    1    2  505  504 -0.31336399735E+02 -0.28480135639E+02 -0.31038380418E+04  0.31041268785E+04  0.00000000000E+00 0. -1.
          2    1    1    2  501    0  0.72424685490E+02 -0.12018531356E+02 -0.97119250326E+03  0.97396337639E+03  0.00000000000E+00 0. -1.
<scales pt_clust_3="54.87479" pt_clust_4="14000.00000" pt_clust_5="42.34487" pt_clust_6="63.86291"></scales>
<clustering>
<clus scale="   42.345">  2  5  1 -1</clus>
<clus scale="   54.875">  1  3  2 -1</clus>
<clus scale="   63.863">  2  6  1 -1</clus>
<clus scale="   54.875">  1  3  2 -1</clus>
</clustering>
</event>
<event>
 6    0  0.1631680E+002  0.6089343E+02  0.7546771E-02  0.1394120E+00
         21   -1    0    0  501  502  0.00000000000E+00  0.00000000000E+00  0.14814753221E+03  0.14814753221E+03  0.00000000000E+00 0. -1.
          2   -1    0    0  503    0 -0.00000000000E+00 -0.00000000000E+00 -0.16432243807E+04  0.16432243807E+04  0.00000000000E+00 0. -1.
         21    1    1    2  503  504 -0.83504030914E+02 -0.22180339755E+02 -0.51873305693E+03  0.52587914486E+03  0.00000000000E+00 0. -1.
         21    1    1    2  504  505  0.61576401696E+02 -0.31347212710E+02  0.14197267494E+02  0.70539800076E+02  0.00000000000E+00 0. -1.
         21    1    1    2  505  502 -0.32655967657E+02  0.41968911709E+02  0.94523425624E+02  0.10845496653E+03  0.00000000000E+00 0. -1.
          2    1    1    2  501    0  0.54583596875E+02  0.11558640756E+02 -0.10850644847E+04  0.10864980015E+04  0.00000000000E+00 0. -1.
<scales pt_clust_3="14000.00000" pt_clust_4="32.63138" pt_clust_5="53.17708" pt_clust_6="60.89343"></scales>
<clustering>
<clus scale="   53.177">  1  5  2 -1</clus>
<clus scale="   32.631">  1  4  2 -1</clus>
<clus scale="   60.893">  2  6  1 -1</clus>
<clus scale="   53.177">  1  3  2 -1</clus>
</clustering>
</event>
<event>
 6    0  0.1631680E+002  0.7077127E+02  0.7546771E-02  0.1357490E+00
          1   -1    0    0  505    0 -0.00000000000E+00  0.00000000000E+00  0.64267230083E+03  0.64267230083E+03  0.00000000000E+00 0. -1.
         21   -1    0    0  504  502  0.00000000000E+00 -0.00000000000E+00 -0.51805158658E+02  0.51805158658E+02  0.00000000000E+00 0. -1.
         21    1    1    2  503  502  0.36894406140E+02  0.31349889380E+02  0.66805488284E+02  0.82504460688E+02  0.00000000000E+00 0. -1.
         21    1    1    2  504  501  0.75247286555E+02 -0.35256523680E+02  0.14131470140E+03  0.16393602846E+03  0.00000000000E+00 0.  1.
         21    1    1    2  505  503 -0.51030438518E+02  0.46088026793E+02  0.11844685564E+02  0.69774697743E+02  0.00000000000E+00 0. -1.
          1    1    1    2  501    0 -0.61111254177E+02 -0.42181392493E+02  0.37090226692E+03  0.37826227259E+03  0.00000000000E+00 0. -1.
<scales pt_clust_3="48.41501" pt_clust_4="70.77127" pt_clust_5="14000.00000" pt_clust_6="70.22349"></scales>
<clustering>
<clus scale="   48.415">  2  3  1 -1</clus>
<clus scale="   70.223">  1  6  2 -1</clus>
<clus scale="   70.771">  1  4  2 -1</clus>
<clus scale="   48.415">  2  3  1 -1</clus>
</clustering>
</event>
<event>
 6    0  0.1631680E+002  0.9151319E+02  0.7546771E-02  0.1299228E+00
         -2   -1    0    0    0  501 -0.00000000000E+00  0.00000000000E+00  0.28730323446E+03  0.28730323446E+03  0.00000000000E+00 0. -1.
         21   -1    0    0  505  502  0.00000000000E+00 -0.00000000000E+00 -0.23833404502E+03  0.23833404502E+03  0.00000000000E+00 0. -1.
         21    1    1    2  503  501 -0.13435330261E+03 -0.42751698065E+02  0.11829641582E+03  0.18404499343E+03  0.00000000000E+00 0. -1.
         21    1    1    2  504  502  0.23765894554E+02 -0.24146078797E+02 -0.91304375531E+02  0.97387575472E+02  0.00000000000E+00 0. -1.
         21    1    1    2  505  503  0.56795154380E+02  0.11495900507E+02 -0.90685482592E+02  0.10761831648E+03  0.00000000000E+00 0. -1.
         -2    1    1    2    0  504  0.53792253675E+02  0.55401876355E+02  0.11266263174E+03  0.13658639409E+03  0.00000000000E+00 0. -1.
<scales pt_clust_3="91.51319" pt_clust_4="33.87995" pt_clust_5="73.34037" pt_clust_6="14000.00000"></scales>
<clustering>
<clus scale="   33.880">  2  4  1 -1</clus>
<clus scale="   73.340">  2  5  1 -1</clus>
<clus scale="   91.513">  2  3  1 -1</clus>
<clus scale="   33.880">  2  3  1 -1</clus>
</clustering>
</event>
<event>
 6    0  0.1631680E+002  0.1369323E+03  0.7546771E-02  0.1217517E+00
          2   -1    0    0  504    0 -0.00000000000E+00  0.00000000000E+00  0.88260149562E+03  0.88260149562E+03  0.00000000000E+00 0.  1.
         21   -1    0    0  501  502  0.00000000000E+00 -0.00000000000E+00 -0.10625707610E+04  0.10625707610E+04  0.00000000000E+00 0.  1.
         21    1    1    2  503  502 -0.19580335661E+02 -0.57456986918E+02 -0.43436047107E+03  0.43858147899E+03  0.00000000000E+00 0.  1.
         21    1    1    2  504  505 -0.24707530951E+02 -0.17283471651E+02  0.97554112946E+02  0.10210771484E+03  0.00000000000E+00 0. -1.
         21    1    1    2  505  503  0.25137858907E+02 -0.71606053848E+02 -0.61449164307E+03  0.61916017177E+03  0.00000000000E+00 0.  1.
          2    1    1    2  501    0  0.19150007706E+02  0.14634651242E+03  0.77132873580E+03  0.78532289102E+03  0.00000000000E+00 0.  1.
<scales pt_clust_3="40.39489" pt_clust_4="30.15262" pt_clust_5="40.39489" pt_clust_6="129.27473"></scales>
<clustering>
<clus scale="   30.153">  1  4  2 -1</clus>
<clus scale="   40.395">  3  5 -1 -1</clus>
<clus scale="  129.275">  1  6  2 -1</clus>
<clus scale="  136.932">  2  3  1 -1</clus>
</clustering>
</event>
<event>
 6    0  0.1631680E+002  0.7694102E+02  0.7546771E-02  0.1337964E+00
         21   -1    0    0  505  502  0.00000000000E+00  0.00000000000E+00  0.24260770662E+04  0.24260770662E+04  0.00000000000E+00 0.  1.
          1   -1    0    0  503    0 -0.00000000000E+00 -0.00000000000E+00 -0.94260179295E+03  0.94260179295E+03  0.00000000000E+00 0.  1.
         21    1    1    2  503  502 -0.30762137918E+02 -0.49853006882E+02  0.13200496692E+04  0.13213488413E+04  0.00000000000E+00 0.  1.
         21    1    1    2  504  501  0.88294352895E+02  0.90054395888E+02 -0.34626131623E+03  0.36851402428E+03  0.00000000000E+00 0.  1.
         21    1    1    2  505  504 -0.28234985788E+02  0.22192033671E+02  0.10919232598E+04  0.10925136640E+04  0.00000000000E+00 0.  1.
          1    1    1    2  501    0 -0.29297229188E+02 -0.62393422678E+02 -0.58223633937E+03  0.58630232962E+03  0.00000000000E+00 0.  1.
<scales pt_clust_3="65.00123" pt_clust_4="76.94102" pt_clust_5="35.91240" pt_clust_6="14000.00000"></scales>
<clustering>
<clus scale="   35.912">  1  5  2 -1</clus>
<clus scale="   65.001">  1  3  2 -1</clus>
<clus scale="   76.941">  1  4  2 -1</clus>
<clus scale="   35.912">  1  3  2 -1</clus>
</clustering>
</event>
<event>
 6    0  0.1631680E+002  0.8764039E+02  0.7546771E-02  0.1308669E+00
         21   -1    0    0  503  502  0.00000000000E+00  0.00000000000E+00  0.12779374780E+03  0.12779374780E+03  0.00000000000E+00 0.  1.
          1   -1    0    0  504    0 -0.00000000000E+00 -0.00000000000E+00 -0.21292664178E+04  0.21292664178E+04  0.00000000000E+00 0.  1.
         21    1    1    2  503  501  0.20092908258E+02 -0.38453002235E+02 -0.38432142340E+02  0.57960226949E+02  0.00000000000E+00 0.  1.
         21    1    1    2  504  505 -0.16216362607E+02 -0.48821199278E+02 -0.76676121881E+03  0.76848503341E+03  0.00000000000E+00 0.  1.
         21    1    1    2  505  502  0.50089933146E+02  0.94328638584E+02  0.92134561771E+02  0.14105201499E+03  0.00000000000E+00 0.  1.
          1    1    1    2  501    0 -0.53966478796E+02 -0.70544370713E+01 -0.12884138706E+04  0.12895628902E+04  0.00000000000E+00 0.  1.
<scales pt_clust_3="43.38615" pt_clust_4="51.66468" pt_clust_5="87.64039" pt_clust_6="14000.00000"></scales>
<clustering>
<clus scale="   43.386">  1  3  2 -1</clus>
<clus scale="   51.665">  2  4  1 -1</clus>
<clus scale="   87.640">  1  5  2 -1</clus>
<clus scale="   43.386">  1  3  2 -1</clus>
</clustering>
</event>
<event>
 6    0  0.1631680E+002  0.1067862E+03  0.7546771E-02  0.1266640E+00
         21   -1    0    0  504  502  0.00000000000E+00  0.00000000000E+00  0.18140910694E+04  0.18140910694E+04  0.00000000000E+00 0. -1.
          4   -1    0    0  505    0 -0.00000000000E+00 -0.00000000000E+00 -0.30178125985E+03  0.30178125985E+03  0.00000000000E+00 0.  1.
         21    1    1    2  503  502 -0.22318745439E+02 -0.11524288119E+03  0.16013060154E+04  0.16056026915E+04  0.00000000000E+00 0. -1.
         21    1    1    2  504  501 -0.26597621461E+02  0.18595860547E+02  0.19437918261E+03  0.19706980014E+03  0.00000000000E+00 0. -1.
         21    1    1    2  505  503  0.42550233560E+02  0.50648601844E+02 -0.76304911254E+02  0.10098634921E+03  0.00000000000E+00 0.  1.
          4    1    1    2  501    0  0.63661333398E+01  0.45998418801E+02 -0.20707047713E+03  0.21221348846E+03  0.00000000000E+00 0.  1.
<scales pt_clust_3="14000.00000" pt_clust_4="32.45365" pt_clust_5="106.78621" pt_clust_6="46.46036"></scales>
<clustering>
<clus scale="   32.454">  1  4  2 -1</clus>
<clus scale="   46.460">  2  6  1 -1</clus>
<clus scale="  106.786">  2  5  1 -1</clus>
<clus scale="   32.454">  1  3  2 -1</clus>
</clustering>
</event>
<event>
 6    0  0.1631680E+002  0.1196881E+03  0.7546771E-02  0.1243612E+00
         21   -1    0    0  501  502  0.00000000000E+00  0.00000000000E+00  0.30483753974E+02  0.30483753974E+02  0.00000000000E+00 0. -1.
          1   -1    0    0  503    0 -0.00000000000E+00 -0.00000000000E+00 -0.99254292313E+03  0.99254292313E+03  0.00000000000E+00 0. -1.
         21    1    1    2  503  505 -0.15231179372E+01  0.35033850128E+02 -0.26738307021E+03  0.26967275868E+03  0.00000000000E+00 0.  1.
         21    1    1    2  504  502 -0.29520948768E+02 -0.68450649727E+01 -0.35692264971E+02  0.46821780289E+02  0.00000000000E+00 0.  1.
         21    1    1    2  505  504  0.61949668828E+02 -0.12927204059E+03 -0.45092894642E+03  0.47316586591E+03  0.00000000000E+00 0. -1.
          1    1    1    2  501    0 -0.30905602124E+02  0.10108325544E+03 -0.20805488756E+03  0.23336627222E+03  0.00000000000E+00 0. -1.
<scales pt_clust_3="34.83856" pt_clust_4="30.30415" pt_clust_5="119.68810" pt_clust_6="14000.00000"></scales>
<clustering>
<clus scale="   30.304">  1  4  2 -1</clus>
<clus scale="   34.839">  2  3  1 -1</clus>
<clus scale="  119.688">  2  5  1 -1</clus>
<clus scale="   30.304">  1  3  2 -1</clus>
</clustering>
</event>
<event>
 6    0  0.1631680E+002  0.1374826E+03  0.7546771E-02  0.1216757E+00
         21   -1    0    0  504  502  0.00000000000E+00  0.00000000000E+00  0.71897442297E+03  0.71897442297E+03  0.00000000000E+00 0. -1.
          2   -1    0    0  505    0 -0.00000000000E+00 -0.00000000000E+00 -0.33711243394E+03  0.33711243394E+03  0.00000000000E+00 0.  1.
         21    1    1    2  503  501 -0.79899931301E+02  0.56942921916E+02  0.20640789079E+02  0.10026234364E+03  0.00000000000E+00 0.  1.
         21    1    1    2  504  503  0.10842307356E+03 -0.97204139031E+02  0.64514784084E+03  0.66137730840E+03  0.00000000000E+00 0. -1.
         21    1    1    2  505  502  0.75384376598E+01  0.33515880441E+02 -0.19887793369E+03  0.20182312750E+03  0.00000000000E+00 0.  1.
          2    1    1    2  501    0 -0.36061579920E+02  0.67453366738E+01 -0.85048707199E+02  0.92624077374E+02  0.00000000000E+00 0.  1.
<scales pt_clust_3="137.48256" pt_clust_4="14000.00000" pt_clust_5="34.35320" pt_clust_6="42.24243"></scales>
<clustering>
<clus scale="   34.353">  2  5  1 -1</clus>
<clus scale="   42.242">  2  6  1 -1</clus>
<clus scale="  137.483">  2  3  1 -1</clus>
<clus scale="  137.483">  1  3  2 -1</clus>
</clustering>
</event>
<event>
 6    0  0.1631680E+002  0.8761764E+02  0.7546771E-02  0.1308726E+00
         -3   -1    0    0    0  501 -0.00000000000E+00  0.00000000000E+00  0.51282029714E+03  0.51282029714E+03  0.00000000000E+00 0.  1.
         21   -1    0    0  504  502  0.00000000000E+00 -0.00000000000E+00 -0.92866757768E+02  0.92866757768E+02  0.00000000000E+00 0. -1.
         21    1    1    2  503  502 -0.23670277227E+02  0.54110441971E+02  0.38220320099E+02  0.70349234700E+02  0.00000000000E+00 0. -1.
         21    1    1    2  504  505  0.10450979164E+03 -0.29581831516E+01 -0.30143103291E+02  0.10881017449E+03  0.00000000000E+00 0. -1.
         21    1    1    2  505  501 -0.16308108124E+02 -0.39929008495E+02  0.12377985857E+03  0.13107911159E+03  0.00000000000E+00 0.  1.
         -3    1    1    2    0  503 -0.64531406293E+02 -0.11223250325E+02  0.28809646399E+03  0.29544853412E+03  0.00000000000E+00 0.  1.
<scales pt_clust_3="55.00195" pt_clust_4="14000.00000" pt_clust_5="43.13096" pt_clust_6="87.61764"></scales>
<clustering>
<clus scale="   43.131">  1  5  2 -1</clus>
<clus scale="   55.002">  2  3  1 -1</clus>
<clus scale="   87.618">  1  6  2 -1</clus>
<clus scale="   55.002">  2  3  1 -1</clus>
</clustering>
</event>
<event>
 6    0  0.1631680E+002  0.6894493E+02  0.7546771E-02  0.1363718E+00
         -4   -1    0    0    0  501 -0.00000000000E+00  0.00000000000E+00  0.63213626457E+02  0.63213626457E+02  0.00000000000E+00 0.  1.
         21   -1    0    0  505  502  0.00000000000E+00 -0.00000000000E+00 -0.27398138065E+04  0.27398138065E+04  0.00000000000E+00 0.  1.
         21    1    1    2  503  501 -0.25357529983E+01 -0.48869616562E+02 -0.14184017951E+02  0.50949542014E+02  0.00000000000E+00 0.  1.
         21    1    1    2  504  502  0.11074311769E+02  0.35076008430E+02 -0.20492363879E+03  0.20819861787E+03  0.00000000000E+00 0.  1.
         21    1    1    2  505  503  0.18799188664E+02 -0.93689141043E+02 -0.24269706805E+04  0.24288511170E+04  0.00000000000E+00 0.  1.
         -4    1    1    2    0  504 -0.27337747434E+02  0.10748274918E+03 -0.30521842852E+02  0.11502815610E+03  0.00000000000E+00 0.  1.
<scales pt_clust_3="48.47781" pt_clust_4="36.78270" pt_clust_5="68.94493" pt_clust_6="14000.00000"></scales>
<clustering>
<clus scale="   36.783">  2  4  1 -1</clus>
<clus scale="   48.478">  1  3  2 -1</clus>
<clus scale="   68.945">  2  5  1 -1</clus>
<clus scale="   36.783">  2  3  1 -1</clus>
</clustering>
</event>
<event>
 6    0  0.1631680E+002  0.9038783E+02  0.7546771E-02  0.1301915E+00
         21   -1    0    0  501  502  0.00000000000E+00  0.00000000000E+00  0.26220921774E+03  0.26220921774E+03  0.00000000000E+00 0.  1.
          1   -1    0    0  505    0 -0.00000000000E+00 -0.00000000000E+00 -0.15739540725E+04  0.15739540725E+04  0.00000000000E+00 0.  1.
         21    1    1    2  503  504  0.24704766964E+02  0.94838233903E+02  0.42582404451E+01  0.98095610158E+02  0.00000000000E+00 0.  1.
         21    1    1    2  504  502  0.39122898713E+02 -0.31863044820E+02  0.20338494502E+03  0.20955021042E+03  0.00000000000E+00 0.  1.
         21    1    1    2  505  503  0.18728669262E+01  0.37082742938E+02 -0.17990130956E+03  0.18369300105E+03  0.00000000000E+00 0. -1.
          1    1    1    2  501    0 -0.65700532603E+02 -0.10005793202E+03 -0.13394867307E+04  0.13448244686E+04  0.00000000000E+00 0.  1.
<scales pt_clust_3="14000.00000" pt_clust_4="50.40787" pt_clust_5="37.13001" pt_clust_6="90.38783"></scales>
<clustering>
<clus scale="   37.130">  2  5  1 -1</clus>
<clus scale="   50.408">  1  4  2 -1</clus>
<clus scale="   90.388">  2  6  1 -1</clus>
<clus scale="   50.408">  1  3  2 -1</clus>
</clustering>
</event>
<event>
 6    0  0.1631680E+002  0.1146816E+03  0.7546771E-02  0.1252138E+00
         -2   -1    0    0    0  501 -0.00000000000E+00  0.00000000000E+00  0.37087475327E+03  0.37087475327E+03  0.00000000000E+00 0. -1.
         21   -1    0    0  504  502  0.00000000000E+00 -0.00000000000E+00 -0.32651378897E+03  0.32651378897E+03  0.00000000000E+00 0. -1.
         21    1    1    2  503  502  0.68561845026E+02  0.11888394408E+01 -0.10594696699E+03  0.12620182149E+03  0.00000000000E+00 0. -1.
         21    1    1    2  504  505 -0.13756790447E+03  0.73016364811E+02 -0.14268221408E+03  0.21122152373E+03  0.00000000000E+00 0. -1.
         21    1    1    2  505  501 -0.19658963693E+02  0.44245364537E+02  0.13542663098E+03  0.14382106770E+03  0.00000000000E+00 0.  1.
         -2    1    1    2    0  503  0.88665023132E+02 -0.11845056879E+03  0.15756351440E+03  0.21614412933E+03  0.00000000000E+00 0. -1.
<scales pt_clust_3="67.77305" pt_clust_4="114.68158" pt_clust_5="48.41619" pt_clust_6="14000.00000"></scales>
<clustering>
<clus scale="   48.416">  1  5  2 -1</clus>
<clus scale="   67.773">  2  3  1 -1</clus>
<clus scale="  114.682">  2  4  1 -1</clus>
<clus scale="   67.773">  2  3  1 -1</clus>
</clustering>
</event>
<event>
 6    0  0.1631680E+002  0.1335163E+03  0.7546771E-02  0.1222329E+00
         -3   -1    0    0    0  501 -0.00000000000E+00  0.00000000000E+00  0.93394390697E+02  0.93394390697E+02  0.00000000000E+00 0.  1.
         21   -1    0    0  505  502  0.00000000000E+00 -0.00000000000E+00 -0.16792682755E+04  0.16792682755E+04  0.00000000000E+00 0.  1.
         21    1    1    2  503  502  0.28738320582E+02  0.45314275570E+02 -0.14125389979E+04  0.14135578146E+04  0.00000000000E+00 0.  1.
         21    1    1    2  504  501  0.79838740593E+02 -0.33223185694E+02 -0.10438892904E+03  0.13555461288E+03  0.00000000000E+00 0.  1.
         21    1    1    2  505  504  0.14838522008E+02 -0.35227302400E+02 -0.88564417096E+02  0.96461394067E+02  0.00000000000E+00 0.  1.
         -3    1    1    2    0  503 -0.12341558318E+03  0.23136212524E+02  0.19618459193E+02  0.12708884469E+03  0.00000000000E+00 0.  1.
<scales pt_clust_3="53.65887" pt_clust_4="36.11809" pt_clust_5="36.11809" pt_clust_6="121.96489"></scales>
<clustering>
<clus scale="   36.118">  4  5 -1 -1</clus>
<clus scale="   53.659">  2  3  1 -1</clus>
<clus scale="  121.965">  1  6  2 -1</clus>
<clus scale="   53.659">  2  3  1 -1</clus>
</clustering>
</event>
<event>
 6    0  0.1631680E+002  0.9878087E+02  0.7546771E-02  0.1282881E+00
          2   -1    0    0  505    0 -0.00000000000E+00  0.00000000000E+00  0.79933768185E+03  0.79933768185E+03  0.00000000000E+00 0. -1.
         21   -1    0    0  504  502  0.00000000000E+00 -0.00000000000E+00 -0.86927679212E+02  0.86927679212E+02  0.00000000000E+00 0. -1.
         21    1    1    2  503  502  0.16038784837E+02  0.76830261021E+02 -0.34220265128E+02  0.85622182716E+02  0.00000000000E+00 0. -1.
         21    1    1    2  504  501  0.41888984515E+02  0.13777053980E+02  0.12150599416E+01  0.44113156890E+02  0.00000000000E+00 0. -1.
         21    1    1    2  505  503 -0.49750208873E+02 -0.15469292640E+02  0.36271674589E+03  0.36643938113E+03  0.00000000000E+00 0. -1.
          2    1    1    2  501    0 -0.81775604797E+01 -0.75138022361E+02  0.38269846194E+03  0.39009064033E+03  0.00000000000E+00 0. -1.
<scales pt_clust_3="14000.00000" pt_clust_4="44.09642" pt_clust_5="50.84640" pt_clust_6="98.78087"></scales>
<clustering>
<clus scale="   44.096">  2  4  1 -1</clus>
<clus scale="   50.846">  1  5  2 -1</clus>
<clus scale="   98.781">  1  6  2 -1</clus>
<clus scale="   44.096">  2  3  1 -1</clus>
</clustering>
</event>
<event>
 6    0  0.1631680E+002  0.1282324E+03  0.7546771E-02  0.1230102E+00
         21   -1    0    0  505  502  0.00000000000E+00  0.00000000000E+00  0.21677292478E+03  0.21677292478E+03  0.00000000000E+00 0. -1.
          2   -1    0    0  504    0 -0.00000000000E+00 -0.00000000000E+00 -0.59423130156E+03  0.59423130156E+03  0.00000000000E+00 0. -1.
         21    1    1    2  503  502  0.47649245370E+02  0.22643367631E+02  0.11780219416E+03  0.12907567405E+03  0.00000000000E+00 0. -1.
         21    1    1    2  504  503 -0.97172447424E+01 -0.31350294815E+02 -0.53517644503E+02  0.62780602924E+02  0.00000000000E+00 0.  1.
         21    1    1    2  505  501  0.35155219709E+02  0.86132756827E+02  0.57041519665E+02  0.10912596500E+03  0.00000000000E+00 0. -1.
          2    1    1    2  501    0 -0.73087220336E+02 -0.77425829644E+02 -0.49878444610E+03  0.51002198438E+03  0.00000000000E+00 0. -1.
<scales pt_clust_3="52.52263" pt_clust_4="32.82173" pt_clust_5="14000.00000" pt_clust_6="128.23240"></scales>
<clustering>
<clus scale="   32.822">  2  4  1 -1</clus>
<clus scale="   52.523">  1  3  2 -1</clus>
<clus scale="  128.232">  2  6  1 -1</clus>
<clus scale="   52.523">  1  3  2 -1</clus>
</clustering>
</event>
<event>
 6    0  0.1631680E+002  0.1288207E+03  0.7546771E-02  0.1229216E+00
         21   -1    0    0  501  502  0.00000000000E+00  0.00000000000E+00  0.21742149618E+03  0.21742149618E+03  0.00000000000E+00 0.  1.
          2   -1    0    0  505    0 -0.00000000000E+00 -0.00000000000E+00 -0.26806017585E+04  0.26806017585E+04  0.00000000000E+00 0. -1.
         21    1    1    2  503  502 -0.27022541585E+02 -0.71638873316E+02  0.12989268095E+03  0.15077948961E+03  0.00000000000E+00 0.  1.
         21    1    1    2  504  503  0.47712644648E+02  0.11715697250E+03 -0.51681488097E+01  0.12660553869E+03  0.00000000000E+00 0.  1.
         21    1    1    2  505  504  0.49126562119E+02  0.69249999231E+02 -0.10933622668E+03  0.13843190371E+03  0.00000000000E+00 0.  1.
          2    1    1    2  501    0 -0.69816665182E+02 -0.11476809841E+03 -0.24785685677E+04  0.24822063226E+04  0.00000000000E+00 0. -1.
<scales pt_clust_3="76.56596" pt_clust_4="66.22955" pt_clust_5="14000.00000" pt_clust_6="128.82070"></scales>
<clustering>
<clus scale="   76.566">  1  3  2 -1</clus>
<clus scale="   66.230">  1  4  2 -1</clus>
<clus scale="  128.821">  2  6  1 -1</clus>
<clus scale="   76.566">  1  3  2 -1</clus>
</clustering>
</event>
<event>
 6    0  0.1631680E+002  0.1273763E+03  0.7546771E-02  0.1231402E+00
         21   -1    0    0  504  502  0.00000000000E+00  0.00000000000E+00  0.10320675197E+03  0.10320675197E+03  0.00000000000E+00 0. -1.
          2   -1    0    0  505    0 -0.00000000000E+00 -0.00000000000E+00 -0.17862785563E+04  0.17862785563E+04  0.00000000000E+00 0. -1.
         21    1    1    2  503  501  0.60575191480E+02  0.15319241901E+03 -0.34381780148E+03  0.38124526447E+03  0.00000000000E+00 0. -1.
         21    1    1    2  504  503  0.49219422276E+02 -0.50114804767E+02  0.55876661744E+02  0.89756595934E+02  0.00000000000E+00 0. -1.
         21    1    1    2  505  502 -0.93537885232E+01 -0.28816891831E+02 -0.17073419036E+02  0.34776547444E+02  0.00000000000E+00 0.  1.
          2    1    1    2  501    0 -0.10044082523E+03 -0.74260722412E+02 -0.13780572456E+04  0.13837069004E+04  0.00000000000E+00 0. -1.
<scales pt_clust_3="127.37628" pt_clust_4="83.66073" pt_clust_5="30.29697" pt_clust_6="14000.00000"></scales>
<clustering>
<clus scale="   30.297">  1  5  2 -1</clus>
<clus scale="   83.661">  1  4  2 -1</clus>
<clus scale="  127.376">  1  3  2 -1</clus>
<clus scale="   30.297">  1  3  2 -1</clus>
</clustering>
</event>
<event>
 6    0  0.1631680E+002  0.1130050E+03  0.7546771E-02  0.1255104E+00
          2   -1    0    0  503    0 -0.00000000000E+00  0.00000000000E+00  0.16553236807E+04  0.16553236807E+04  0.00000000000E+00 0. -1.
         21   -1    0    0  504  502  0.00000000000E+00 -0.00000000000E+00 -0.22369032409E+03  0.22369032409E+03  0.00000000000E+00 0.  1.
         21    1    1    2  503  505 -0.90578166469E+01  0.34366339945E+02  0.78424975094E+02  0.86102067815E+02  0.00000000000E+00 0. -1.
         21    1    1    2  504  501  0.13185293956E+03 -0.45905269626E+02 -0.14826501811E+03  0.20365413584E+03  0.00000000000E+00 0.  1.
         21    1    1    2  505  502 -0.33020905054E+02 -0.82574615843E+01 -0.35706888897E+02  0.49331001988E+02  0.00000000000E+00 0.  1.
          2    1    1    2  501    0 -0.89774217856E+02  0.19796391265E+02  0.15371802885E+04  0.15399267991E+04  0.00000000000E+00 0. -1.
<scales pt_clust_3="35.55641" pt_clust_4="14000.00000" pt_clust_5="34.03771" pt_clust_6="113.00496"></scales>
<clustering>
<clus scale="   34.038">  2  5  1 -1</clus>
<clus scale="   35.556">  1  3  2 -1</clus>
<clus scale="  113.005">  1  6  2 -1</clus>
<clus scale="   34.038">  2  3  1 -1</clus>
</clustering>
</event>
<event>
 6    0  0.1631680E+002  0.1229771E+03  0.7546771E-02  0.1238265E+00
         21   -1    0    0  503  502  0.00000000000E+00  0.00000000000E+00  0.74928463803E+03  0.74928463803E+03  0.00000000000E+00 0. -1.
          4   -1    0    0  505    0 -0.00000000000E+00 -0.00000000000E+00 -0.35611283361E+03  0.35611283361E+03  0.00000000000E+00 0.  1.
         21    1    1    2  503  501  0.12713191154E+01  0.88612738112E+02  0.66113728250E+03  0.66705047779E+03  0.00000000000E+00 0. -1.
         21    1    1    2  504  502  0.17763728074E+02 -0.38147519611E+02  0.21927467240E+02  0.47450996904E+02  0.00000000000E+00 0.  1.
         21    1    1    2  505  504  0.10824332481E+03 -0.57106772418E+02 -0.82922242057E+02  0.14783064313E+03  0.00000000000E+00 0.  1.
          4    1    1    2  501    0 -0.12727837200E+03  0.66415539170E+01 -0.20697070326E+03  0.24306535381E+03  0.00000000000E+00 0.  1.
<scales pt_clust_3="56.05556" pt_clust_4="42.08068" pt_clust_5="122.97707" pt_clust_6="14000.00000"></scales>
<clustering>
<clus scale="   42.081">  1  4  2 -1</clus>
<clus scale="   56.056">  1  3  2 -1</clus>
<clus scale="  122.977">  1  5  2 -1</clus>
<clus scale="   42.081">  1  3  2 -1</clus>
</clustering>
</event>
<event>
 6    0  0.1631680E+002  0.1536532E+03  0.7546771E-02  0.1196054E+00
          1   -1    0    0  503    0 -0.00000000000E+00  0.00000000000E+00  0.17509559993E+04  0.17509559993E+04  0.00000000000E+00 0.  1.
         21   -1    0    0  505  502  0.00000000000E+00 -0.00000000000E+00 -0.21749948282E+03  0.21749948282E+03  0.00000000000E+00 0. -1.
         21    1    1    2  503  504 -0.67071557256E+02  0.48134370103E+01  0.74782724452E+03  0.75084442504E+03  0.00000000000E+00 0.  1.
         21    1    1    2  504  502 -0.19759543207E+02 -0.12584604281E+03 -0.15687804019E+03  0.20208509478E+03  0.00000000000E+00 0. -1.
         21    1    1    2  505  501  0.11780507871E+03 -0.37453159147E+01  0.77601827688E+02  0.14111735408E+03  0.00000000000E+00 0. -1.
          1    1    1    2  501    0 -0.30973978246E+02  0.12477792172E+03  0.86490548447E+03  0.87440860823E+03  0.00000000000E+00 0.  1.
<scales pt_clust_3="67.24406" pt_clust_4="153.65321" pt_clust_5="110.52893" pt_clust_6="14000.00000"></scales>
<clustering>
<clus scale="   67.244">  1  3  2 -1</clus>
<clus scale="  110.529">  2  5  1 -1</clus>
<clus scale="  153.653">  2  4  1 -1</clus>
<clus scale="  110.529">  2  3  1 -1</clus>
</clustering>
</event>
<event>
 6    0  0.1631680E+002  0.9664585E+02  0.7546771E-02  0.1287512E+00
         21   -1    0    0  504  502  0.00000000000E+00  0.00000000000E+00  0.19003154599E+03  0.19003154599E+03  0.00000000000E+00 0.  1.
          1   -1    0    0  505    0 -0.00000000000E+00 -0.00000000000E+00 -0.19487556383E+03  0.19487556383E+03  0.00000000000E+00 0.  1.
         21    1    1    2  503  502 -0.19199693763E+02 -0.27288182714E+02  0.12579864884E+02  0.35658465432E+02  0.00000000000E+00 0. -1.
         21    1    1    2  504  501  0.70282395229E+02  0.29254198425E+02  0.35647472954E+02  0.84060487345E+02  0.00000000000E+00 0.  1.
         21    1    1    2  505  503  0.44604252800E+02 -0.44158613106E+02  0.76323742987E+02  0.98817185867E+02  0.00000000000E+00 0.  1.
          1    1    1    2  501    0 -0.95686954267E+02  0.42192597395E+02 -0.12939509867E+03  0.16637097118E+03  0.00000000000E+00 0.  1.
<scales pt_clust_3="33.36575" pt_clust_4="66.26251" pt_clust_5="96.64585" pt_clust_6="14000.00000"></scales>
<clustering>
<clus scale="   33.366">  1  3  2 -1</clus>
<clus scale="   66.263">  1  4  2 -1</clus>
<clus scale="   96.646">  1  5  2 -1</clus>
<clus scale="   33.366">  1  3  2 -1</clus>
</clustering>
</event>
<event>
 6    0  0.1631680E+002  0.1289114E+03  0.7546771E-02  0.1229080E+00
         21   -1    0    0  504  502  0.00000000000E+00  0.00000000000E+00  0.11388653937E+03  0.11388653937E+03  0.00000000000E+00 0.  1.
         -3   -1    0    0    0  501 -0.00000000000E+00 -0.00000000000E+00 -0.11203256525E+04  0.11203256525E+04  0.00000000000E+00 0.  1.
         21    1    1    2  503  505 -0.42630824308E+02 -0.75196424881E+02 -0.77265164368E+02  0.11593875590E+03  0.00000000000E+00 0.  1.
         21    1    1    2  504  503  0.55073567808E+02 -0.70475340966E+02  0.59901985687E+02  0.10764812792E+03  0.00000000000E+00 0.  1.
         21    1    1    2  505  501 -0.28101185084E+02 -0.23966197211E+02 -0.15650807936E+03  0.16080682236E+03  0.00000000000E+00 0.  1.
         -3    1    1    2    0  502  0.15658441584E+02  0.16963796306E+03 -0.83256785510E+03  0.84981848570E+03  0.00000000000E+00 0.  1.
<scales pt_clust_3="14000.00000" pt_clust_4="89.48593" pt_clust_5="36.93312" pt_clust_6="128.91143"></scales>
<clustering>
<clus scale="   36.933">  2  5  1 -1</clus>
<clus scale="   89.486">  1  4  2 -1</clus>
<clus scale="  128.911">  2  6  1 -1</clus>
<clus scale="   89.486">  1  3  2 -1</clus>
</clustering>
</event>
<event>
 6    0  0.1631680E+002  0.1183747E+03  0.7546771E-02  0.1245803E+00
         -3   -1    0    0    0  501 -0.00000000000E+00  0.00000000000E+00  0.16116123958E+04  0.16116123958E+04  0.00000000000E+00 0. -1.
         21   -1    0    0  503  502  0.00000000000E+00 -0.00000000000E+00 -0.40114551509E+02  0.40114551509E+02  0.00000000000E+00 0. -1.
         21    1    1    2  503  501 -0.28946431874E+02  0.25151343712E+02  0.13028824312E+03  0.13581425663E+03  0.00000000000E+00 0.  1.
         21    1    1    2  504  502  0.44023184908E+02 -0.57931409307E+02  0.28988406001E+02  0.78322517045E+02  0.00000000000E+00 0. -1.
         21    1    1    2  505  504 -0.10744225867E+03 -0.49713347556E+02  0.38125093196E+03  0.39920862841E+03  0.00000000000E+00 0. -1.
         -3    1    1    2    0  505  0.92365505638E+02  0.82493413152E+02  0.10309702632E+04  0.10383815452E+04  0.00000000000E+00 0. -1.
<scales pt_clust_3="38.34692" pt_clust_4="71.39880" pt_clust_5="14000.00000" pt_clust_6="118.37466"></scales>
<clustering>
<clus scale="   38.347">  1  3  2 -1</clus>
<clus scale="   71.399">  2  4  1 -1</clus>
<clus scale="  118.375">  1  6  2 -1</clus>
<clus scale="   71.399">  2  3  1 -1</clus>
</clustering>
</event>
<event>
 6    0  0.1631680E+002  0.1245426E+03  0.7546771E-02  0.1235786E+00
         -2   -1    0    0    0  501 -0.00000000000E+00  0.00000000000E+00  0.82702195457E+03  0.82702195457E+03  0.00000000000E+00 0. -1.
         21   -1    0    0  505  502  0.00000000000E+00 -0.00000000000E+00 -0.37904521289E+03  0.37904521289E+03  0.00000000000E+00 0. -1.
         21    1    1    2  503  501 -0.39898806718E+02  0.15200483120E+02  0.22482724417E+02  0.48253936232E+02  0.00000000000E+00 0.  1.
         21    1    1    2  504  503 -0.15516806078E+03  0.73275235562E+02 -0.19844239268E+03  0.26234666083E+03  0.00000000000E+00 0. -1.
         21    1    1    2  505  504  0.76169845737E+02 -0.62701812149E+02 -0.11216471504E+03  0.14937967046E+03  0.00000000000E+00 0. -1.
         -2    1    1    2    0  502  0.11889702176E+03 -0.25773906532E+02  0.73610112499E+03  0.74608689994E+03  0.00000000000E+00 0. -1.
<scales pt_clust_3="42.69625" pt_clust_4="124.54261" pt_clust_5="14000.00000" pt_clust_6="82.35947"></scales>
<clustering>
<clus scale="   42.696">  1  3  2 -1</clus>
<clus scale="   82.359">  1  6  2 -1</clus>
<clus scale="  124.543">  1  4  2 -1</clus>
<clus scale="  124.543">  2  3  1 -1</clus>
</clustering>
</event>
<event>
 6    0  0.1631680E+002  0.7826549E+02  0.7546771E-02  0.1334047E+00
          1   -1    0    0  505    0 -0.00000000000E+00  0.00000000000E+00  0.11650161183E+04  0.11650161183E+04  0.00000000000E+00 0.  1.
         21   -1    0    0  501  502  0.00000000000E+00 -0.00000000000E+00 -0.14533138792E+03  0.14533138792E+03  0.00000000000E+00 0.  1.
         21    1    1    2  503  502  0.15851512198E+02  0.32141954800E+02 -0.12140968684E+03  0.12658865572E+03  0.00000000000E+00 0.  1.
         21    1    1    2  504  503 -0.90235843568E+02 -0.23498327607E+02  0.11441759625E+03  0.14760103386E+03  0.00000000000E+00 0.  1.
         21    1    1    2  505  504 -0.31216335207E+01 -0.51246585720E+02  0.36207492203E+03  0.36569687763E+03  0.00000000000E+00 0.  1.
          1    1    1    2  501    0  0.77505964890E+02  0.42602958526E+02  0.66460189890E+03  0.67046093897E+03  0.00000000000E+00 0.  1.
<scales pt_clust_3="35.83819" pt_clust_4="78.26549" pt_clust_5="48.55042" pt_clust_6="14000.00000"></scales>
<clustering>
<clus scale="   35.838">  2  3  1 -1</clus>
<clus scale="   48.550">  1  5  2 -1</clus>
<clus scale="   78.265">  2  4  1 -1</clus>
<clus scale="   35.838">  2  3  1 -1</clus>
</clustering>
</event>
<event>
 6    0  0.1631680E+002  0.1004827E+03  0.7546771E-02  0.1279284E+00
         21   -1    0    0  505  502  0.00000000000E+00  0.00000000000E+00  0.11365009382E+04  0.11365009382E+04  0.00000000000E+00 0.  1.
          2   -1    0    0  504    0 -0.00000000000E+00 -0.00000000000E+00 -0.14615542664E+04  0.14615542664E+04  0.00000000000E+00 0. -1.
         21    1    1    2  503  502 -0.57651680606E+02 -0.11753928417E+03  0.60997100915E+00  0.13091818692E+03  0.00000000000E+00 0. -1.
         21    1    1    2  504  503  0.40948450807E+02 -0.30634486030E+02 -0.18355792501E+03  0.19054857436E+03  0.00000000000E+00 0. -1.
         21    1    1    2  505  501  0.16477613103E+02  0.98210572361E+02  0.10644003524E+04  0.10690486137E+04  0.00000000000E+00 0.  1.
          2    1    1    2  501    0  0.22561669591E+00  0.49963197842E+02 -0.12065057265E+04  0.12075398296E+04  0.00000000000E+00 0. -1.
<scales pt_clust_3="14000.00000" pt_clust_4="41.56183" pt_clust_5="100.48274" pt_clust_6="49.96371"></scales>
<clustering>
<clus scale="   49.964">  2  6  1 -1</clus>
<clus scale="   41.562">  2  4  1 -1</clus>
<clus scale="  100.483">  1  5  2 -1</clus>
<clus scale="  100.483">  1  3  2 -1</clus>
</clustering>
</event>
<event>
 6    0  0.1631680E+002  0.9632846E+02  0.7546771E-02  0.1288212E+00
          1   -1    0    0  504    0 -0.00000000000E+00  0.00000000000E+00  0.12177817435E+04  0.12177817435E+04  0.00000000000E+00 0.  1.
         21   -1    0    0  503  502  0.00000000000E+00 -0.00000000000E+00 -0.40268552538E+03  0.40268552538E+03  0.00000000000E+00 0.  1.
         21    1    1    2  503  501 -0.10217236134E+03 -0.53042385861E+02  0.61295761398E+02  0.13042184052E+03  0.00000000000E+00 0.  1.
         21    1    1    2  504  505 -0.36694430349E+02  0.13852127694E+02  0.93855409827E+02  0.10172119059E+03  0.00000000000E+00 0.  1.
         21    1    1    2  505  502  0.95841976009E+02  0.10595398251E+01 -0.35705736139E+03  0.36969820978E+03  0.00000000000E+00 0.  1.
          1    1    1    2  501    0  0.43024815684E+02  0.38130718342E+02  0.10170024083E+04  0.10186260280E+04  0.00000000000E+00 0.  1.
<scales pt_clust_3="96.32846" pt_clust_4="39.22197" pt_clust_5="14000.00000" pt_clust_6="51.63421"></scales>
<clustering>
<clus scale="   39.222">  1  4  2 -1</clus>
<clus scale="   51.634">  1  6  2 -1</clus>
<clus scale="   96.328">  1  3  2 -1</clus>
<clus scale="   96.328">  2  3  1 -1</clus>
</clustering>
</event>
<event>
 6    0  0.1631680E+002  0.7079797E+02  0.7546771E-02  0.1357400E+00
         21   -1    0    0  504  502  0.00000000000E+00  0.00000000000E+00  0.49557538026E+02  0.49557538026E+02  0.00000000000E+00 0.  1.
         -4   -1    0    0    0  501 -0.00000000000E+00 -0.00000000000E+00 -0.47655994956E+03  0.47655994956E+03  0.00000000000E+00 0.  1.
         21    1    1    2  503  501 -0.61287841274E+02 -0.18411547503E+02 -0.13225291410E+03  0.14692180865E+03  0.00000000000E+00 0. -1.
         21    1    1    2  504  503  0.11648772932E+02 -0.67935511260E+02 -0.55405565371E+02  0.88434745858E+02  0.00000000000E+00 0.  1.
         21    1    1    2  505  502  0.80426508360E+02  0.23410472746E+02 -0.76320857591E+02  0.11331966636E+03  0.00000000000E+00 0.  1.
         -4    1    1    2    0  505 -0.30787440017E+02  0.62936586017E+02 -0.16302307448E+03  0.17744126672E+03  0.00000000000E+00 0.  1.
<scales pt_clust_3="63.99363" pt_clust_4="70.79797" pt_clust_5="65.75816" pt_clust_6="14000.00000"></scales>
<clustering>
<clus scale="   63.994">  2  3  1 -1</clus>
<clus scale="   65.758">  1  5  2 -1</clus>
<clus scale="   70.798">  1  4  2 -1</clus>
<clus scale="   65.758">  1  3  2 -1</clus>
</clustering>
</event>
<event>
 6    0  0.1631680E+002  0.5575987E+02  0.7546771E-02  0.1416539E+00
         -4   -1    0    0    0  501 -0.00000000000E+00  0.00000000000E+00  0.57344499319E+03  0.57344499319E+03  0.00000000000E+00 0.  1.
         21   -1    0    0  505  502  0.00000000000E+00 -0.00000000000E+00 -0.99730413551E+03  0.99730413551E+03  0.00000000000E+00 0.  1.
         21    1    1    2  503  501 -0.35712401009E+02 -0.40209511956E+02  0.33823551817E+03  0.34248422765E+03  0.00000000000E+00 0.  1.
         21    1    1    2  504  503 -0.84589476444E+02 -0.39659911257E+02 -0.50989286117E+02  0.10643399544E+03  0.00000000000E+00 0.  1.
         21    1    1    2  505  504  0.41319612524E+02  0.24185718697E+02 -0.90443105184E+03  0.90569740361E+03  0.00000000000E+00 0.  1.
         -4    1    1    2    0  502  0.78982264929E+02  0.55683704515E+02  0.19332567746E+03  0.21613350200E+03  0.00000000000E+00 0.  1.
<scales pt_clust_3="52.73170" pt_clust_4="55.75987" pt_clust_5="47.87755" pt_clust_6="14000.00000"></scales>
<clustering>
<clus scale="   47.878">  2  5  1 -1</clus>
<clus scale="   52.732">  1  3  2 -1</clus>
<clus scale="   55.760">  2  4  1 -1</clus>
<clus scale="   47.878">  2  3  1 -1</clus>
</clustering>
</event>
<event>
 6    0  0.1631680E+002  0.7657395E+02  0.7546771E-02  0.1339065E+00
          2   -1    0    0  504    0 -0.00000000000E+00  0.00000000000E+00  0.16266153103E+04  0.16266153103E+04  0.00000000000E+00 0. -1.
         21   -1    0    0  503  502  0.00000000000E+00 -0.00000000000E+00 -0.18343197461E+03  0.18343197461E+03  0.00000000000E+00 0.  1.
         21    1    1    2  503  505 -0.11586834485E+02  0.70053124762E+02  0.85974202531E+01  0.71523497239E+02  0.00000000000E+00 0. -1.
         21    1    1    2  504  502  0.82639985461E+02 -0.88504300532E+02 -0.12095095481E+03  0.17114763183E+03  0.00000000000E+00 0.  1.
         21    1    1    2  505  501 -0.95574746472E+02 -0.87224357216E+01  0.40344039441E+03  0.41469840232E+03  0.00000000000E+00 0.  1.
          2    1    1    2  501    0  0.24521595496E+02  0.27173611491E+02  0.11520964759E+04  0.11526777535E+04  0.00000000000E+00 0. -1.
<scales pt_clust_3="72.97167" pt_clust_4="76.57395" pt_clust_5="14000.00000" pt_clust_6="36.60210"></scales>
<clustering>
<clus scale="   36.602">  1  6  2 -1</clus>
<clus scale="   72.972">  2  3  1 -1</clus>
<clus scale="   76.574">  2  4  1 -1</clus>
<clus scale="   72.972">  2  3  1 -1</clus>
</clustering>
</event>
<event>
 6    0  0.1631680E+002  0.6155664E+03  0.7546771E-02  0.9873627E-01
         21   -1    0    0  505  502  0.00000000000E+00  0.00000000000E+00  0.45924450315E+03  0.45924450315E+03  0.00000000000E+00 0.  1.
          3   -1    0    0  503    0 -0.00000000000E+00 -0.00000000000E+00 -0.27107146007E+04  0.27107146007E+04  0.00000000000E+00 0.  1.
         21    1    1    2  503  502 -0.74313734328E+02 -0.10659949121E+03 -0.65698980249E+03  0.66971753987E+03  0.00000000000E+00 0.  1.
         21    1    1    2  504  501 -0.19969372407E+03  0.10245301283E+03  0.98753273492E+02  0.24520687653E+03  0.00000000000E+00 0.  1.
         21    1    1    2  505  504 -0.37316560659E+03 -0.64767114539E+02  0.61305875323E+02  0.38367402755E+03  0.00000000000E+00 0.  1.
          3    1    1    2  501    0  0.64717306499E+03  0.68913592912E+02 -0.17545394438E+04  0.18713606599E+04  0.00000000000E+00 0.  1.
<scales pt_clust_3="129.94608" pt_clust_4="153.27372" pt_clust_5="153.27372" pt_clust_6="581.92595"></scales>
<clustering>
<clus scale="  129.946">  2  3  1 -1</clus>
<clus scale="  153.274">  4  5 -1 -1</clus>
<clus scale="  581.926">  2  6  1 -1</clus>
<clus scale="  615.566">  1  3  2 -1</clus>
</clustering>
</event>
<event>
 6    0  0.1631680E+002  0.1019280E+03  0.7546771E-02  0.1276293E+00
         21   -1    0    0  504  502  0.00000000000E+00  0.00000000000E+00  0.31963730338E+03  0.31963730338E+03  0.00000000000E+00 0. -1.
         -1   -1    0    0    0  501 -0.00000000000E+00 -0.00000000000E+00 -0.15479046630E+04  0.15479046630E+04  0.00000000000E+00 0.  1.
         21    1    1    2  503  502 -0.46391639796E+02 -0.11646709073E+02  0.11416995181E+03  0.12378452234E+03  0.00000000000E+00 0. -1.
         21    1    1    2  504  501 -0.85497959762E+02 -0.91316859039E+01 -0.85284205185E+03  0.85716559323E+03  0.00000000000E+00 0. -1.
         21    1    1    2  505  503  0.62784477299E+02  0.11227752401E+03  0.17219587690E+03  0.21494081281E+03  0.00000000000E+00 0. -1.
         -1    1    1    2    0  505  0.69105122258E+02 -0.91499129035E+02 -0.66179113645E+03  0.67165103798E+03  0.00000000000E+00 0.  1.
<scales pt_clust_3="47.83127" pt_clust_4="86.49456" pt_clust_5="14000.00000" pt_clust_6="101.92803"></scales>
<clustering>
<clus scale="   47.831">  1  3  2 -1</clus>
<clus scale="   86.495">  2  4  1 -1</clus>
<clus scale="  101.928">  2  6  1 -1</clus>
<clus scale="   47.831">  1  3  2 -1</clus>
</clustering>
</event>
<event>
 6    0  0.1631680E+002  0.6904075E+02  0.7546771E-02  0.1363386E+00
         21   -1    0    0  501  502  0.00000000000E+00  0.00000000000E+00  0.65958022515E+02  0.65958022515E+02  0.00000000000E+00 0. -1.
          2   -1    0    0  504    0 -0.00000000000E+00 -0.00000000000E+00 -0.82981746309E+03  0.82981746309E+03  0.00000000000E+00 0.  1.
         21    1    1    2  503  502 -0.66591125441E+01 -0.43300951737E+02  0.39011248072E+02  0.58661688327E+02  0.00000000000E+00 0. -1.
         21    1    1    2  504  505 -0.11778688746E+02 -0.45195363745E+02 -0.19034861670E+03  0.19599478128E+03  0.00000000000E+00 0.  1.
         21    1    1    2  505  503 -0.50597543529E+02  0.81148433886E+02 -0.49876696664E+03  0.50785201264E+03  0.00000000000E+00 0.  1.
          2    1    1    2  501    0  0.69035344819E+02  0.73478815950E+01 -0.11375510532E+03  0.13326700336E+03  0.00000000000E+00 0.  1.
<scales pt_clust_3="43.81000" pt_clust_4="53.89586" pt_clust_5="14000.00000" pt_clust_6="69.04075"></scales>
<clustering>
<clus scale="   43.810">  1  3  2 -1</clus>
<clus scale="   53.896">  2  4  1 -1</clus>
<clus scale="   69.041">  1  6  2 -1</clus>
<clus scale="   43.810">  1  3  2 -1</clus>
</clustering>
</event>
<event>
 6    0  0.1631680E+002  0.8879090E+02  0.7546771E-02  0.1305806E+00
         21   -1    0    0  504  502  0.00000000000E+00  0.00000000000E+00  0.15268829408E+03  0.15268829408E+03  0.00000000000E+00 0. -1.
          2   -1    0    0  503    0 -0.00000000000E+00 -0.00000000000E+00 -0.51503218101E+04  0.51503218101E+04  0.00000000000E+00 0.  1.
         21    1    1    2  503  505  0.24833309059E+02 -0.17568277222E+02 -0.16774088363E+03  0.17047680677E+03  0.00000000000E+00 0.  1.
         21    1    1    2  504  501 -0.34143707265E+02  0.23602016869E+02 -0.35256797745E+02  0.54459982862E+02  0.00000000000E+00 0. -1.
         21    1    1    2  505  502  0.10660227684E+03  0.27159884866E+02  0.11975183609E+03  0.16261059934E+03  0.00000000000E+00 0. -1.
          2    1    1    2  501    0 -0.97291878632E+02 -0.33193624513E+02 -0.49143876708E+04  0.49154627152E+04  0.00000000000E+00 0.  1.
<scales pt_clust_3="30.41936" pt_clust_4="41.23328" pt_clust_5="88.79090" pt_clust_6="14000.00000"></scales>
<clustering>
<clus scale="   30.419">  2  3  1 -1</clus>
<clus scale="   41.233">  1  4  2 -1</clus>
<clus scale="   88.791">  1  5  2 -1</clus>
<clus scale="   41.233">  1  3  2 -1</clus>
</clustering>
</event>
<event>
 6    0  0.1631680E+002  0.1671245E+03  0.7546771E-02  0.1180880E+00
         21   -1    0    0  504  502  0.00000000000E+00  0.00000000000E+00  0.12329437485E+03  0.12329437485E+03  0.00000000000E+00 0.  1.
         -1   -1    0    0    0  501 -0.00000000000E+00 -0.00000000000E+00 -0.64152997480E+03  0.64152997480E+03  0.00000000000E+00 0.  1.
         21    1    1    2  503  502  0.97670994025E+02 -0.10319724671E+03  0.19158183435E+02  0.14337479135E+03  0.00000000000E+00 0.  1.
         21    1    1    2  504  505 -0.79736655285E+02  0.49295981611E+02 -0.12633160346E+03  0.15731402364E+03  0.00000000000E+00 0.  1.
         21    1    1    2  505  501 -0.10292848366E+03  0.96433405354E+01 -0.30070862619E+03  0.31798261687E+03  0.00000000000E+00 0.  1.
         -1    1    1    2    0  503  0.84994144925E+02  0.44257924563E+02 -0.11035355373E+03  0.14615291779E+03  0.00000000000E+00 0.  1.
<scales pt_clust_3="145.69640" pt_clust_4="77.96423" pt_clust_5="77.96423" pt_clust_6="95.82676"></scales>
<clustering>
<clus scale="   77.964">  4  5 -1 -1</clus>
<clus scale="   95.827">  2  6  1 -1</clus>
<clus scale="  145.696">  1  3  2 -1</clus>
<clus scale="  145.696">  1  3  2 -1</clus>
</clustering>
</event>
<event>
 6    0  0.1631680E+002  0.1713118E+03  0.7546771E-02  0.1176487E+00
         21   -1    0    0  501  502  0.00000000000E+00  0.00000000000E+00  0.10374142788E+03  0.10374142788E+03  0.00000000000E+00 0.  1.
          2   -1    0    0  505    0 -0.00000000000E+00 -0.00000000000E+00 -0.30644957643E+04  0.30644957643E+04  0.00000000000E+00 0.  1.
         21    1    1    2  503  504 -0.12158622049E+03  0.22695363426E+02 -0.43468193248E+03  0.45193657847E+03  0.00000000000E+00 0.  1.
         21    1    1    2  504  502  0.18089328870E+03  0.13797581669E+02  0.69268037059E+01  0.18155091783E+03  0.00000000000E+00 0.  1.
         21    1    1    2  505  503 -0.30835266880E+02 -0.22223888589E+02 -0.47969124592E+03  0.48119476963E+03  0.00000000000E+00 0.  1.
          2    1    1    2  501    0 -0.28471801325E+02 -0.14269056506E+02 -0.20533079618E+04  0.20535549263E+04  0.00000000000E+00 0.  1.
<scales pt_clust_3="14000.00000" pt_clust_4="171.31183" pt_clust_5="53.00447" pt_clust_6="31.84728"></scales>
<clustering>
<clus scale="   31.847">  2  6  1 -1</clus>
<clus scale="   53.004">  2  5  1 -1</clus>
<clus scale="  171.312">  1  4  2 -1</clus>
<clus scale="  171.312">  1  3  2 -1</clus>
</clustering>
</event>
<event>
 6    0  0.1631680E+002  0.1168858E+03  0.7546771E-02  0.1248325E+00
         21   -1    0    0  501  502  0.00000000000E+00  0.00000000000E+00  0.36800638321E+02  0.36800638321E+02  0.00000000000E+00 0. -1.
          2   -1    0    0  504    0 -0.00000000000E+00 -0.00000000000E+00 -0.15767389909E+04  0.15767389909E+04  0.00000000000E+00 0.  1.
         21    1    1    2  503  502  0.14358044097E+02  0.37299764557E+02 -0.86651273921E+02  0.95424677827E+02  0.00000000000E+00 0.  1.
         21    1    1    2  504  505 -0.81917202121E+02 -0.44500163038E+02 -0.64005672905E+03  0.64681010267E+03  0.00000000000E+00 0. -1.
         21    1    1    2  505  503 -0.53548312778E+02  0.82809794392E+02 -0.88048055166E+02  0.13220190569E+03  0.00000000000E+00 0. -1.
          2    1    1    2  501    0  0.12110747080E+03 -0.75609395911E+02 -0.72518229447E+03  0.73910294306E+03  0.00000000000E+00 0.  1.
<scales pt_clust_3="39.96781" pt_clust_4="90.09523" pt_clust_5="14000.00000" pt_clust_6="116.88583"></scales>
<clustering>
<clus scale="   39.968">  1  3  2 -1</clus>
<clus scale="   90.095">  2  4  1 -1</clus>
<clus scale="  116.886">  2  6  1 -1</clus>
<clus scale="   39.968">  1  3  2 -1</clus>
</clustering>
</event>
<event>
 6    0  0.1631680E+002  0.3740355E+03  0.7546771E-02  0.1053161E+00
          2   -1    0    0  505    0 -0.00000000000E+00  0.00000000000E+00  0.19872509197E+04  0.19872509197E+04  0.00000000000E+00 0.  1.
         21   -1    0    0  504  502  0.00000000000E+00 -0.00000000000E+00 -0.13554344023E+03  0.13554344023E+03  0.00000000000E+00 0. -1.
         21    1    1    2  503  502 -0.37922215756E+03  0.18579372052E+02  0.36132039720E+03  0.52412504928E+03  0.00000000000E+00 0. -1.
         21    1    1    2  504  501  0.38781421010E+02  0.16745115106E+02  0.27508241682E+02  0.50409333024E+02  0.00000000000E+00 0.  1.
         21    1    1    2  505  503 -0.72547998612E+02  0.27302666187E+02  0.37534687507E+03  0.38326743184E+03  0.00000000000E+00 0.  1.
          2    1    1    2  501    0  0.41298873516E+03 -0.62627153345E+02  0.10875319655E+04  0.11649925458E+04  0.00000000000E+00 0.  1.
<scales pt_clust_3="14000.00000" pt_clust_4="42.24213" pt_clust_5="76.55107" pt_clust_6="374.03553"></scales>
<clustering>
<clus scale="   42.242">  2  4  1 -1</clus>
<clus scale="   76.551">  1  5  2 -1</clus>
<clus scale="  374.036">  1  6  2 -1</clus>
<clus scale="   42.242">  2  3  1 -1</clus>
</clustering>
</event>
<event>
 6    0  0.1631680E+002  0.1251474E+03  0.7546771E-02  0.1234839E+00
         21   -1    0    0  501  502  0.00000000000E+00  0.00000000000E+00  0.45477451273E+02  0.45477451273E+02  0.00000000000E+00 0. -1.
          3   -1    0    0  505    0 -0.00000000000E+00 -0.00000000000E+00 -0.21399174329E+04  0.21399174329E+04  0.00000000000E+00 0. -1.
         21    1    1    2  503  502 -0.74685522045E+01  0.33359648262E+02  0.22007951261E+02  0.40657045182E+02  0.00000000000E+00 0. -1.
         21    1    1    2  504  503  0.18369937264E+02  0.32966501444E+02 -0.53368415631E+02  0.65363847802E+02  0.00000000000E+00 0. -1.
         21    1    1    2  505  504 -0.81417884124E+02  0.68398990061E+02 -0.74462272980E+03  0.75217704261E+03  0.00000000000E+00 0. -1.
          3    1    1    2  501    0  0.70516499065E+02 -0.13472513977E+03 -0.13184567874E+04  0.13271969486E+04  0.00000000000E+00 0. -1.
<scales pt_clust_3="34.18546" pt_clust_4="49.50392" pt_clust_5="125.14744" pt_clust_6="14000.00000"></scales>
<clustering>
<clus scale="   34.185">  1  3  2 -1</clus>
<clus scale="   49.504">  1  4  2 -1</clus>
<clus scale="  125.147">  2  5  1 -1</clus>
<clus scale="   34.185">  1  3  2 -1</clus>
</clustering>
</event>
<event>
 6    0  0.1631680E+002  0.1334074E+03  0.7546771E-02  0.1222486E+00
         21   -1    0    0  501  502  0.00000000000E+00  0.00000000000E+00  0.27812729097E+02  0.27812729097E+02  0.00000000000E+00 0.  1.
          2   -1    0    0  505    0 -0.00000000000E+00 -0.00000000000E+00 -0.11478982650E+04  0.11478982650E+04  0.00000000000E+00 0.  1.
         21    1    1    2  503  502 -0.34916557692E+01  0.65949991403E+02 -0.12995996874E+03  0.14577786698E+03  0.00000000000E+00 0.  1.
         21    1    1    2  504  503 -0.33036317859E+02  0.60991519461E+02 -0.73862502895E+02  0.10132636911E+03  0.00000000000E+00 0.  1.
         21    1    1    2  505  504 -0.21753415737E+02 -0.33644857578E+02 -0.29023572574E+03  0.29298799298E+03  0.00000000000E+00 0.  1.
          2    1    1    2  501    0  0.58281389365E+02 -0.93296653286E+02 -0.62602733854E+03  0.63561876503E+03  0.00000000000E+00 0.  1.
<scales pt_clust_3="43.21444" pt_clust_4="43.21444" pt_clust_5="40.06479" pt_clust_6="125.41559"></scales>
<clustering>
<clus scale="   40.065">  2  5  1 -1</clus>
<clus scale="   43.214">  3  4 -1 -1</clus>
<clus scale="  125.416">  2  6  1 -1</clus>
<clus scale="  133.407">  1  3  2 -1</clus>
</clustering>
</event>
<event>
 6    0  0.1631680E+002  0.8610556E+02  0.7546771E-02  0.1312566E+00
          3   -1    0    0  505    0 -0.00000000000E+00  0.00000000000E+00  0.17922193287E+03  0.17922193287E+03  0.00000000000E+00 0. -1.
         21   -1    0    0  503  502  0.00000000000E+00 -0.00000000000E+00 -0.63438110384E+03  0.63438110384E+03  0.00000000000E+00 0. -1.
         21    1    1    2  503  501 -0.15148750368E+03  0.62943186384E+02 -0.47067805711E+03  0.49844572617E+03  0.00000000000E+00 0. -1.
         21    1    1    2  504  502  0.69764844821E+02 -0.18379574683E+02 -0.11630968299E+03  0.13686812885E+03  0.00000000000E+00 0. -1.
         21    1    1    2  505  504  0.26184110124E+02 -0.34411322573E+02  0.10922673026E+03  0.11747436038E+03  0.00000000000E+00 0. -1.
          3    1    1    2  501    0  0.55538548740E+02 -0.10152289128E+02  0.22601838869E+02  0.60814821310E+02  0.00000000000E+00 0. -1.
<scales pt_clust_3="14000.00000" pt_clust_4="77.57569" pt_clust_5="43.24057" pt_clust_6="86.10556"></scales>
<clustering>
<clus scale="   43.241">  1  5  2 -1</clus>
<clus scale="   77.576">  2  4  1 -1</clus>
<clus scale="   86.106">  1  6  2 -1</clus>
<clus scale="   77.576">  2  3  1 -1</clus>
</clustering>
</event>
<event>
 6    0  0.1631680E+002  0.1132815E+03  0.7546771E-02  0.1254611E+00
         -3   -1    0    0    0  501 -0.00000000000E+00  0.00000000000E+00  0.10756079030E+04  0.10756079030E+04  0.00000000000E+00 0.  1.
         21   -1    0    0  504  502  0.00000000000E+00 -0.00000000000E+00 -0.38356901093E+03  0.38356901093E+03  0.00000000000E+00 0.  1.
         21    1    1    2  503  501 -0.72236442184E+02 -0.29003187421E+02 -0.69452688151E+02  0.10432144723E+03  0.00000000000E+00 0. -1.
         21    1    1    2  504  503  0.24520689773E+02  0.52467945594E+02 -0.26952589985E+03  0.27567800100E+03  0.00000000000E+00 0.  1.
         21    1    1    2  505  502 -0.48232084659E+02  0.50689908411E+02  0.39654709223E+02  0.80425722060E+02  0.00000000000E+00 0.  1.
         -3    1    1    2    0  505  0.95947837070E+02 -0.74154666585E+02  0.99136277090E+03  0.99875174369E+03  0.00000000000E+00 0.  1.
<scales pt_clust_3="54.39490" pt_clust_4="57.91502" pt_clust_5="113.28149" pt_clust_6="14000.00000"></scales>
<clustering>
<clus scale="   57.915">  2  4  1 -1</clus>
<clus scale="   54.395">  2  3  1 -1</clus>
<clus scale="  113.281">  2  5  1 -1</clus>
<clus scale="   57.915">  2  3  1 -1</clus>
</clustering>
</event>
<event>
 6    0  0.1631680E+002  0.9554185E+02  0.7546771E-02  0.1289960E+00
         21   -1    0    0  503  502  0.00000000000E+00  0.00000000000E+00  0.47297348903E+02  0.47297348903E+02  0.00000000000E+00 0. -1.
          2   -1    0    0  504    0 -0.00000000000E+00 -0.00000000000E+00 -0.22205609269E+04  0.22205609269E+04  0.00000000000E+00 0. -1.
         21    1    1    2  503  501 -0.73341543767E+02  0.20187338128E+02 -0.79271128445E+01  0.76481041970E+02  0.00000000000E+00 0. -1.
         21    1    1    2  504  505  0.55071937324E+02 -0.41918167151E+02 -0.64782704703E+03  0.65151357152E+03  0.00000000000E+00 0.  1.
         21    1    1    2  505  502 -0.22992759676E+02 -0.56832361322E+02 -0.86048399211E+02  0.10565467949E+03  0.00000000000E+00 0. -1.
          2    1    1    2  501    0  0.41262366119E+02  0.78563190345E+02 -0.14314610189E+04  0.14342089828E+04  0.00000000000E+00 0. -1.
<scales pt_clust_3="14000.00000" pt_clust_4="70.06331" pt_clust_5="61.30729" pt_clust_6="95.54185"></scales>
<clustering>
<clus scale="   61.307">  1  5  2 -1</clus>
<clus scale="   70.063">  2  4  1 -1</clus>
<clus scale="   95.542">  2  6  1 -1</clus>
<clus scale="   61.307">  1  3  2 -1</clus>
</clustering>
</event>
<event>
 6    0  0.1631680E+002  0.1464448E+03  0.7546771E-02  0.1204911E+00
          2   -1    0    0  503    0 -0.00000000000E+00  0.00000000000E+00  0.10404191677E+04  0.10404191677E+04  0.00000000000E+00 0. -1.
         21   -1    0    0  504  502  0.00000000000E+00 -0.00000000000E+00 -0.81082400504E+02  0.81082400504E+02  0.00000000000E+00 0. -1.
         21    1    1    2  503  505 -0.15887315645E+02  0.11644557364E+03  0.21729419899E+03  0.24703997112E+03  0.00000000000E+00 0. -1.
         21    1    1    2  504  501 -0.46246993269E+02 -0.22432484084E+02  0.47154849546E+02  0.69753713624E+02  0.00000000000E+00 0. -1.
         21    1    1    2  505  502  0.29341575979E+02 -0.15475954279E+03  0.63947080707E+02  0.17000198027E+03  0.00000000000E+00 0. -1.
          2    1    1    2  501    0  0.32792732934E+02  0.60746453237E+02  0.63094063794E+03  0.63470590317E+03  0.00000000000E+00 0. -1.
<scales pt_clust_3="146.44479" pt_clust_4="51.40040" pt_clust_5="14000.00000" pt_clust_6="67.91217"></scales>
<clustering>
<clus scale="   51.400">  2  4  1 -1</clus>
<clus scale="   67.912">  1  6  2 -1</clus>
<clus scale="  146.445">  1  3  2 -1</clus>
<clus scale="   51.400">  2  3  1 -1</clus>
</clustering>
</event>
<event>
 6    0  0.1631680E+002  0.7531367E+02  0.7546771E-02  0.1342902E+00
          2   -1    0    0  505    0 -0.00000000000E+00  0.00000000000E+00  0.27741774642E+04  0.27741774642E+04  0.00000000000E+00 0. -1.
         21   -1    0    0  503  502  0.00000000000E+00 -0.00000000000E+00 -0.84097782413E+02  0.84097782413E+02  0.00000000000E+00 0. -1.
         21    1    1    2  503  501  0.12532143935E+03  0.71929761652E+01  0.14389916124E+04  0.14444563207E+04  0.00000000000E+00 0. -1.
         21    1    1    2  504  502 -0.27589581662E+02 -0.16210814285E+02 -0.55282420804E+02  0.63875829278E+02  0.00000000000E+00 0. -1.
         21    1    1    2  505  504 -0.36011977654E+02  0.13591395926E+02 -0.34643127924E+01  0.38646992651E+02  0.00000000000E+00 0. -1.
          2    1    1    2  501    0 -0.61719880037E+02 -0.45735578069E+01  0.13098348030E+04  0.13112961039E+04  0.00000000000E+00 0. -1.
<scales pt_clust_3="75.31367" pt_clust_4="31.99962" pt_clust_5="59.70573" pt_clust_6="14000.00000"></scales>
<clustering>
<clus scale="   32.000">  2  4  1 -1</clus>
<clus scale="   59.706">  2  5  1 -1</clus>
<clus scale="   75.314">  2  3  1 -1</clus>
<clus scale="   32.000">  2  3  1 -1</clus>
</clustering>
</event>
<event>
 6    0  0.1631680E+002  0.1007773E+03  0.7546771E-02  0.1278670E+00
          2   -1    0    0  504    0 -0.00000000000E+00  0.00000000000E+00  0.36043361498E+03  0.36043361498E+03  0.00000000000E+00 0. -1.
         21   -1    0    0  503  502  0.00000000000E+00 -0.00000000000E+00 -0.68882526643E+03  0.68882526643E+03  0.00000000000E+00 0.  1.
         21    1    1    2  503  501 -0.68624324867E+02 -0.29054718619E+02 -0.99076548187E+02  0.12397434024E+03  0.00000000000E+00 0.  1.
         21    1    1    2  504  505  0.49499073787E+02 -0.15492950834E+01  0.18404943891E+02  0.52832760487E+02  0.00000000000E+00 0.  1.
         21    1    1    2  505  502  0.14780866232E+03  0.80354891773E+02 -0.53118706198E+03  0.55719296846E+03  0.00000000000E+00 0.  1.
          2    1    1    2  501    0 -0.12868341124E+03 -0.49750878070E+02  0.28346701482E+03  0.31525881223E+03  0.00000000000E+00 0. -1.
<scales pt_clust_3="72.80214" pt_clust_4="49.52331" pt_clust_5="14000.00000" pt_clust_6="100.77732"></scales>
<clustering>
<clus scale="   49.523">  1  4  2 -1</clus>
<clus scale="   72.802">  2  3  1 -1</clus>
<clus scale="  100.777">  1  6  2 -1</clus>
<clus scale="   72.802">  2  3  1 -1</clus>
</clustering>
</event>
<event>
 6    0  0.1631680E+002  0.1018937E+03  0.7546771E-02  0.1276363E+00
         21   -1    0    0  505  502  0.00000000000E+00  0.00000000000E+00  0.14487586432E+03  0.14487586432E+03  0.00000000000E+00 0. -1.
          2   -1    0    0  504    0 -0.00000000000E+00 -0.00000000000E+00 -0.26183090143E+04  0.26183090143E+04  0.00000000000E+00 0. -1.
         21    1    1    2  503  502 -0.37439526650E+02 -0.45064591493E+01 -0.34875520101E+02  0.51364659370E+02  0.00000000000E+00 0.  1.
         21    1    1    2  504  503  0.47294420573E+02  0.35293060759E+02 -0.92317180573E+03  0.92505596871E+03  0.00000000000E+00 0. -1.
         21    1    1    2  505  501  0.40331033629E+02  0.10477641352E+03  0.10869276484E+03  0.15626517921E+03  0.00000000000E+00 0. -1.
          2    1    1    2  501    0 -0.50185927552E+02 -0.13556301513E+03 -0.16240785890E+04  0.16304990713E+04  0.00000000000E+00 0. -1.
<scales pt_clust_3="37.70976" pt_clust_4="58.78621" pt_clust_5="14000.00000" pt_clust_6="101.89367"></scales>
<clustering>
<clus scale="   37.710">  1  3  2 -1</clus>
<clus scale="   58.786">  2  4  1 -1</clus>
<clus scale="  101.894">  2  6  1 -1</clus>
<clus scale="   37.710">  1  3  2 -1</clus>
</clustering>
</event>
<event>
 6    0  0.1631680E+002  0.1110006E+03  0.7546771E-02  0.1258728E+00
          2   -1    0    0  504    0 -0.00000000000E+00  0.00000000000E+00  0.16678007454E+04  0.16678007454E+04  0.00000000000E+00 0. -1.
         21   -1    0    0  503  502  0.00000000000E+00 -0.00000000000E+00 -0.51329576734E+03  0.51329576734E+03  0.00000000000E+00 0. -1.
         21    1    1    2  503  501 -0.12783169906E+03 -0.34756031222E+02  0.87600756715E+02  0.15881693099E+03  0.00000000000E+00 0. -1.
         21    1    1    2  504  505  0.70843515893E+02 -0.30352983802E+02  0.40570372363E+03  0.41295958487E+03  0.00000000000E+00 0.  1.
         21    1    1    2  505  502  0.69837237247E+01  0.48004564257E+02 -0.47220141427E+03  0.47468661896E+03  0.00000000000E+00 0. -1.
          2    1    1    2  501    0  0.50004459441E+02  0.17104450767E+02  0.11334019119E+04  0.11346333779E+04  0.00000000000E+00 0. -1.
<scales pt_clust_3="14000.00000" pt_clust_4="111.00062" pt_clust_5="48.50990" pt_clust_6="53.19524"></scales>
<clustering>
<clus scale="   48.510">  2  5  1 -1</clus>
<clus scale="   53.195">  1  6  2 -1</clus>
<clus scale="  111.001">  1  4  2 -1</clus>
<clus scale="   48.510">  2  3  1 -1</clus>
</clustering>
</event>
<event>
 6    0  0.1631680E+002  0.3077176E+03  0.7546771E-02  0.1081445E+00
          2   -1    0    0  505    0 -0.00000000000E+00  0.00000000000E+00  0.88944630866E+03  0.88944630866E+03  0.00000000000E+00 0.  1.
         21   -1    0    0  503  502  0.00000000000E+00 -0.00000000000E+00 -0.16857961463E+03  0.16857961463E+03  0.00000000000E+00 0.  1.
         21    1    1    2  503  504 -0.21795519466E+02 -0.51864102324E+02 -0.15741095805E+02  0.58418420689E+02  0.00000000000E+00 0.  1.
         21    1    1    2  504  501 -0.19003259885E+03 -0.15455429274E+03  0.67455985476E+02  0.25406638504E+03  0.00000000000E+00 0.  1.
         21    1    1    2  505  502 -0.21377109282E+02  0.25577578749E+02  0.77936848111E+02  0.84766418052E+02  0.00000000000E+00 0.  1.
          2    1    1    2  501    0  0.23320522759E+03  0.18084081632E+03  0.59121495625E+03  0.66077469951E+03  0.00000000000E+00 0.  1.
<scales pt_clust_3="41.32086" pt_clust_4="41.32086" pt_clust_5="33.33457" pt_clust_6="295.29219"></scales>
<clustering>
<clus scale="   33.335">  1  5  2 -1</clus>
<clus scale="   41.321">  3  4 -1 -1</clus>
<clus scale="  295.292">  1  6  2 -1</clus>
<clus scale="  307.718">  2  3  1 -1</clus>
</clustering>
</event>
<event>
 6    0  0.1631680E+002  0.1351474E+03  0.7546771E-02  0.1220012E+00
          2   -1    0    0  505    0 -0.00000000000E+00  0.00000000000E+00  0.22452072545E+04  0.22452072545E+04  0.00000000000E+00 0. -1.
         21   -1    0    0  503  502  0.00000000000E+00 -0.00000000000E+00 -0.24407443772E+03  0.24407443772E+03  0.00000000000E+00 0. -1.
         21    1    1    2  503  501 -0.38143638607E+02  0.18638730642E+03  0.44234557005E+02  0.19532501426E+03  0.00000000000E+00 0. -1.
         21    1    1    2  504  502 -0.60388206615E+02 -0.11562654398E+03 -0.13970983903E+03  0.19114149810E+03  0.00000000000E+00 0. -1.
         21    1    1    2  505  504  0.61414657054E+02 -0.30940935886E+02  0.44251361717E+03  0.44782519245E+03  0.00000000000E+00 0. -1.
          2    1    1    2  501    0  0.37117188168E+02 -0.39819826555E+02  0.16540944816E+04  0.16549899874E+04  0.00000000000E+00 0. -1.
<scales pt_clust_3="135.14738" pt_clust_4="14000.00000" pt_clust_5="108.19218" pt_clust_6="54.43624"></scales>
<clustering>
<clus scale="   54.436">  1  6  2 -1</clus>
<clus scale="  108.192">  1  5  2 -1</clus>
<clus scale="  135.147">  1  3  2 -1</clus>
<clus scale="  135.147">  2  3  1 -1</clus>
</clustering>
</event>
<event>
 6    0  0.1631680E+002  0.1083883E+03  0.7546771E-02  0.1263584E+00
          2   -1    0    0  505    0 -0.00000000000E+00  0.00000000000E+00  0.33552818002E+03  0.33552818002E+03  0.00000000000E+00 0.  1.
         21   -1    0    0  503  502  0.00000000000E+00 -0.00000000000E+00 -0.10167179448E+03  0.10167179448E+03  0.00000000000E+00 0.  1.
         21    1    1    2  503  501  0.34168262983E+02 -0.18649835029E+02  0.30353273876E+02  0.49362007423E+02  0.00000000000E+00 0. -1.
         21    1    1    2  504  502  0.23591738729E+02  0.21311861320E+02 -0.32086733807E+02  0.45169946375E+02  0.00000000000E+00 0.  1.
         21    1    1    2  505  504 -0.49552884422E+02  0.10618221331E+03  0.50082497375E+02  0.12743000950E+03  0.00000000000E+00 0. -1.
          2    1    1    2  501    0 -0.82071172890E+01 -0.10884423960E+03  0.18550734810E+03  0.21523801120E+03  0.00000000000E+00 0.  1.
<scales pt_clust_3="40.76110" pt_clust_4="31.79254" pt_clust_5="108.38832" pt_clust_6="14000.00000"></scales>
<clustering>
<clus scale="   31.793">  2  4  1 -1</clus>
<clus scale="   40.761">  2  3  1 -1</clus>
<clus scale="  108.388">  2  5  1 -1</clus>
<clus scale="   31.793">  2  3  1 -1</clus>
</clustering>
</event>
<event>
 6    0  0.1631680E+002  0.1661456E+03  0.7546771E-02  0.1181928E+00
         21   -1    0    0  503  502  0.00000000000E+00  0.00000000000E+00  0.97728234466E+03  0.97728234466E+03  0.00000000000E+00 0.  1.
         -4   -1    0    0    0  501 -0.00000000000E+00 -0.00000000000E+00 -0.76446274761E+02  0.76446274761E+02  0.00000000000E+00 0. -1.
         21    1    1    2  503  505  0.59780923280E+02  0.12927944186E+02  0.27867534980E+03  0.28530832641E+03  0.00000000000E+00 0.  1.
         21    1    1    2  504  501  0.60426908760E+02  0.33689527920E+02  0.35453445752E+02  0.77738937537E+02  0.00000000000E+00 0.  1.
         21    1    1    2  505  504  0.51075056870E+02  0.79524319499E+02  0.38884400998E+03  0.40016551941E+03  0.00000000000E+00 0.  1.
         -4    1    1    2    0  502 -0.17128288891E+03 -0.12614179160E+03  0.19786326436E+03  0.29051583607E+03  0.00000000000E+00 0. -1.
<scales pt_clust_3="47.29042" pt_clust_4="69.18378" pt_clust_5="47.29042" pt_clust_6="155.39798"></scales>
<clustering>
<clus scale="   47.290">  3  5 -1 -1</clus>
<clus scale="   69.184">  2  4  1 -1</clus>
<clus scale="  155.398">  2  6  1 -1</clus>
<clus scale="  166.146">  1  3  2 -1</clus>
</clustering>
</event>
<event>
 6    0  0.1631680E+002  0.1361103E+03  0.7546771E-02  0.1218661E+00
         21   -1    0    0  503  502  0.00000000000E+00  0.00000000000E+00  0.28512875303E+03  0.28512875303E+03  0.00000000000E+00 0.  1.
          2   -1    0    0  505    0 -0.00000000000E+00 -0.00000000000E+00 -0.28937438069E+03  0.28937438069E+03  0.00000000000E+00 0. -1.
         21    1    1    2  503  501 -0.92786188689E+02 -0.46046015772E+02  0.12155899140E+03  0.15970629533E+03  0.00000000000E+00 0. -1.
         21    1    1    2  504  502  0.13902422707E+03  0.10559361191E+03 -0.22600827826E+02  0.17603563278E+03  0.00000000000E+00 0.  1.
         21    1    1    2  505  504  0.48119404419E+02  0.10414238673E+02 -0.11060059208E+03  0.12106372048E+03  0.00000000000E+00 0.  1.
          2    1    1    2  501    0 -0.94357442800E+02 -0.69961834816E+02  0.73968008502E+01  0.11769748513E+03  0.00000000000E+00 0. -1.
<scales pt_clust_3="98.34606" pt_clust_4="136.11034" pt_clust_5="49.23346" pt_clust_6="14000.00000"></scales>
<clustering>
<clus scale="   49.233">  2  5  1 -1</clus>
<clus scale="   98.346">  1  3  2 -1</clus>
<clus scale="  136.110">  1  4  2 -1</clus>
<clus scale="   98.346">  1  3  2 -1</clus>
</clustering>
</event>
<event>
 6    0  0.1631680E+002  0.1512878E+03  0.7546771E-02  0.1198899E+00
          2   -1    0    0  502    0 -0.00000000000E+00  0.00000000000E+00  0.34331081392E+03  0.34331081392E+03  0.00000000000E+00 0.  1.
         21   -1    0    0  505  502  0.00000000000E+00 -0.00000000000E+00 -0.18697165487E+03  0.18697165487E+03  0.00000000000E+00 0. -1.
         21    1    1    2  503  504  0.79242366494E+00  0.16637489936E+03 -0.55440369919E+02  0.17537066371E+03  0.00000000000E+00 0. -1.
         21    1    1    2  504  501 -0.46729146287E+01 -0.36808572292E+02  0.13525191504E+03  0.14024902013E+03  0.00000000000E+00 0. -1.
         21    1    1    2  505  503 -0.11282018891E+02 -0.33360858709E+02 -0.46133203443E+02  0.58038808602E+02  0.00000000000E+00 0. -1.
          2    1    1    2  501    0  0.15162509855E+02 -0.96205468363E+02  0.12266081738E+03  0.15662397635E+03  0.00000000000E+00 0.  1.
<scales pt_clust_3="138.11649" pt_clust_4="37.67860" pt_clust_5="35.21691" pt_clust_6="37.67860"></scales>
<clustering>
<clus scale="   35.217">  2  5  1 -1</clus>
<clus scale="   37.679">  4  6 -1 -1</clus>
<clus scale="  138.116">  2  3  1 -1</clus>
<clus scale="   35.217">  2  3  1 -1</clus>
</clustering>
</event>
<event>
 6    0  0.1631680E+002  0.2033862E+03  0.7546771E-02  0.1146913E+00
         21   -1    0    0  504  502  0.00000000000E+00  0.00000000000E+00  0.10017447547E+03  0.10017447547E+03  0.00000000000E+00 0. -1.
         -2   -1    0    0    0  501 -0.00000000000E+00 -0.00000000000E+00 -0.78827487700E+03  0.78827487700E+03  0.00000000000E+00 0. -1.
         21    1    1    2  503  501  0.44243971230E+02  0.22692405017E+02 -0.25370121073E+03  0.25852810014E+03  0.00000000000E+00 0. -1.
         21    1    1    2  504  505 -0.84858724015E+02  0.10016894751E+03 -0.82199122312E+00  0.13128403085E+03  0.00000000000E+00 0. -1.
         21    1    1    2  505  503 -0.36619294760E+02  0.43498562660E+02 -0.61184169727E+02  0.83526045803E+02  0.00000000000E+00 0.  1.
         -2    1    1    2    0  502  0.77234047544E+02 -0.16635991519E+03 -0.37239302984E+03  0.41511117566E+03  0.00000000000E+00 0. -1.
<scales pt_clust_3="49.72398" pt_clust_4="54.39199" pt_clust_5="54.39199" pt_clust_6="185.64644"></scales>
<clustering>
<clus scale="   49.724">  2  3  1 -1</clus>
<clus scale="   54.392">  4  5 -1 -1</clus>
<clus scale="  185.646">  2  6  1 -1</clus>
<clus scale="  203.386">  1  3  2 -1</clus>
</clustering>
</event>
<event>
 6    0  0.1631680E+002  0.2578488E+03  0.7546771E-02  0.1108443E+00
          2   -1    0    0  504    0 -0.00000000000E+00  0.00000000000E+00  0.17446334399E+04  0.17446334399E+04  0.00000000000E+00 0.  1.
         21   -1    0    0  505  502  0.00000000000E+00 -0.00000000000E+00 -0.21362203129E+03  0.21362203129E+03  0.00000000000E+00 0. -1.
         21    1    1    2  503  502 -0.15493393040E+03 -0.16863740919E+02 -0.10582893018E+03  0.18838437039E+03  0.00000000000E+00 0. -1.
         21    1    1    2  504  503 -0.32456591185E+02 -0.61987850933E+01  0.15771520785E+03  0.16113951109E+03  0.00000000000E+00 0. -1.
         21    1    1    2  505  501 -0.96029249071E+02  0.10568764337E+03  0.52914845487E+02  0.15228747654E+03  0.00000000000E+00 0. -1.
          2    1    1    2  501    0  0.28341977065E+03 -0.82625117362E+02  0.14262102855E+04  0.14564441132E+04  0.00000000000E+00 0.  1.
<scales pt_clust_3="257.84884" pt_clust_4="33.04323" pt_clust_5="143.92611" pt_clust_6="14000.00000"></scales>
<clustering>
<clus scale="   33.043">  1  4  2 -1</clus>
<clus scale="  143.926">  2  5  1 -1</clus>
<clus scale="  257.849">  2  3  1 -1</clus>
<clus scale="  143.926">  2  3  1 -1</clus>
</clustering>
</event>
<event>
 6    0  0.1631680E+002  0.8536084E+02  0.7546771E-02  0.1314492E+00
         -4   -1    0    0    0  501 -0.00000000000E+00  0.00000000000E+00  0.71753455908E+03  0.71753455908E+03  0.00000000000E+00 0.  1.
         21   -1    0    0  504  502  0.00000000000E+00 -0.00000000000E+00 -0.18821921506E+03  0.18821921506E+03  0.00000000000E+00 0.  1.
         21    1    1    2  503  502  0.36098453762E+02 -0.58875091804E+02 -0.15896735606E+03  0.17332049819E+03  0.00000000000E+00 0.  1.
         21    1    1    2  504  505 -0.24825832889E+02  0.17542993102E+02  0.15516497929E+02  0.34129756717E+02  0.00000000000E+00 0.  1.
         21    1    1    2  505  501  0.24810772389E+01 -0.56892836662E+02  0.85552528042E+02  0.10277249468E+03  0.00000000000E+00 0.  1.
         -4    1    1    2    0  503 -0.13753698112E+02  0.98224935363E+02  0.58721367412E+03  0.59553102456E+03  0.00000000000E+00 0.  1.
<scales pt_clust_3="44.53720" pt_clust_4="30.39866" pt_clust_5="85.36084" pt_clust_6="14000.00000"></scales>
<clustering>
<clus scale="   30.399">  2  4  1 -1</clus>
<clus scale="   44.537">  2  3  1 -1</clus>
<clus scale="   85.361">  2  5  1 -1</clus>
<clus scale="   30.399">  2  3  1 -1</clus>
</clustering>
</event>
<event>
 6    0  0.1631680E+002  0.1167018E+03  0.7546771E-02  0.1248639E+00
         21   -1    0    0  505  502  0.00000000000E+00  0.00000000000E+00  0.49992323102E+02  0.49992323102E+02  0.00000000000E+00 0. -1.
          2   -1    0    0  503    0 -0.00000000000E+00 -0.00000000000E+00 -0.55873106506E+03  0.55873106506E+03  0.00000000000E+00 0.  1.
         21    1    1    2  503  504 -0.16815555205E+02 -0.38355695574E+02 -0.89549947723E+02  0.98859068462E+02  0.00000000000E+00 0.  1.
         21    1    1    2  504  502  0.50258678039E+02 -0.10748381916E+03 -0.15929542276E+03  0.19862964988E+03  0.00000000000E+00 0. -1.
         21    1    1    2  505  501  0.44386990603E+01  0.74152687948E+02 -0.59888216906E+02  0.95419713390E+02  0.00000000000E+00 0. -1.
          2    1    1    2  501    0 -0.37881821894E+02  0.71686826785E+02 -0.20000515456E+03  0.21581495643E+03  0.00000000000E+00 0.  1.
<scales pt_clust_3="38.44684" pt_clust_4="38.44684" pt_clust_5="74.28542" pt_clust_6="97.11537"></scales>
<clustering>
<clus scale="   38.447">  3  4 -1 -1</clus>
<clus scale="   74.285">  1  5  2 -1</clus>
<clus scale="   97.115">  2  6  1 -1</clus>
<clus scale="   74.285">  1  3  2 -1</clus>
</clustering>
</event>
<event>
 6    0  0.1631680E+002  0.6586783E+02  0.7546771E-02  0.1374736E+00
         21   -1    0    0  504  502  0.00000000000E+00  0.00000000000E+00  0.72872213457E+02  0.72872213457E+02  0.00000000000E+00 0.  1.
          1   -1    0    0  505    0 -0.00000000000E+00 -0.00000000000E+00 -0.11592084501E+04  0.11592084501E+04  0.00000000000E+00 0. -1.
         21    1    1    2  503  502 -0.24804284084E+02  0.44723339606E+02  0.14567232853E+02  0.53175500820E+02  0.00000000000E+00 0.  1.
         21    1    1    2  504  501  0.59571241583E+02 -0.54005450842E+02 -0.16073116568E+02  0.81997967174E+02  0.00000000000E+00 0.  1.
         21    1    1    2  505  503  0.22207231693E+01 -0.51807664987E+02 -0.13855241665E+03  0.14793829092E+03  0.00000000000E+00 0.  1.
          1    1    1    2  501    0 -0.36987680669E+02  0.61089776223E+02 -0.94627793630E+03  0.94896890466E+03  0.00000000000E+00 0. -1.
<scales pt_clust_3="51.14127" pt_clust_4="41.87099" pt_clust_5="65.86783" pt_clust_6="14000.00000"></scales>
<clustering>
<clus scale="   51.141">  1  3  2 -1</clus>
<clus scale="   41.871">  1  4  2 -1</clus>
<clus scale="   65.868">  1  5  2 -1</clus>
<clus scale="   51.141">  1  3  2 -1</clus>
</clustering>
</event>
<event>
 6    0  0.1631680E+002  0.2101726E+03  0.7546771E-02  0.1141429E+00
          4   -1    0    0  503    0 -0.00000000000E+00  0.00000000000E+00  0.20803983698E+04  0.20803983698E+04  0.00000000000E+00 0. -1.
         21   -1    0    0  501  502  0.00000000000E+00 -0.00000000000E+00 -0.30477234589E+02  0.30477234589E+02  0.00000000000E+00 0.  1.
         21    1    1    2  503  505 -0.28764682363E+02 -0.13348893544E+03  0.51899254773E+03  0.53665628426E+03  0.00000000000E+00 0.  1.
         21    1    1    2  504  502  0.54945169758E+02 -0.33118519137E+02  0.14543490020E+03  0.15895634050E+03  0.00000000000E+00 0.  1.
         21    1    1    2  505  504  0.42051320420E+01 -0.41610126993E+02  0.59800983590E+02  0.72974265615E+02  0.00000000000E+00 0.  1.
          4    1    1    2  501    0 -0.30385619437E+02  0.20821758157E+03  0.13256927037E+04  0.13422887140E+04  0.00000000000E+00 0. -1.
<scales pt_clust_3="40.60963" pt_clust_4="64.15456" pt_clust_5="40.60963" pt_clust_6="196.94649"></scales>
<clustering>
<clus scale="   40.610">  3  5 -1 -1</clus>
<clus scale="   64.155">  2  4  1 -1</clus>
<clus scale="  196.946">  1  6  2 -1</clus>
<clus scale="   64.155">  2  3  1 -1</clus>
</clustering>
</event>
<event>
 6    0  0.1631680E+002  0.1281414E+03  0.7546771E-02  0.1230240E+00
         21   -1    0    0  504  502  0.00000000000E+00  0.00000000000E+00  0.17543482434E+03  0.17543482434E+03  0.00000000000E+00 0.  1.
          2   -1    0    0  503    0 -0.00000000000E+00 -0.00000000000E+00 -0.13499518916E+04  0.13499518916E+04  0.00000000000E+00 0.  1.
         21    1    1    2  503  505 -0.59955375338E+01  0.41289648551E+02 -0.86843636725E+02  0.96346244283E+02  0.00000000000E+00 0. -1.
         21    1    1    2  504  501  0.10607322440E+03  0.68396307305E+02  0.11975199335E+03  0.17398311325E+03  0.00000000000E+00 0.  1.
         21    1    1    2  505  502  0.99938037921E+02 -0.56229505576E+02 -0.24351671278E+03  0.26916492736E+03  0.00000000000E+00 0.  1.
          2    1    1    2  501    0 -0.20001572479E+03 -0.53456450280E+02 -0.96390871114E+03  0.98589243107E+03  0.00000000000E+00 0.  1.
<scales pt_clust_3="41.72267" pt_clust_4="128.14141" pt_clust_5="109.68855" pt_clust_6="14000.00000"></scales>
<clustering>
<clus scale="   41.723">  2  3  1 -1</clus>
<clus scale="  109.689">  2  5  1 -1</clus>
<clus scale="  128.141">  1  4  2 -1</clus>
<clus scale="  128.141">  1  3  2 -1</clus>
</clustering>
</event>
<event>
 6    0  0.1631680E+002  0.8642985E+02  0.7546771E-02  0.1311735E+00
         -2   -1    0    0    0  501 -0.00000000000E+00  0.00000000000E+00  0.83192742718E+02  0.83192742718E+02  0.00000000000E+00 0.  1.
         21   -1    0    0  504  502  0.00000000000E+00 -0.00000000000E+00 -0.11033623600E+04  0.11033623600E+04  0.00000000000E+00 0.  1.
         21    1    1    2  503  501 -0.49108225841E+02  0.78193786767E+02  0.25653546720E+02  0.95833139328E+02  0.00000000000E+00 0.  1.
         21    1    1    2  504  505 -0.12222210893E+01  0.36648690994E+02 -0.38147569943E+03  0.38323404029E+03  0.00000000000E+00 0.  1.
         21    1    1    2  505  503  0.19509147085E+02 -0.11839982345E+03 -0.66570386311E+03  0.67643237531E+03  0.00000000000E+00 0.  1.
         -2    1    1    2    0  502  0.30821299846E+02  0.35573456895E+01  0.13563985244E+01  0.31055547805E+02  0.00000000000E+00 0.  1.
<scales pt_clust_3="86.42985" pt_clust_4="36.70449" pt_clust_5="14000.00000" pt_clust_6="31.02591"></scales>
<clustering>
<clus scale="   31.026">  1  6  2 -1</clus>
<clus scale="   36.704">  2  4  1 -1</clus>
<clus scale="   86.430">  1  3  2 -1</clus>
<clus scale="   36.704">  2  3  1 -1</clus>
</clustering>
</event>
<event>
 6    0  0.1631680E+002  0.1336850E+03  0.7546771E-02  0.1222088E+00
         21   -1    0    0  501  502  0.00000000000E+00  0.00000000000E+00  0.12760089360E+02  0.12760089360E+02  0.00000000000E+00 0.  1.
          2   -1    0    0  503    0 -0.00000000000E+00 -0.00000000000E+00 -0.30840150572E+04  0.30840150572E+04  0.00000000000E+00 0.  1.
         21    1    1    2  503  505 -0.43095277732E+02 -0.49065199533E+02 -0.76026397988E+03  0.76306350710E+03  0.00000000000E+00 0.  1.
         21    1    1    2  504  502  0.76193987130E+01 -0.90980339865E+02 -0.36089028013E+03  0.37225968325E+03  0.00000000000E+00 0.  1.
         21    1    1    2  505  504 -0.35636334324E+02 -0.10760307902E+02 -0.20063801599E+03  0.20406211312E+03  0.00000000000E+00 0.  1.
          2    1    1    2  501    0  0.71112213343E+02  0.15080584730E+03 -0.17494626919E+04  0.17573898431E+04  0.00000000000E+00 0.  1.
<scales pt_clust_3="35.58603" pt_clust_4="91.29884" pt_clust_5="35.58603" pt_clust_6="125.10048"></scales>
<clustering>
<clus scale="   35.586">  3  5 -1 -1</clus>
<clus scale="   91.299">  1  4  2 -1</clus>
<clus scale="  125.100">  1  6  2 -1</clus>
<clus scale="   91.299">  1  3  2 -1</clus>
</clustering>
</event>
<event>
 6    0  0.1631680E+002  0.9154449E+02  0.7546771E-02  0.1299154E+00
         -1   -1    0    0    0  501 -0.00000000000E+00  0.00000000000E+00  0.19219999332E+03  0.19219999332E+03  0.00000000000E+00 0. -1.
         21   -1    0    0  505  502  0.00000000000E+00 -0.00000000000E+00 -0.13655595153E+03  0.13655595153E+03  0.00000000000E+00 0. -1.
         21    1    1    2  503  502  0.95885471916E+02  0.76282922592E+01 -0.30334890040E+02  0.10085841621E+03  0.00000000000E+00 0.  1.
         21    1    1    2  504  501  0.12730881987E+02  0.36396152221E+02  0.72986442077E+02  0.82545599396E+02  0.00000000000E+00 0. -1.
         21    1    1    2  505  504 -0.23263885279E+02 -0.53564261121E+02 -0.58701129110E+00  0.58401053158E+02  0.00000000000E+00 0. -1.
         -1    1    1    2    0  503 -0.85352468624E+02  0.95398166412E+01  0.13579501042E+02  0.86950876076E+02  0.00000000000E+00 0. -1.
<scales pt_clust_3="14000.00000" pt_clust_4="38.55847" pt_clust_5="48.68924" pt_clust_6="91.54449"></scales>
<clustering>
<clus scale="   38.558">  1  4  2 -1</clus>
<clus scale="   48.689">  1  5  2 -1</clus>
<clus scale="   91.544">  1  6  2 -1</clus>
<clus scale="   91.544">  2  3  1 -1</clus>
</clustering>
</event>
<event>
 6    0  0.1631680E+002  0.1428037E+03  0.7546771E-02  0.1209605E+00
         21   -1    0    0  501  502  0.00000000000E+00  0.00000000000E+00  0.97014327326E+02  0.97014327326E+02  0.00000000000E+00 0.  1.
          1   -1    0    0  505    0 -0.00000000000E+00 -0.00000000000E+00 -0.26286249129E+04  0.26286249129E+04  0.00000000000E+00 0. -1.
         21    1    1    2  503  502  0.26987567340E+02 -0.13815993044E+03  0.25373203276E+02  0.14303948620E+03  0.00000000000E+00 0.  1.
         21    1    1    2  504  503  0.76208089946E+02 -0.75263629610E+02 -0.90734237136E+03  0.91364241680E+03  0.00000000000E+00 0.  1.
         21    1    1    2  505  504 -0.18263150896E+02  0.29876734007E+02 -0.95604257600E+02  0.10181520509E+03  0.00000000000E+00 0. -1.
          1    1    1    2  501    0 -0.84932506390E+02  0.18354682604E+03 -0.15540371598E+04  0.15671421321E+04  0.00000000000E+00 0. -1.
<scales pt_clust_3="14000.00000" pt_clust_4="94.92517" pt_clust_5="35.01659" pt_clust_6="142.80368"></scales>
<clustering>
<clus scale="   35.017">  2  5  1 -1</clus>
<clus scale="   94.925">  2  4  1 -1</clus>
<clus scale="  142.804">  2  6  1 -1</clus>
<clus scale="  142.804">  1  3  2 -1</clus>
</clustering>
</event>
<event>
 6    0  0.1631680E+002  0.7055738E+02  0.7546771E-02  0.1358208E+00
         21   -1    0    0  503  502  0.00000000000E+00  0.00000000000E+00  0.13250516054E+03  0.13250516054E+03  0.00000000000E+00 0. -1.
          1   -1    0    0  504    0 -0.00000000000E+00 -0.00000000000E+00 -0.19915622601E+04  0.19915622601E+04  0.00000000000E+00 0.  1.
         21    1    1    2  503  501 -0.14901296063E+02 -0.56413676326E+02  0.44789953021E+02  0.73557402025E+02  0.00000000000E+00 0.  1.
         21    1    1    2  504  505  0.52011754801E+02  0.10676946468E+02 -0.28690854398E+03  0.29178028109E+03  0.00000000000E+00 0. -1.
         21    1    1    2  505  502  0.79370118060E+02  0.75693315981E+02  0.24919468844E+02  0.11247254622E+03  0.00000000000E+00 0. -1.
          1    1    1    2  501    0 -0.11648057680E+03 -0.29956586123E+02 -0.16418579774E+04  0.16462571913E+04  0.00000000000E+00 0.  1.
<scales pt_clust_3="58.15045" pt_clust_4="53.09633" pt_clust_5="70.55738" pt_clust_6="14000.00000"></scales>
<clustering>
<clus scale="   53.096">  2  4  1 -1</clus>
<clus scale="   58.150">  1  3  2 -1</clus>
<clus scale="   70.557">  1  5  2 -1</clus>
<clus scale="   58.150">  1  3  2 -1</clus>
</clustering>
</event>
<event>
 6    0  0.1631680E+002  0.9236726E+02  0.7546771E-02  0.1297218E+00
         21   -1    0    0  505  502  0.00000000000E+00  0.00000000000E+00  0.22962137009E+03  0.22962137009E+03  0.00000000000E+00 0.  1.
          3   -1    0    0  503    0 -0.00000000000E+00 -0.00000000000E+00 -0.33434745585E+03  0.33434745585E+03  0.00000000000E+00 0.  1.
         21    1    1    2  503  504 -0.84211888393E+02  0.30441876133E+02  0.77235713978E+02  0.11825271871E+03  0.00000000000E+00 0.  1.
         21    1    1    2  504  502  0.19692875907E+02  0.50104339691E+02  0.87309825552E+02  0.10257319267E+03  0.00000000000E+00 0.  1.
         21    1    1    2  505  501 -0.13047585017E+02 -0.29705048775E+02  0.20844519573E+02  0.38563238891E+02  0.00000000000E+00 0. -1.
          3    1    1    2  501    0  0.77566597503E+02 -0.50841167048E+02 -0.29011614487E+03  0.30457967566E+03  0.00000000000E+00 0.  1.
<scales pt_clust_3="14000.00000" pt_clust_4="38.44428" pt_clust_5="32.44425" pt_clust_6="92.36726"></scales>
<clustering>
<clus scale="   32.444">  1  5  2 -1</clus>
<clus scale="   38.444">  1  4  2 -1</clus>
<clus scale="   92.367">  2  6  1 -1</clus>
<clus scale="   32.444">  1  3  2 -1</clus>
</clustering>
</event>
<event>
 6    0  0.1631680E+002  0.2251540E+03  0.7546771E-02  0.1130098E+00
         21   -1    0    0  504  502  0.00000000000E+00  0.00000000000E+00  0.36451463886E+03  0.36451463886E+03  0.00000000000E+00 0.  1.
         -4   -1    0    0    0  501 -0.00000000000E+00 -0.00000000000E+00 -0.78484139037E+03  0.78484139037E+03  0.00000000000E+00 0.  1.
         21    1    1    2  503  505  0.15852695446E+03 -0.12385010338E+03  0.40812272566E+02  0.20526881153E+03  0.00000000000E+00 0.  1.
         21    1    1    2  504  503 -0.17618824826E+02 -0.58082364235E+02  0.20445324256E+03  0.21327239018E+03  0.00000000000E+00 0.  1.
         21    1    1    2  505  501 -0.31731407718E+02 -0.41284941931E+02 -0.92032077907E+02  0.10574134494E+03  0.00000000000E+00 0. -1.
         -4    1    1    2    0  502 -0.10917672192E+03  0.22321740954E+03 -0.57356018872E+03  0.62507348257E+03  0.00000000000E+00 0.  1.
<scales pt_clust_3="225.15396" pt_clust_4="61.00913" pt_clust_5="52.07042" pt_clust_6="14000.00000"></scales>
<clustering>
<clus scale="   52.070">  2  5  1 -1</clus>
<clus scale="   61.009">  1  4  2 -1</clus>
<clus scale="  225.154">  1  3  2 -1</clus>
<clus scale="   61.009">  1  3  2 -1</clus>
</clustering>
</event>
<event>
 6    0  0.1631680E+002  0.1131175E+03  0.7546771E-02  0.1254903E+00
         -2   -1    0    0    0  501 -0.00000000000E+00  0.00000000000E+00  0.89173983187E+03  0.89173983187E+03  0.00000000000E+00 0. -1.
         21   -1    0    0  504  502  0.00000000000E+00 -0.00000000000E+00 -0.62857370659E+02  0.62857370659E+02  0.00000000000E+00 0. -1.
         21    1    1    2  503  502  0.35107861458E+01 -0.32322838901E+02 -0.23562031691E+02  0.40152968401E+02  0.00000000000E+00 0. -1.
         21    1    1    2  504  505  0.76788438076E+02 -0.48595722660E+02  0.91326124296E+02  0.12883504749E+03  0.00000000000E+00 0.  1.
         21    1    1    2  505  501  0.13392564573E+02 -0.39277568910E+02  0.19252202957E+03  0.19694369773E+03  0.00000000000E+00 0. -1.
         -2    1    1    2    0  503 -0.93691788794E+02  0.12019613047E+03  0.56859633904E+03  0.58866548891E+03  0.00000000000E+00 0. -1.
<scales pt_clust_3="32.51294" pt_clust_4="14000.00000" pt_clust_5="43.76363" pt_clust_6="113.11755"></scales>
<clustering>
<clus scale="   32.513">  2  3  1 -1</clus>
<clus scale="   43.764">  1  5  2 -1</clus>
<clus scale="  113.118">  1  6  2 -1</clus>
<clus scale="   32.513">  2  3  1 -1</clus>
</clustering>
</event>
<event>
 6    0  0.1631680E+002  0.1339168E+03  0.7546771E-02  0.1221757E+00
          2   -1    0    0  504    0 -0.00000000000E+00  0.00000000000E+00  0.15334243121E+03  0.15334243121E+03  0.00000000000E+00 0.  1.
         21   -1    0    0  505  502  0.00000000000E+00 -0.00000000000E+00 -0.16009461089E+04  0.16009461089E+04  0.00000000000E+00 0.  1.
         21    1    1    2  503  502 -0.25739145124E+02  0.24696416398E+02 -0.11551641668E+04  0.11557147870E+04  0.00000000000E+00 0.  1.
         21    1    1    2  504  503 -0.98384920025E+02 -0.28648581016E+02 -0.40788304964E+03  0.42055786269E+03  0.00000000000E+00 0. -1.
         21    1    1    2  505  501  0.37724808271E+02  0.23932988807E+02  0.24330282300E+02  0.50871521985E+02  0.00000000000E+00 0.  1.
          2    1    1    2  501    0  0.86399256878E+02 -0.19980824189E+02  0.91113256469E+02  0.12714436845E+03  0.00000000000E+00 0.  1.
<scales pt_clust_3="35.67095" pt_clust_4="122.44862" pt_clust_5="38.65218" pt_clust_6="38.65218"></scales>
<clustering>
<clus scale="   35.671">  2  3  1 -1</clus>
<clus scale="   38.652">  5  6 -1 -1</clus>
<clus scale="  122.449">  2  4  1 -1</clus>
<clus scale="   35.671">  2  3  1 -1</clus>
</clustering>
</event>
<event>
 6    0  0.1631680E+002  0.1071513E+03  0.7546771E-02  0.1265938E+00
          2   -1    0    0  503    0 -0.00000000000E+00  0.00000000000E+00  0.41540979840E+03  0.41540979840E+03  0.00000000000E+00 0.  1.
         21   -1    0    0  504  502  0.00000000000E+00 -0.00000000000E+00 -0.39551765784E+03  0.39551765784E+03  0.00000000000E+00 0. -1.
         21    1    1    2  503  502  0.11646498183E+02 -0.46673724164E+02  0.36508936600E+02  0.60390230162E+02  0.00000000000E+00 0. -1.
         21    1    1    2  504  505  0.56122417244E+02  0.61663940038E+02 -0.23390737464E+03  0.24832403655E+03  0.00000000000E+00 0. -1.
         21    1    1    2  505  501  0.56373598716E+02 -0.69195879510E+02 -0.11371710806E+03  0.14456013641E+03  0.00000000000E+00 0. -1.
          2    1    1    2  501    0 -0.12414251414E+03  0.54205663636E+02  0.33100768665E+03  0.35765305312E+03  0.00000000000E+00 0.  1.
<scales pt_clust_3="48.10486" pt_clust_4="82.85933" pt_clust_5="14000.00000" pt_clust_6="107.15133"></scales>
<clustering>
<clus scale="   48.105">  1  3  2 -1</clus>
<clus scale="   82.859">  2  4  1 -1</clus>
<clus scale="  107.151">  1  6  2 -1</clus>
<clus scale="   82.859">  2  3  1 -1</clus>
</clustering>
</event>
<event>
 6    0  0.1631680E+002  0.8425612E+02  0.7546771E-02  0.1317389E+00
          2   -1    0    0  505    0 -0.00000000000E+00  0.00000000000E+00  0.46486051939E+03  0.46486051939E+03  0.00000000000E+00 0. -1.
         21   -1    0    0  503  502  0.00000000000E+00 -0.00000000000E+00 -0.13007458671E+03  0.13007458671E+03  0.00000000000E+00 0.  1.
         21    1    1    2  503  501 -0.22421585237E+02 -0.29691619466E+02 -0.45291640558E+02  0.58614438968E+02  0.00000000000E+00 0.  1.
         21    1    1    2  504  502  0.26185445027E+02  0.59767143601E+02 -0.42946268428E+02  0.78116393653E+02  0.00000000000E+00 0.  1.
         21    1    1    2  505  504 -0.76003864777E+01  0.65492263474E+02  0.89027634255E+02  0.11078322125E+03  0.00000000000E+00 0. -1.
          2    1    1    2  501    0  0.38365266877E+01 -0.95567787610E+02  0.33399620741E+03  0.34742105223E+03  0.00000000000E+00 0. -1.
<scales pt_clust_3="37.20645" pt_clust_4="37.80254" pt_clust_5="84.25612" pt_clust_6="14000.00000"></scales>
<clustering>
<clus scale="   37.206">  2  3  1 -1</clus>
<clus scale="   37.803">  2  4  1 -1</clus>
<clus scale="   84.256">  2  5  1 -1</clus>
<clus scale="   37.206">  2  3  1 -1</clus>
</clustering>
</event>
<event>
 6    0  0.1631680E+002  0.5964726E+02  0.7546771E-02  0.1399318E+00
         21   -1    0    0  503  502  0.00000000000E+00  0.00000000000E+00  0.26565497667E+03  0.26565497667E+03  0.00000000000E+00 0.  1.
          2   -1    0    0  505    0 -0.00000000000E+00 -0.00000000000E+00 -0.31168315914E+04  0.31168315914E+04  0.00000000000E+00 0.  1.
         21    1    1    2  503  501  0.80513084477E+02 -0.22303307067E+02  0.23886550711E+03  0.25305439092E+03  0.00000000000E+00 0.  1.
         21    1    1    2  504  502 -0.33653766604E+02 -0.21398833726E+02 -0.42272667145E+01  0.40104312428E+02  0.00000000000E+00 0.  1.
         21    1    1    2  505  504 -0.61025783300E+02 -0.21604911870E+02 -0.82900305115E+03  0.83152689509E+03  0.00000000000E+00 0.  1.
          2    1    1    2  501    0  0.14166465427E+02  0.65307052663E+02 -0.22568118040E+04  0.22578009696E+04  0.00000000000E+00 0.  1.
<scales pt_clust_3="64.14713" pt_clust_4="39.88090" pt_clust_5="14000.00000" pt_clust_6="59.64726"></scales>
<clustering>
<clus scale="   39.881">  1  4  2 -1</clus>
<clus scale="   64.147">  1  3  2 -1</clus>
<clus scale="   59.647">  2  6  1 -1</clus>
<clus scale="   39.881">  1  3  2 -1</clus>
</clustering>
</event>
<event>
 6    0  0.1631680E+002  0.8124612E+02  0.7546771E-02  0.1325552E+00
         21   -1    0    0  503  502  0.00000000000E+00  0.00000000000E+00  0.35256742974E+03  0.35256742974E+03  0.00000000000E+00 0.  1.
          2   -1    0    0  504    0 -0.00000000000E+00 -0.00000000000E+00 -0.71246353313E+03  0.71246353313E+03  0.00000000000E+00 0.  1.
         21    1    1    2  503  501  0.22139136355E+02 -0.79721745116E+02  0.72537009044E+02  0.11003324808E+03  0.00000000000E+00 0.  1.
         21    1    1    2  504  505 -0.34976897283E+02 -0.49004221744E+02 -0.93019102936E+02  0.11080320665E+03  0.00000000000E+00 0.  1.
         21    1    1    2  505  502  0.40469763532E+02  0.26213008577E+02  0.24526202311E+03  0.24995676338E+03  0.00000000000E+00 0.  1.
          2    1    1    2  501    0 -0.27632002603E+02  0.10251295828E+03 -0.58467603261E+03  0.59423774476E+03  0.00000000000E+00 0.  1.
<scales pt_clust_3="81.24612" pt_clust_4="56.42682" pt_clust_5="48.21746" pt_clust_6="14000.00000"></scales>
<clustering>
<clus scale="   48.217">  1  5  2 -1</clus>
<clus scale="   56.427">  2  4  1 -1</clus>
<clus scale="   81.246">  1  3  2 -1</clus>
<clus scale="   48.217">  1  3  2 -1</clus>
</clustering>
</event>
<event>
 6    0  0.1631680E+002  0.9629338E+02  0.7546771E-02  0.1288289E+00
         21   -1    0    0  504  502  0.00000000000E+00  0.00000000000E+00  0.42510668457E+03  0.42510668457E+03  0.00000000000E+00 0. -1.
          2   -1    0    0  505    0 -0.00000000000E+00 -0.00000000000E+00 -0.21287339155E+03  0.21287339155E+03  0.00000000000E+00 0.  1.
         21    1    1    2  503  501  0.78516349323E+02 -0.69694528707E+01  0.17127457783E+02  0.80664367563E+02  0.00000000000E+00 0. -1.
         21    1    1    2  504  503  0.32954315013E+02 -0.38791515080E+02  0.16919228707E+03  0.17668276239E+03  0.00000000000E+00 0.  1.
         21    1    1    2  505  502 -0.16923737509E+03 -0.27518363665E+02  0.14832474219E+03  0.22671298730E+03  0.00000000000E+00 0. -1.
          2    1    1    2  501    0  0.57766710753E+02  0.73279331615E+02 -0.12241119403E+03  0.15391995887E+03  0.00000000000E+00 0.  1.
<scales pt_clust_3="86.13398" pt_clust_4="50.89959" pt_clust_5="14000.00000" pt_clust_6="96.29338"></scales>
<clustering>
<clus scale="   50.900">  1  4  2 -1</clus>
<clus scale="   86.134">  1  3  2 -1</clus>
<clus scale="   96.293">  2  6  1 -1</clus>
<clus scale="   50.900">  1  3  2 -1</clus>
</clustering>
</event>
<event>
 6    0  0.1631680E+002  0.1486381E+03  0.7546771E-02  0.1202157E+00
          2   -1    0    0  504    0 -0.00000000000E+00  0.00000000000E+00  0.53218179613E+03  0.53218179613E+03  0.00000000000E+00 0. -1.
         21   -1    0    0  505  502  0.00000000000E+00 -0.00000000000E+00 -0.19948081981E+04  0.19948081981E+04  0.00000000000E+00 0. -1.
         21    1    1    2  503  502  0.15293884209E+03  0.39864025404E+02  0.77723224543E+02  0.17612589127E+03  0.00000000000E+00 0.  1.
         21    1    1    2  504  503 -0.41859023119E+02 -0.20719657745E+02  0.64415115568E+02  0.79566256335E+02  0.00000000000E+00 0.  1.
         21    1    1    2  505  501  0.15229736934E+01 -0.12382204779E+03 -0.19181968366E+04  0.19221897208E+04  0.00000000000E+00 0. -1.
          2    1    1    2  501    0 -0.11260279267E+03  0.10467768013E+03  0.31343209451E+03  0.34910812580E+03  0.00000000000E+00 0. -1.
<scales pt_clust_3="14000.00000" pt_clust_4="46.70634" pt_clust_5="123.91920" pt_clust_6="148.63813"></scales>
<clustering>
<clus scale="   46.706">  1  4  2 -1</clus>
<clus scale="  123.919">  2  5  1 -1</clus>
<clus scale="  148.638">  1  6  2 -1</clus>
<clus scale="  123.919">  2  3  1 -1</clus>
</clustering>
</event>
<event>
 6    0  0.1631680E+002  0.6835258E+02  0.7546771E-02  0.1365786E+00
          1   -1    0    0  505    0 -0.00000000000E+00  0.00000000000E+00  0.27201108961E+03  0.27201108961E+03  0.00000000000E+00 0.  1.
         21   -1    0    0  504  502  0.00000000000E+00 -0.00000000000E+00 -0.65572307446E+03  0.65572307446E+03  0.00000000000E+00 0.  1.
         21    1    1    2  503  502  0.56877943893E+02  0.37468695098E+02 -0.39192064417E+03  0.39779491568E+03  0.00000000000E+00 0.  1.
         21    1    1    2  504  501  0.10926558993E+02 -0.30504133458E+02 -0.22557298976E+03  0.22788827429E+03  0.00000000000E+00 0.  1.
         21    1    1    2  505  503  0.43346704451E+02 -0.14513913690E+02  0.30292387888E+01  0.45812299277E+02  0.00000000000E+00 0.  1.
          1    1    1    2  501    0 -0.11115120734E+03  0.75493520497E+01  0.23075241031E+03  0.25623867481E+03  0.00000000000E+00 0.  1.
<scales pt_clust_3="68.35258" pt_clust_4="32.40203" pt_clust_5="46.72889" pt_clust_6="14000.00000"></scales>
<clustering>
<clus scale="   32.402">  2  4  1 -1</clus>
<clus scale="   46.729">  1  5  2 -1</clus>
<clus scale="   68.353">  2  3  1 -1</clus>
<clus scale="   32.402">  2  3  1 -1</clus>
</clustering>
</event>
<event>
 6    0  0.1631680E+002  0.1132012E+03  0.7546771E-02  0.1254754E+00
          2   -1    0    0  504    0 -0.00000000000E+00  0.00000000000E+00  0.78835221821E+03  0.78835221821E+03  0.00000000000E+00 0. -1.
         21   -1    0    0  505  502  0.00000000000E+00 -0.00000000000E+00 -0.12804144300E+03  0.12804144300E+03  0.00000000000E+00 0.  1.
         21    1    1    2  503  502 -0.53127707048E+02  0.87093564720E+02 -0.79035110455E+02  0.12905189249E+03  0.00000000000E+00 0.  1.
         21    1    1    2  504  503 -0.44366936359E+02 -0.29097316032E+02  0.22505049464E+03  0.23122024993E+03  0.00000000000E+00 0.  1.
         21    1    1    2  505  501  0.30162915142E+02  0.27207465344E+02  0.12195593909E+02  0.42412028142E+02  0.00000000000E+00 0.  1.
          2    1    1    2  501    0  0.67331728265E+02 -0.85203714032E+02  0.50209979712E+03  0.51370949065E+03  0.00000000000E+00 0. -1.
<scales pt_clust_3="113.20122" pt_clust_4="51.96104" pt_clust_5="40.62078" pt_clust_6="14000.00000"></scales>
<clustering>
<clus scale="   40.621">  2  5  1 -1</clus>
<clus scale="   51.961">  1  4  2 -1</clus>
<clus scale="  113.201">  2  3  1 -1</clus>
<clus scale="   40.621">  2  3  1 -1</clus>
</clustering>
</event>
<event>
 6    0  0.1631680E+002  0.1601740E+03  0.7546771E-02  0.1188500E+00
         21   -1    0    0  504  502  0.00000000000E+00  0.00000000000E+00  0.75870768953E+02  0.75870768953E+02  0.00000000000E+00 0. -1.
          2   -1    0    0  505    0 -0.00000000000E+00 -0.00000000000E+00 -0.16474331297E+04  0.16474331297E+04  0.00000000000E+00 0. -1.
         21    1    1    2  503  501 -0.11091748386E+03 -0.34178168546E+02 -0.43891446303E+03  0.45400081639E+03  0.00000000000E+00 0. -1.
         21    1    1    2  504  503 -0.46260657847E+01 -0.47330487249E+02 -0.10350074810E+03  0.11390338171E+03  0.00000000000E+00 0. -1.
         21    1    1    2  505  502  0.16393795655E+03  0.12345238414E+03 -0.10776782686E+03  0.23179743150E+03  0.00000000000E+00 0. -1.
          2    1    1    2  501    0 -0.48394406905E+02 -0.41943728346E+02 -0.92137932274E+03  0.92360226902E+03  0.00000000000E+00 0. -1.
<scales pt_clust_3="14000.00000" pt_clust_4="47.55602" pt_clust_5="160.17402" pt_clust_6="64.58593"></scales>
<clustering>
<clus scale="   47.556">  1  4  2 -1</clus>
<clus scale="   64.586">  2  6  1 -1</clus>
<clus scale="  160.174">  1  5  2 -1</clus>
<clus scale="   47.556">  1  3  2 -1</clus>
</clustering>
</event>
<event>
 6    0  0.1631680E+002  0.8304917E+02  0.7546771E-02  0.1320614E+00
          3   -1    0    0  504    0 -0.00000000000E+00  0.00000000000E+00  0.14615551693E+04  0.14615551693E+04  0.00000000000E+00 0. -1.
         21   -1    0    0  501  502  0.00000000000E+00 -0.00000000000E+00 -0.36517999861E+02  0.36517999861E+02  0.00000000000E+00 0. -1.
         21    1    1    2  503  505  0.40214942765E+02 -0.10208169980E+02  0.20410213315E+03  0.20827656880E+03  0.00000000000E+00 0. -1.
         21    1    1    2  504  503  0.61741530399E+02  0.37884766769E+02  0.67720940627E+03  0.68107257475E+03  0.00000000000E+00 0. -1.
         21    1    1    2  505  502 -0.55089834829E+01  0.36323024560E+02 -0.13848633339E+02  0.39261885558E+02  0.00000000000E+00 0. -1.
          3    1    1    2  501    0 -0.96447489681E+02 -0.63999621349E+02  0.55757426338E+03  0.56946214008E+03  0.00000000000E+00 0. -1.
<scales pt_clust_3="39.14713" pt_clust_4="14000.00000" pt_clust_5="36.73841" pt_clust_6="83.04917"></scales>
<clustering>
<clus scale="   36.738">  2  5  1 -1</clus>
<clus scale="   39.147">  2  3  1 -1</clus>
<clus scale="   83.049">  2  6  1 -1</clus>
<clus scale="   36.738">  2  3  1 -1</clus>
</clustering>
</event>
<event>
 6    0  0.1631680E+002  0.2610616E+03  0.7546771E-02  0.1106507E+00
          2   -1    0    0  505    0 -0.00000000000E+00  0.00000000000E+00  0.47127424749E+03  0.47127424749E+03  0.00000000000E+00 0. -1.
         21   -1    0    0  503  502  0.00000000000E+00 -0.00000000000E+00 -0.80094524851E+03  0.80094524851E+03  0.00000000000E+00 0.  1.
         21    1    1    2  503  504  0.71465501929E+02  0.96276035822E+02 -0.34535863113E+03  0.36558032925E+03  0.00000000000E+00 0.  1.
         21    1    1    2  504  501  0.13986073324E+03  0.59093099773E+01 -0.37473437854E+03  0.40002724795E+03  0.00000000000E+00 0.  1.
         21    1    1    2  505  502  0.29276939806E+02 -0.25799180611E+02  0.16045031158E+03  0.16512734301E+03  0.00000000000E+00 0.  1.
          2    1    1    2  501    0 -0.24060317498E+03 -0.76386165189E+02  0.22997169707E+03  0.34148457578E+03  0.00000000000E+00 0. -1.
<scales pt_clust_3="103.08801" pt_clust_4="103.08801" pt_clust_5="39.02226" pt_clust_6="235.86603"></scales>
<clustering>
<clus scale="   39.022">  1  5  2 -1</clus>
<clus scale="  103.088">  3  4 -1 -1</clus>
<clus scale="  235.866">  1  6  2 -1</clus>
<clus scale="  261.062">  2  3  1 -1</clus>
</clustering>
</event>
<event>
 6    0  0.1631680E+002  0.9862549E+02  0.7546771E-02  0.1283213E+00
         -4   -1    0    0    0  501 -0.00000000000E+00  0.00000000000E+00  0.21808215989E+03  0.21808215989E+03  0.00000000000E+00 0.  1.
         21   -1    0    0  503  502  0.00000000000E+00 -0.00000000000E+00 -0.11708529844E+04  0.11708529844E+04  0.00000000000E+00 0. -1.
         21    1    1    2  503  505  0.87613639520E+02 -0.94637119485E+02 -0.10042031216E+03  0.16345205201E+03  0.00000000000E+00 0.  1.
         21    1    1    2  504  502 -0.22380010856E+02  0.20423861375E+02 -0.10219696393E+04  0.10224186729E+04  0.00000000000E+00 0. -1.
         21    1    1    2  505  501 -0.80133706922E+01  0.31911495925E+02  0.23167676420E+02  0.40240513325E+02  0.00000000000E+00 0.  1.
         -4    1    1    2    0  504 -0.57220257971E+02  0.42301762186E+02  0.14645145056E+03  0.16282390603E+03  0.00000000000E+00 0.  1.
<scales pt_clust_3="14000.00000" pt_clust_4="30.29850" pt_clust_5="34.36615" pt_clust_6="98.62549"></scales>
<clustering>
<clus scale="   30.298">  2  4  1 -1</clus>
<clus scale="   34.366">  1  5  2 -1</clus>
<clus scale="   98.625">  1  6  2 -1</clus>
<clus scale="   30.298">  2  3  1 -1</clus>
</clustering>
</event>
<event>
 6    0  0.1631680E+002  0.1110101E+03  0.7546771E-02  0.1258711E+00
         21   -1    0    0  504  502  0.00000000000E+00  0.00000000000E+00  0.45449560492E+03  0.45449560492E+03  0.00000000000E+00 0.  1.
          1   -1    0    0  505    0 -0.00000000000E+00 -0.00000000000E+00 -0.29452372473E+03  0.29452372473E+03  0.00000000000E+00 0.  1.
         21    1    1    2  503  501  0.11955977795E+03 -0.50093141646E+02 -0.71567387003E+02  0.14807347576E+03  0.00000000000E+00 0.  1.
         21    1    1    2  504  503 -0.49531397618E+02 -0.15692795953E+02  0.38399628506E+03  0.38749550983E+03  0.00000000000E+00 0.  1.
         21    1    1    2  505  502  0.28498264069E+02  0.25326817150E+02 -0.18695231438E+02  0.42463047469E+02  0.00000000000E+00 0.  1.
          1    1    1    2  501    0 -0.98526644396E+02  0.40459120449E+02 -0.13376178643E+03  0.17098729659E+03  0.00000000000E+00 0.  1.
<scales pt_clust_3="14000.00000" pt_clust_4="51.72721" pt_clust_5="38.12609" pt_clust_6="111.01013"></scales>
<clustering>
<clus scale="   38.126">  2  5  1 -1</clus>
<clus scale="   51.727">  1  4  2 -1</clus>
<clus scale="  111.010">  2  6  1 -1</clus>
<clus scale="   51.727">  1  3  2 -1</clus>
</clustering>
</event>
<event>
 6    0  0.1631680E+002  0.1127250E+03  0.7546771E-02  0.1255605E+00
         21   -1    0    0  505  502  0.00000000000E+00  0.00000000000E+00  0.10705667938E+03  0.10705667938E+03  0.00000000000E+00 0.  1.
          2   -1    0    0  502    0 -0.00000000000E+00 -0.00000000000E+00 -0.23425868816E+04  0.23425868816E+04  0.00000000000E+00 0. -1.
         21    1    1    2  503  504 -0.38451220169E+01  0.44856380017E+02 -0.11168530671E+03  0.12041797012E+03  0.00000000000E+00 0.  1.
         21    1    1    2  504  501 -0.48958619182E+02  0.42045923635E+02 -0.11380878168E+03  0.13083288912E+03  0.00000000000E+00 0. -1.
         21    1    1    2  505  503  0.52030813341E+02  0.18430659415E+02  0.84651492917E+02  0.10105825051E+03  0.00000000000E+00 0.  1.
          2    1    1    2  501    0  0.77292785804E+00 -0.10533296307E+03 -0.20946876068E+04  0.20973344513E+04  0.00000000000E+00 0. -1.
<scales pt_clust_3="36.78033" pt_clust_4="36.78033" pt_clust_5="55.19868" pt_clust_6="103.76785"></scales>
<clustering>
<clus scale="   36.780">  3  4 -1 -1</clus>
<clus scale="   55.199">  1  5  2 -1</clus>
<clus scale="  103.768">  2  6  1 -1</clus>
<clus scale="   55.199">  1  3  2 -1</clus>
</clustering>
</event>
<event>
 6    0  0.1631680E+002  0.8703760E+02  0.7546771E-02  0.1310188E+00
         21   -1    0    0  503  502  0.00000000000E+00  0.00000000000E+00  0.16871156222E+03  0.16871156222E+03  0.00000000000E+00 0.  1.
          2   -1    0    0  504    0 -0.00000000000E+00 -0.00000000000E+00 -0.19201944902E+04  0.19201944902E+04  0.00000000000E+00 0.  1.
         21    1    1    2  503  505 -0.25845720410E+02 -0.44443762370E+02  0.12062194989E+03  0.13112171473E+03  0.00000000000E+00 0.  1.
         21    1    1    2  504  502 -0.30002221644E+02  0.91993162883E+01 -0.19922342176E+03  0.20167977713E+03  0.00000000000E+00 0.  1.
         21    1    1    2  505  501  0.81524523149E+02  0.10868241037E+03 -0.72806114535E+02  0.15413904279E+03  0.00000000000E+00 0.  1.
          2    1    1    2  501    0 -0.25676581095E+02 -0.73437964283E+02 -0.16000753416E+04  0.16019655178E+04  0.00000000000E+00 0.  1.
<scales pt_clust_3="51.43439" pt_clust_4="31.38090" pt_clust_5="87.03760" pt_clust_6="14000.00000"></scales>
<clustering>
<clus scale="   31.381">  2  4  1 -1</clus>
<clus scale="   51.434">  1  3  2 -1</clus>
<clus scale="   87.038">  1  5  2 -1</clus>
<clus scale="   51.434">  1  3  2 -1</clus>
</clustering>
</event>
<event>
 6    0  0.1631680E+002  0.9125174E+02  0.7546771E-02  0.1299848E+00
          2   -1    0    0  505    0 -0.00000000000E+00  0.00000000000E+00  0.83383453221E+03  0.83383453221E+03  0.00000000000E+00 0. -1.
         21   -1    0    0  503  502  0.00000000000E+00 -0.00000000000E+00 -0.25169035694E+03  0.25169035694E+03  0.00000000000E+00 0. -1.
         21    1    1    2  503  504  0.26383968744E+02 -0.31080374924E+02 -0.21534301127E+03  0.21916823678E+03  0.00000000000E+00 0. -1.
         21    1    1    2  504  501 -0.46546576417E+02 -0.51456321630E+02  0.20704890767E+03  0.21836571841E+03  0.00000000000E+00 0. -1.
         21    1    1    2  505  502 -0.48003997855E+02 -0.58674849309E+01  0.13096846612E+01  0.48378987829E+02  0.00000000000E+00 0. -1.
          2    1    1    2  501    0  0.68166605528E+02  0.88404181484E+02  0.58912859421E+03  0.59961194612E+03  0.00000000000E+00 0. -1.
<scales pt_clust_3="40.76890" pt_clust_4="91.25174" pt_clust_5="40.41326" pt_clust_6="14000.00000"></scales>
<clustering>
<clus scale="   40.769">  2  3  1 -1</clus>
<clus scale="   40.413">  2  5  1 -1</clus>
<clus scale="   91.252">  2  4  1 -1</clus>
<clus scale="   40.769">  2  3  1 -1</clus>
</clustering>
</event>
<event>
 6    0  0.1631680E+002  0.9310936E+02  0.7546771E-02  0.1295492E+00
         21   -1    0    0  503  502  0.00000000000E+00  0.00000000000E+00  0.35723687246E+02  0.35723687246E+02  0.00000000000E+00 0.  1.
          2   -1    0    0  504    0 -0.00000000000E+00 -0.00000000000E+00 -0.90911232176E+03  0.90911232176E+03  0.00000000000E+00 0.  1.
         21    1    1    2  503  501  0.34867858493E+02  0.42756648589E+02 -0.33035435039E+02  0.64305820286E+02  0.00000000000E+00 0.  1.
         21    1    1    2  504  505 -0.20723764595E+02 -0.14391240331E+03 -0.45078773009E+03  0.47365581580E+03  0.00000000000E+00 0.  1.
         21    1    1    2  505  502  0.60559822519E+01  0.50872784754E+02 -0.10084256853E+03  0.11311029474E+03  0.00000000000E+00 0.  1.
          2    1    1    2  501    0 -0.20200076150E+02  0.50282969964E+02 -0.28872290087E+03  0.29376407818E+03  0.00000000000E+00 0.  1.
<scales pt_clust_3="93.10936" pt_clust_4="14000.00000" pt_clust_5="51.23197" pt_clust_6="58.05543"></scales>
<clustering>
<clus scale="   51.232">  1  5  2 -1</clus>
<clus scale="   58.055">  2  6  1 -1</clus>
<clus scale="   93.109">  1  3  2 -1</clus>
<clus scale="   51.232">  1  3  2 -1</clus>
</clustering>
</event>
<event>
 6    0  0.1631680E+002  0.1116141E+03  0.7546771E-02  0.1257610E+00
          2   -1    0    0  505    0 -0.00000000000E+00  0.00000000000E+00  0.71718854712E+03  0.71718854712E+03  0.00000000000E+00 0.  1.
         21   -1    0    0  504  502  0.00000000000E+00 -0.00000000000E+00 -0.12969205492E+04  0.12969205492E+04  0.00000000000E+00 0. -1.
         21    1    1    2  503  501  0.70125970874E+02  0.12207036967E+03 -0.76262922514E+02  0.16010890135E+03  0.00000000000E+00 0. -1.
         21    1    1    2  504  503 -0.49897242089E+02 -0.15531184742E+02 -0.11678573657E+04  0.11690259959E+04  0.00000000000E+00 0. -1.
         21    1    1    2  505  502  0.31534376799E+02  0.12820865759E+02  0.19216530816E+03  0.19515710897E+03  0.00000000000E+00 0. -1.
          2    1    1    2  501    0 -0.51763105584E+02 -0.11936005069E+03  0.47222297799E+03  0.48981709009E+03  0.00000000000E+00 0.  1.
<scales pt_clust_3="14000.00000" pt_clust_4="52.22066" pt_clust_5="34.04103" pt_clust_6="111.61414"></scales>
<clustering>
<clus scale="   34.041">  1  5  2 -1</clus>
<clus scale="   52.221">  2  4  1 -1</clus>
<clus scale="  111.614">  1  6  2 -1</clus>
<clus scale="   52.221">  2  3  1 -1</clus>
</clustering>
</event>
<event>
 6    0  0.1631680E+002  0.1324503E+03  0.7546771E-02  0.1223865E+00
         21   -1    0    0  504  502  0.00000000000E+00  0.00000000000E+00  0.64800589142E+02  0.64800589142E+02  0.00000000000E+00 0. -1.
          1   -1    0    0  503    0 -0.00000000000E+00 -0.00000000000E+00 -0.12722970540E+04  0.12722970540E+04  0.00000000000E+00 0.  1.
         21    1    1    2  503  502  0.36311113511E+02 -0.20212866343E+02 -0.50560037363E+01  0.41864305846E+02  0.00000000000E+00 0.  1.
         21    1    1    2  504  505 -0.55442335278E+02 -0.20330441763E+02  0.12541838631E+00  0.59052477789E+02  0.00000000000E+00 0. -1.
         21    1    1    2  505  501 -0.91352648816E+02 -0.54313355158E+02 -0.23755693259E+03  0.26024708109E+03  0.00000000000E+00 0.  1.
          1    1    1    2  501    0  0.11048387058E+03  0.94856663264E+02 -0.96500894696E+03  0.97593377846E+03  0.00000000000E+00 0.  1.
<scales pt_clust_3="41.55787" pt_clust_4="46.32464" pt_clust_5="132.45034" pt_clust_6="14000.00000"></scales>
<clustering>
<clus scale="   41.558">  1  3  2 -1</clus>
<clus scale="   46.325">  1  4  2 -1</clus>
<clus scale="  132.450">  1  5  2 -1</clus>
<clus scale="   41.558">  1  3  2 -1</clus>
</clustering>
</event>
<event>
 6    0  0.1631680E+002  0.9037597E+02  0.7546771E-02  0.1301944E+00
          4   -1    0    0  503    0 -0.00000000000E+00  0.00000000000E+00  0.16501975715E+04  0.16501975715E+04  0.00000000000E+00 0. -1.
         21   -1    0    0  501  502  0.00000000000E+00 -0.00000000000E+00 -0.31049475750E+02  0.31049475750E+02  0.00000000000E+00 0.  1.
         21    1    1    2  503  504  0.65748422323E+02  0.49489941709E+02  0.85761216323E+03  0.86155135186E+03  0.00000000000E+00 0. -1.
         21    1    1    2  504  505  0.24275528399E+01  0.36938825892E+02  0.79761688901E+02  0.87933479900E+02  0.00000000000E+00 0.  1.
         21    1    1    2  505  502 -0.19830317358E+02  0.28534964144E+02 -0.37821463716E+01  0.34954117016E+02  0.00000000000E+00 0.  1.
          4    1    1    2  501    0 -0.48345657805E+02 -0.11496373174E+03  0.68555639001E+03  0.69680809850E+03  0.00000000000E+00 0. -1.
<scales pt_clust_3="90.37597" pt_clust_4="47.13590" pt_clust_5="34.74889" pt_clust_6="14000.00000"></scales>
<clustering>
<clus scale="   34.749">  2  5  1 -1</clus>
<clus scale="   47.136">  2  4  1 -1</clus>
<clus scale="   90.376">  1  3  2 -1</clus>
<clus scale="   34.749">  2  3  1 -1</clus>
</clustering>
</event>
<event>
 6    0  0.1631680E+002  0.3032719E+03  0.7546771E-02  0.1083616E+00
         21   -1    0    0  501  502  0.00000000000E+00  0.00000000000E+00  0.22312361451E+03  0.22312361451E+03  0.00000000000E+00 0.  1.
          1   -1    0    0  504    0 -0.00000000000E+00 -0.00000000000E+00 -0.14749675644E+04  0.14749675644E+04  0.00000000000E+00 0.  1.
         21    1    1    2  503  502  0.17313335724E+02 -0.49632532345E+02  0.64505284289E+02  0.83211006255E+02  0.00000000000E+00 0.  1.
         21    1    1    2  504  505  0.43441194669E+02 -0.24192152341E+02 -0.15113636401E+03  0.15910561949E+03  0.00000000000E+00 0. -1.
         21    1    1    2  505  503 -0.59469144739E+02 -0.25641557322E+03 -0.20094307547E+02  0.26398732273E+03  0.00000000000E+00 0.  1.
          1    1    1    2  501    0 -0.12853856544E+01  0.33024025791E+03 -0.11451185626E+04  0.11917872304E+04  0.00000000000E+00 0.  1.
<scales pt_clust_3="52.82936" pt_clust_4="49.72321" pt_clust_5="303.27189" pt_clust_6="14000.00000"></scales>
<clustering>
<clus scale="   49.723">  2  4  1 -1</clus>
<clus scale="   52.829">  1  3  2 -1</clus>
<clus scale="  303.272">  1  5  2 -1</clus>
<clus scale="   52.829">  1  3  2 -1</clus>
</clustering>
</event>
<event>
 6    0  0.1631680E+002  0.9710393E+02  0.7546771E-02  0.1286507E+00
          2   -1    0    0  503    0 -0.00000000000E+00  0.00000000000E+00  0.82179090832E+03  0.82179090832E+03  0.00000000000E+00 0. -1.
         21   -1    0    0  504  502  0.00000000000E+00 -0.00000000000E+00 -0.30187774826E+03  0.30187774826E+03  0.00000000000E+00 0. -1.
         21    1    1    2  503  505  0.32166448484E+02  0.47196976141E+02  0.13624699840E+03  0.14773449001E+03  0.00000000000E+00 0.  1.
         21    1    1    2  504  501  0.34686619889E+01  0.63046516154E+02  0.28848197926E+02  0.69419833900E+02  0.00000000000E+00 0.  1.
         21    1    1    2  505  502 -0.50419607939E+01 -0.10375043543E+03 -0.26566181900E+03  0.28524686904E+03  0.00000000000E+00 0. -1.
          2    1    1    2  501    0 -0.30593149679E+02 -0.64930568651E+01  0.62047978274E+03  0.62126746364E+03  0.00000000000E+00 0. -1.
<scales pt_clust_3="43.89395" pt_clust_4="14000.00000" pt_clust_5="97.10393" pt_clust_6="31.27460"></scales>
<clustering>
<clus scale="   31.275">  1  6  2 -1</clus>
<clus scale="   43.894">  1  3  2 -1</clus>
<clus scale="   97.104">  2  5  1 -1</clus>
<clus scale="   97.104">  2  3  1 -1</clus>
</clustering>
</event>
<event>
 6    0  0.1631680E+002  0.2268133E+03  0.7546771E-02  0.1128903E+00
         21   -1    0    0  505  502  0.00000000000E+00  0.00000000000E+00  0.81165430465E+03  0.81165430465E+03  0.00000000000E+00 0. -1.
          2   -1    0    0  503    0 -0.00000000000E+00 -0.00000000000E+00 -0.32209775783E+03  0.32209775783E+03  0.00000000000E+00 0. -1.
         21    1    1    2  503  504  0.91740765494E+01 -0.50494459130E+02  0.29562874458E+02  0.59226832007E+02  0.00000000000E+00 0. -1.
         21    1    1    2  504  502 -0.46912587380E+02 -0.52964174632E+01  0.24563388784E+02  0.53218445685E+02  0.00000000000E+00 0.  1.
         21    1    1    2  505  501  0.56833206029E+02 -0.17361237564E+03  0.66892427597E+03  0.69341975546E+03  0.00000000000E+00 0. -1.
          2    1    1    2  501    0 -0.19094695199E+02  0.22940325223E+03 -0.23349399239E+03  0.32788702932E+03  0.00000000000E+00 0. -1.
<scales pt_clust_3="51.21024" pt_clust_4="47.21062" pt_clust_5="226.81327" pt_clust_6="14000.00000"></scales>
<clustering>
<clus scale="   47.211">  1  4  2 -1</clus>
<clus scale="   51.210">  1  3  2 -1</clus>
<clus scale="  226.813">  1  5  2 -1</clus>
<clus scale="   47.211">  1  3  2 -1</clus>
</clustering>
</event>
<event>
 6    0  0.1631680E+002  0.7651210E+02  0.7546771E-02  0.1339251E+00
          1   -1    0    0  504    0 -0.00000000000E+00  0.00000000000E+00  0.11562368056E+04  0.11562368056E+04  0.00000000000E+00 0.  1.
         21   -1    0    0  503  502  0.00000000000E+00 -0.00000000000E+00 -0.16216461619E+02  0.16216461619E+02  0.00000000000E+00 0. -1.
         21    1    1    2  503  501  0.41481919419E+02 -0.37691742254E+02  0.13632480139E+03  0.14739697605E+03  0.00000000000E+00 0. -1.
         21    1    1    2  504  505  0.48784769775E+01 -0.42278085840E+02  0.41107089532E+03  0.41326809344E+03  0.00000000000E+00 0.  1.
         21    1    1    2  505  502 -0.18123352328E+02 -0.31783770632E+02  0.15088504116E+03  0.15525772000E+03  0.00000000000E+00 0. -1.
          1    1    1    2  501    0 -0.28237044069E+02  0.11175359873E+03  0.44173960613E+03  0.45653047774E+03  0.00000000000E+00 0.  1.
<scales pt_clust_3="14000.00000" pt_clust_4="44.90031" pt_clust_5="36.58776" pt_clust_6="76.51210"></scales>
<clustering>
<clus scale="   36.588">  2  5  1 -1</clus>
<clus scale="   44.900">  1  4  2 -1</clus>
<clus scale="   76.512">  1  6  2 -1</clus>
<clus scale="   36.588">  2  3  1 -1</clus>
</clustering>
</event>
<event>
 6    0  0.1631680E+002  0.2275639E+03  0.7546771E-02  0.1128366E+00
         -2   -1    0    0    0  501 -0.00000000000E+00  0.00000000000E+00  0.17306474674E+04  0.17306474674E+04  0.00000000000E+00 0. -1.
         21   -1    0    0  503  502  0.00000000000E+00 -0.00000000000E+00 -0.38450615768E+03  0.38450615768E+03  0.00000000000E+00 0. -1.
         21    1    1    2  503  504  0.19087984014E+03 -0.76749219828E+02 -0.39417299101E+02  0.20947381599E+03  0.00000000000E+00 0. -1.
         21    1    1    2  504  501 -0.85365239990E+01 -0.53568521966E+02  0.12655319825E+04  0.12666939873E+04  0.00000000000E+00 0. -1.
         21    1    1    2  505  502 -0.26146181096E+03 -0.55656666163E+02 -0.14623824187E+03  0.30470570468E+03  0.00000000000E+00 0. -1.
         -2    1    1    2    0  505  0.79118494812E+02  0.18597440796E+03  0.26626486815E+03  0.33428011704E+03  0.00000000000E+00 0. -1.
<scales pt_clust_3="227.56393" pt_clust_4="54.24444" pt_clust_5="14000.00000" pt_clust_6="168.29516"></scales>
<clustering>
<clus scale="   54.244">  1  4  2 -1</clus>
<clus scale="  168.295">  1  6  2 -1</clus>
<clus scale="  227.564">  1  3  2 -1</clus>
<clus scale="  227.564">  2  3  1 -1</clus>
</clustering>
</event>
<event>
 6    0  0.1631680E+002  0.9404052E+02  0.7546771E-02  0.1293352E+00
          2   -1    0    0  504    0 -0.00000000000E+00  0.00000000000E+00  0.15947706722E+04  0.15947706722E+04  0.00000000000E+00 0.  1.
         21   -1    0    0  505  502  0.00000000000E+00 -0.00000000000E+00 -0.10085485939E+03  0.10085485939E+03  0.00000000000E+00 0. -1.
         21    1    1    2  503  502  0.58814772017E+02  0.46001807439E+02 -0.70012952835E+02  0.10235798581E+03  0.00000000000E+00 0. -1.
         21    1    1    2  504  503  0.51542350253E+02 -0.10116437575E+03  0.10077986989E+04  0.10141740789E+04  0.00000000000E+00 0.  1.
         21    1    1    2  505  501 -0.59409076037E+02 -0.16251557591E+01  0.97684246114E+02  0.11434286766E+03  0.00000000000E+00 0.  1.
          2    1    1    2  501    0 -0.50948046233E+02  0.56787724074E+02  0.45844582070E+03  0.46475059929E+03  0.00000000000E+00 0.  1.
<scales pt_clust_3="44.62364" pt_clust_4="94.04052" pt_clust_5="59.43130" pt_clust_6="14000.00000"></scales>
<clustering>
<clus scale="   59.431">  2  5  1 -1</clus>
<clus scale="   44.624">  2  3  1 -1</clus>
<clus scale="   94.041">  2  4  1 -1</clus>
<clus scale="   59.431">  2  3  1 -1</clus>
</clustering>
</event>
<event>
 6    0  0.1631680E+002  0.1773028E+03  0.7546771E-02  0.1170439E+00
          2   -1    0    0  504    0 -0.00000000000E+00  0.00000000000E+00  0.43816971581E+03  0.43816971581E+03  0.00000000000E+00 0.  1.
         21   -1    0    0  503  502  0.00000000000E+00 -0.00000000000E+00 -0.95639734103E+03  0.95639734103E+03  0.00000000000E+00 0.  1.
         21    1    1    2  503  501  0.46750283023E+02 -0.18858824644E+01  0.51300027999E+02  0.69432257547E+02  0.00000000000E+00 0.  1.
         21    1    1    2  504  505 -0.18524014560E+03  0.49858593482E+02  0.30052114461E+02  0.19417239883E+03  0.00000000000E+00 0.  1.
         21    1    1    2  505  502  0.17230797541E+03 -0.36634019532E+02 -0.85505326053E+03  0.87301097824E+03  0.00000000000E+00 0.  1.
          2    1    1    2  501    0 -0.33818112831E+02 -0.11338691486E+02  0.25547349285E+03  0.25795142223E+03  0.00000000000E+00 0.  1.
<scales pt_clust_3="35.94793" pt_clust_4="177.30278" pt_clust_5="14000.00000" pt_clust_6="35.66834"></scales>
<clustering>
<clus scale="   35.668">  1  6  2 -1</clus>
<clus scale="   35.948">  1  3  2 -1</clus>
<clus scale="  177.303">  1  4  2 -1</clus>
<clus scale="  177.303">  2  3  1 -1</clus>
</clustering>
</event>
<event>
 6    0  0.1631680E+002  0.8107236E+02  0.7546771E-02  0.1326035E+00
          1   -1    0    0  503    0 -0.00000000000E+00  0.00000000000E+00  0.93959044947E+03  0.93959044947E+03  0.00000000000E+00 0. -1.
         21   -1    0    0  505  502  0.00000000000E+00 -0.00000000000E+00 -0.17556676184E+03  0.17556676184E+03  0.00000000000E+00 0. -1.
         21    1    1    2  503  504  0.25801680194E+02  0.20445483103E+02  0.12992847800E+03  0.13403415190E+03  0.00000000000E+00 0. -1.
         21    1    1    2  504  502  0.55303119054E+02  0.13966531250E+02 -0.82525415122E+00  0.57045420646E+02  0.00000000000E+00 0. -1.
         21    1    1    2  505  501 -0.43521316820E+02 -0.94956842635E+02 -0.12382187958E+03  0.16199618774E+03  0.00000000000E+00 0. -1.
          1    1    1    2  501    0 -0.37583482428E+02  0.60544828281E+02  0.75874234336E+03  0.76208145103E+03  0.00000000000E+00 0. -1.
<scales pt_clust_3="32.92027" pt_clust_4="58.08633" pt_clust_5="81.07236" pt_clust_6="14000.00000"></scales>
<clustering>
<clus scale="   32.920">  1  3  2 -1</clus>
<clus scale="   58.086">  2  4  1 -1</clus>
<clus scale="   81.072">  2  5  1 -1</clus>
<clus scale="   58.086">  2  3  1 -1</clus>
</clustering>
</event>
<event>
 6    0  0.1631680E+002  0.7152482E+02  0.7546771E-02  0.1354983E+00
         21   -1    0    0  504  502  0.00000000000E+00  0.00000000000E+00  0.26221096521E+03  0.26221096521E+03  0.00000000000E+00 0. -1.
          1   -1    0    0  503    0 -0.00000000000E+00 -0.00000000000E+00 -0.33959135396E+04  0.33959135396E+04  0.00000000000E+00 0. -1.
         21    1    1    2  503  502 -0.81665290234E+02  0.35212709353E+02  0.18509992111E+02  0.90839277502E+02  0.00000000000E+00 0. -1.
         21    1    1    2  504  505  0.52281392957E+02 -0.32110546156E+02  0.19465098701E+03  0.20409173910E+03  0.00000000000E+00 0. -1.
         21    1    1    2  505  501  0.68452748390E+02 -0.61886010845E+02 -0.26655975913E+03  0.28208112714E+03  0.00000000000E+00 0. -1.
          1    1    1    2  501    0 -0.39068851113E+02  0.58783847648E+02 -0.30803037944E+04  0.30811123611E+04  0.00000000000E+00 0. -1.
<scales pt_clust_3="36.90111" pt_clust_4="61.35496" pt_clust_5="14000.00000" pt_clust_6="71.52482"></scales>
<clustering>
<clus scale="   61.355">  1  4  2 -1</clus>
<clus scale="   36.901">  1  3  2 -1</clus>
<clus scale="   71.525">  2  6  1 -1</clus>
<clus scale="   61.355">  1  3  2 -1</clus>
</clustering>
</event>
<event>
 6    0  0.1631680E+002  0.9997217E+02  0.7546771E-02  0.1280354E+00
          2   -1    0    0  505    0 -0.00000000000E+00  0.00000000000E+00  0.66073007813E+03  0.66073007813E+03  0.00000000000E+00 0.  1.
         21   -1    0    0  501  502  0.00000000000E+00 -0.00000000000E+00 -0.94107147668E+02  0.94107147668E+02  0.00000000000E+00 0. -1.
         21    1    1    2  503  502 -0.40293782251E+02  0.27604430962E+01 -0.48359188346E+02  0.63006507852E+02  0.00000000000E+00 0. -1.
         21    1    1    2  504  503 -0.46584120121E+02  0.94253833455E+01 -0.39733441644E+01  0.47693873427E+02  0.00000000000E+00 0.  1.
         21    1    1    2  505  504 -0.38738039988E+02  0.24315835329E+02  0.20338722068E+03  0.20846644124E+03  0.00000000000E+00 0.  1.
          2    1    1    2  501    0  0.12561594236E+03 -0.36501661771E+02  0.41556824230E+03  0.43567040328E+03  0.00000000000E+00 0.  1.
<scales pt_clust_3="39.32260" pt_clust_4="39.32260" pt_clust_5="45.73725" pt_clust_6="90.41470"></scales>
<clustering>
<clus scale="   39.323">  3  4 -1 -1</clus>
<clus scale="   45.737">  1  5  2 -1</clus>
<clus scale="   90.415">  1  6  2 -1</clus>
<clus scale="   99.972">  2  3  1 -1</clus>
</clustering>
</event>
<event>
 6    0  0.1631680E+002  0.1060037E+03  0.7546771E-02  0.1268155E+00
         21   -1    0    0  505  502  0.00000000000E+00  0.00000000000E+00  0.70868097126E+02  0.70868097126E+02  0.00000000000E+00 0.  1.
          2   -1    0    0  504    0 -0.00000000000E+00 -0.00000000000E+00 -0.53479939521E+03  0.53479939521E+03  0.00000000000E+00 0.  1.
         21    1    1    2  503  501 -0.12191373436E+02 -0.39534819892E+02 -0.64878760087E+00  0.41376956093E+02  0.00000000000E+00 0.  1.
         21    1    1    2  504  502  0.45072883913E+02 -0.68249168194E+01 -0.21229938032E+03  0.21713859915E+03  0.00000000000E+00 0.  1.
         21    1    1    2  505  503  0.38884544534E+02 -0.47718131197E+02  0.83318241969E+01  0.62116399952E+02  0.00000000000E+00 0.  1.
          2    1    1    2  501    0 -0.71766055011E+02  0.94077867909E+02 -0.25931495435E+03  0.28503553714E+03  0.00000000000E+00 0.  1.
<scales pt_clust_3="39.54105" pt_clust_4="45.58667" pt_clust_5="39.54105" pt_clust_6="94.39566"></scales>
<clustering>
<clus scale="   39.541">  3  5 -1 -1</clus>
<clus scale="   45.587">  2  4  1 -1</clus>
<clus scale="   94.396">  2  6  1 -1</clus>
<clus scale="  106.004">  1  3  2 -1</clus>
</clustering>
</event>
<event>
 6    0  0.1631680E+002  0.1291009E+03  0.7546771E-02  0.1228796E+00
         21   -1    0    0  501  502  0.00000000000E+00  0.00000000000E+00  0.19140047484E+03  0.19140047484E+03  0.00000000000E+00 0.  1.
          1   -1    0    0  505    0 -0.00000000000E+00 -0.00000000000E+00 -0.24752411608E+04  0.24752411608E+04  0.00000000000E+00 0. -1.
         21    1    1    2  503  504  0.86651973024E+02 -0.13771532645E+03 -0.12397273970E+02  0.16318017027E+03  0.00000000000E+00 0. -1.
         21    1    1    2  504  502  0.18096509058E+01  0.46730776296E+02  0.10762794305E+03  0.11734911340E+03  0.00000000000E+00 0.  1.
         21    1    1    2  505  503 -0.22891937732E+00 -0.31050464756E+02 -0.53627224335E+03  0.53717045968E+03  0.00000000000E+00 0. -1.
          1    1    1    2  501    0 -0.88232704553E+02  0.12203501491E+03 -0.18427991117E+04  0.18489418923E+04  0.00000000000E+00 0. -1.
<scales pt_clust_3="14000.00000" pt_clust_4="46.68798" pt_clust_5="31.05131" pt_clust_6="129.10091"></scales>
<clustering>
<clus scale="   31.051">  2  5  1 -1</clus>
<clus scale="   46.688">  1  4  2 -1</clus>
<clus scale="  129.101">  2  6  1 -1</clus>
<clus scale="   46.688">  1  3  2 -1</clus>
</clustering>
</event>
<event>
 6    0  0.1631680E+002  0.1961021E+03  0.7546771E-02  0.1153070E+00
         21   -1    0    0  504  502  0.00000000000E+00  0.00000000000E+00  0.15843853528E+03  0.15843853528E+03  0.00000000000E+00 0. -1.
          2   -1    0    0  505    0 -0.00000000000E+00 -0.00000000000E+00 -0.97537815532E+03  0.97537815532E+03  0.00000000000E+00 0. -1.
         21    1    1    2  503  502 -0.47389661697E+02 -0.13928843329E+02 -0.71896178229E+02  0.87228740426E+02  0.00000000000E+00 0.  1.
         21    1    1    2  504  501  0.24938856081E+02  0.18539815630E+02  0.11906590077E+03  0.12305429709E+03  0.00000000000E+00 0. -1.
         21    1    1    2  505  503 -0.12308069278E+03 -0.91301076899E+02 -0.47619510929E+03  0.50024646494E+03  0.00000000000E+00 0. -1.
          2    1    1    2  501    0  0.14553149840E+03  0.86690104599E+02 -0.38791423329E+03  0.42328718814E+03  0.00000000000E+00 0. -1.
<scales pt_clust_3="37.31967" pt_clust_4="31.07525" pt_clust_5="37.31967" pt_clust_6="184.02838"></scales>
<clustering>
<clus scale="   31.075">  1  4  2 -1</clus>
<clus scale="   37.320">  3  5 -1 -1</clus>
<clus scale="  184.028">  2  6  1 -1</clus>
<clus scale="   31.075">  1  3  2 -1</clus>
</clustering>
</event>
<event>
 6    0  0.1631680E+002  0.7049186E+02  0.7546771E-02  0.1358428E+00
         21   -1    0    0  503  502  0.00000000000E+00  0.00000000000E+00  0.22657658765E+03  0.22657658765E+03  0.00000000000E+00 0.  1.
          1   -1    0    0  505    0 -0.00000000000E+00 -0.00000000000E+00 -0.28216474084E+03  0.28216474084E+03  0.00000000000E+00 0.  1.
         21    1    1    2  503  504  0.25389133963E+02  0.34987888165E+02  0.40759982401E+02  0.59414952722E+02  0.00000000000E+00 0.  1.
         21    1    1    2  504  501 -0.50274408810E+02  0.39628299628E+02 -0.76060185212E+02  0.99413631293E+02  0.00000000000E+00 0.  1.
         21    1    1    2  505  502 -0.53965119586E+02 -0.63001876685E+02  0.14463811421E+03  0.16673828199E+03  0.00000000000E+00 0.  1.
          1    1    1    2  501    0  0.78850394432E+02 -0.11614311107E+02 -0.16492606460E+03  0.18317446249E+03  0.00000000000E+00 0.  1.
<scales pt_clust_3="43.22916" pt_clust_4="14000.00000" pt_clust_5="45.04873" pt_clust_6="70.49186"></scales>
<clustering>
<clus scale="   43.229">  1  3  2 -1</clus>
<clus scale="   45.049">  1  5  2 -1</clus>
<clus scale="   70.492">  2  6  1 -1</clus>
<clus scale="   43.229">  1  3  2 -1</clus>
</clustering>
</event>
<event>
 6    0  0.1631680E+002  0.1202321E+03  0.7546771E-02  0.1242715E+00
          2   -1    0    0  504    0 -0.00000000000E+00  0.00000000000E+00  0.19949384095E+04  0.19949384095E+04  0.00000000000E+00 0.  1.
         21   -1    0    0  503  502  0.00000000000E+00 -0.00000000000E+00 -0.68192426539E+03  0.68192426539E+03  0.00000000000E+00 0. -1.
         21    1    1    2  503  501 -0.18199609238E+02 -0.87118460876E+02 -0.35415294775E+03  0.36516456893E+03  0.00000000000E+00 0. -1.
         21    1    1    2  504  505  0.25300641053E+01 -0.51223277081E+02  0.84093546475E+02  0.98498476629E+02  0.00000000000E+00 0. -1.
         21    1    1    2  505  502  0.44493082031E+02 -0.31029419561E+02 -0.30880648996E+03  0.31353453952E+03  0.00000000000E+00 0. -1.
          2    1    1    2  501    0 -0.28823536898E+02  0.16937115752E+03  0.18918800353E+04  0.18996650898E+04  0.00000000000E+00 0.  1.
<scales pt_clust_3="14000.00000" pt_clust_4="51.28572" pt_clust_5="54.28343" pt_clust_6="120.23214"></scales>
<clustering>
<clus scale="   51.286">  1  4  2 -1</clus>
<clus scale="   54.283">  2  5  1 -1</clus>
<clus scale="  120.232">  1  6  2 -1</clus>
<clus scale="   54.283">  2  3  1 -1</clus>
</clustering>
</event>
<event>
 6    0  0.1631680E+002  0.1256562E+03  0.7546771E-02  0.1234047E+00
          2   -1    0    0  505    0 -0.00000000000E+00  0.00000000000E+00  0.72060025712E+03  0.72060025712E+03  0.00000000000E+00 0.  1.
         21   -1    0    0  504  502  0.00000000000E+00 -0.00000000000E+00 -0.85346247305E+03  0.85346247305E+03  0.00000000000E+00 0. -1.
         21    1    1    2  503  501  0.13116399198E+02 -0.66089556383E+02 -0.92192636960E+02  0.11418998074E+03  0.00000000000E+00 0.  1.
         21    1    1    2  504  503 -0.10075586211E+03  0.24638942227E+02  0.29310458443E+02  0.10778647502E+03  0.00000000000E+00 0.  1.
         21    1    1    2  505  502  0.54472454229E+01 -0.60516155348E+02 -0.70301973381E+03  0.70564057683E+03  0.00000000000E+00 0. -1.
          2    1    1    2  501    0  0.82192217491E+02  0.10196676950E+03  0.63303969640E+03  0.64644569758E+03  0.00000000000E+00 0.  1.
<scales pt_clust_3="125.65615" pt_clust_4="99.70440" pt_clust_5="60.76082" pt_clust_6="14000.00000"></scales>
<clustering>
<clus scale="   60.761">  2  5  1 -1</clus>
<clus scale="   99.704">  2  4  1 -1</clus>
<clus scale="  125.656">  2  3  1 -1</clus>
<clus scale="   60.761">  2  3  1 -1</clus>
</clustering>
</event>
<event>
 6    0  0.1631680E+002  0.8908857E+02  0.7546771E-02  0.1305074E+00
         21   -1    0    0  505  502  0.00000000000E+00  0.00000000000E+00  0.86365874214E+02  0.86365874214E+02  0.00000000000E+00 0. -1.
          2   -1    0    0  503    0 -0.00000000000E+00 -0.00000000000E+00 -0.16132165930E+04  0.16132165930E+04  0.00000000000E+00 0.  1.
         21    1    1    2  503  504 -0.20356592682E+02  0.37451680314E+02 -0.50569436395E+02  0.66138393700E+02  0.00000000000E+00 0. -1.
         21    1    1    2  504  502  0.24869198037E+01 -0.35540266585E+02  0.98877653234E+01  0.36973818062E+02  0.00000000000E+00 0. -1.
         21    1    1    2  505  501  0.57194202758E+01  0.86448307285E+02  0.18970888586E+02  0.88690000645E+02  0.00000000000E+00 0. -1.
          2    1    1    2  501    0  0.12150252602E+02 -0.88359721014E+02 -0.15051399363E+04  0.15077802548E+04  0.00000000000E+00 0.  1.
<scales pt_clust_3="38.66057" pt_clust_4="35.62717" pt_clust_5="14000.00000" pt_clust_6="89.08857"></scales>
<clustering>
<clus scale="   35.627">  1  4  2 -1</clus>
<clus scale="   38.661">  1  3  2 -1</clus>
<clus scale="   89.089">  2  6  1 -1</clus>
<clus scale="   35.627">  1  3  2 -1</clus>
</clustering>
</event>
<event>
 6    0  0.1631680E+002  0.1059928E+03  0.7546771E-02  0.1268176E+00
          2   -1    0    0  503    0 -0.00000000000E+00  0.00000000000E+00  0.16784447261E+04  0.16784447261E+04  0.00000000000E+00 0.  1.
         21   -1    0    0  505  502  0.00000000000E+00 -0.00000000000E+00 -0.12829723245E+03  0.12829723245E+03  0.00000000000E+00 0.  1.
         21    1    1    2  503  504  0.19413086559E+02  0.38461251402E+02  0.37238355085E+03  0.37486750290E+03  0.00000000000E+00 0.  1.
         21    1    1    2  504  502  0.70446692862E+02  0.35636188274E+02  0.43890321641E+01  0.79069197879E+02  0.00000000000E+00 0.  1.
         21    1    1    2  505  501 -0.57735264485E+02 -0.14267131018E+03 -0.21612772131E+02  0.15542064030E+03  0.00000000000E+00 0.  1.
          2    1    1    2  501    0 -0.32124514937E+02  0.68573870500E+02  0.11949876828E+04  0.11973846175E+04  0.00000000000E+00 0.  1.
<scales pt_clust_3="43.08289" pt_clust_4="80.06068" pt_clust_5="105.99276" pt_clust_6="14000.00000"></scales>
<clustering>
<clus scale="   43.083">  1  3  2 -1</clus>
<clus scale="   80.061">  2  4  1 -1</clus>
<clus scale="  105.993">  2  5  1 -1</clus>
<clus scale="   80.061">  2  3  1 -1</clus>
</clustering>
</event>
<event>
 6    0  0.1631680E+002  0.1028081E+03  0.7546771E-02  0.1274499E+00
         21   -1    0    0  505  502  0.00000000000E+00  0.00000000000E+00  0.49821952993E+02  0.49821952993E+02  0.00000000000E+00 0. -1.
          2   -1    0    0  503    0 -0.00000000000E+00 -0.00000000000E+00 -0.10541848890E+04  0.10541848890E+04  0.00000000000E+00 0.  1.
         21    1    1    2  503  504 -0.38632019260E+02  0.50388110861E+02 -0.47775985254E+03  0.48196044581E+03  0.00000000000E+00 0.  1.
         21    1    1    2  504  502  0.49936767646E+02 -0.10684265294E+03 -0.11320336059E+03  0.16347487299E+03  0.00000000000E+00 0. -1.
         21    1    1    2  505  501 -0.47681322535E+02 -0.14569278235E+02 -0.14721131031E+02  0.51985421858E+02  0.00000000000E+00 0. -1.
          2    1    1    2  501    0  0.36376574148E+02  0.71023820317E+02 -0.39867859185E+03  0.40658610134E+03  0.00000000000E+00 0.  1.
<scales pt_clust_3="64.74471" pt_clust_4="14000.00000" pt_clust_5="49.85752" pt_clust_6="102.80813"></scales>
<clustering>
<clus scale="   49.858">  1  5  2 -1</clus>
<clus scale="   64.745">  2  3  1 -1</clus>
<clus scale="  102.808">  2  6  1 -1</clus>
<clus scale="   49.858">  1  3  2 -1</clus>
</clustering>
</event>
<event>
 6    0  0.1631680E+002  0.1003958E+03  0.7546771E-02  0.1279466E+00
          2   -1    0    0  505    0 -0.00000000000E+00  0.00000000000E+00  0.17410247683E+04  0.17410247683E+04  0.00000000000E+00 0.  1.
         21   -1    0    0  504  502  0.00000000000E+00 -0.00000000000E+00 -0.29298794918E+02  0.29298794918E+02  0.00000000000E+00 0.  1.
         21    1    1    2  503  502 -0.67930157171E+02 -0.11702305371E+03  0.32094647221E+03  0.34830380327E+03  0.00000000000E+00 0.  1.
         21    1    1    2  504  501  0.56040437196E+02  0.65231012563E+02  0.13072462979E+03  0.15647537964E+03  0.00000000000E+00 0.  1.
         21    1    1    2  505  503  0.39530233082E+02 -0.11898726491E+02  0.69760812682E+03  0.69882853235E+03  0.00000000000E+00 0.  1.
          2    1    1    2  501    0 -0.27640513107E+02  0.63690767637E+02  0.56244674460E+03  0.56671584799E+03  0.00000000000E+00 0.  1.
<scales pt_clust_3="14000.00000" pt_clust_4="100.39580" pt_clust_5="41.28219" pt_clust_6="57.58765"></scales>
<clustering>
<clus scale="   41.282">  1  5  2 -1</clus>
<clus scale="   57.588">  1  6  2 -1</clus>
<clus scale="  100.396">  2  4  1 -1</clus>
<clus scale="  100.396">  2  3  1 -1</clus>
</clustering>
</event>
<event>
 6    0  0.1631680E+002  0.2151429E+03  0.7546771E-02  0.1137557E+00
         21   -1    0    0  504  502  0.00000000000E+00  0.00000000000E+00  0.90351721630E+02  0.90351721630E+02  0.00000000000E+00 0. -1.
          2   -1    0    0  503    0 -0.00000000000E+00 -0.00000000000E+00 -0.19669541897E+04  0.19669541897E+04  0.00000000000E+00 0.  1.
         21    1    1    2  503  502  0.30681190001E+01 -0.70308436002E+02  0.37056799296E+01  0.70472842933E+02  0.00000000000E+00 0. -1.
         21    1    1    2  504  505 -0.99804080985E+02  0.58567972556E+02 -0.83806909584E+02  0.14287987992E+03  0.00000000000E+00 0. -1.
         21    1    1    2  505  501 -0.10575772502E+03  0.39442392572E+02 -0.16628493932E+03  0.20097532132E+03  0.00000000000E+00 0. -1.
          2    1    1    2  501    0  0.20249368701E+03 -0.27701929126E+02 -0.16302162991E+04  0.16429778672E+04  0.00000000000E+00 0.  1.
<scales pt_clust_3="70.37535" pt_clust_4="61.11139" pt_clust_5="61.11139" pt_clust_6="206.05263"></scales>
<clustering>
<clus scale="   61.111">  4  5 -1 -1</clus>
<clus scale="   70.375">  1  3  2 -1</clus>
<clus scale="  206.053">  2  6  1 -1</clus>
<clus scale="   70.375">  1  3  2 -1</clus>
</clustering>
</event>
<event>
 6    0  0.2309084E+002  0.1904872E+03  0.7546771E-02  0.1158023E+00
         21   -1    0    0  503  502  0.00000000000E+00  0.00000000000E+00  0.13651380223E+04  0.13651380223E+04  0.00000000000E+00 0.  1.
          1   -1    0    0  504    0 -0.00000000000E+00 -0.00000000000E+00 -0.15943089878E+04  0.15943089878E+04  0.00000000000E+00 0. -1.
         21    1    1    2  503  501  0.87136806150E+02 -0.22254585407E+02  0.63019566648E+02  0.10981600675E+03  0.00000000000E+00 0. -1.
         21    1    1    2  504  505  0.21800388588E+02 -0.51602704228E+02 -0.20589940729E+03  0.21338383713E+03  0.00000000000E+00 0.  1.
         21    1    1    2  505  502  0.56333199107E+02 -0.10266269043E+03  0.12615060148E+04  0.12669295493E+04  0.00000000000E+00 0.  1.
          1    1    1    2  501    0 -0.16527039384E+03  0.17651998006E+03 -0.13477971396E+04  0.13693176169E+04  0.00000000000E+00 0. -1.
<scales pt_clust_3="90.50965" pt_clust_4="56.01871" pt_clust_5="14000.00000" pt_clust_6="190.48721"></scales>
<clustering>
<clus scale="   56.019">  2  4  1 -1</clus>
<clus scale="   90.510">  1  3  2 -1</clus>
<clus scale="  190.487">  2  6  1 -1</clus>
<clus scale="   90.510">  1  3  2 -1</clus>
</clustering>
</event>
<event>
 6    0  0.1631680E+002  0.1030081E+03  0.7546771E-02  0.1274095E+00
         -2   -1    0    0    0  501 -0.00000000000E+00  0.00000000000E+00  0.11464121943E+04  0.11464121943E+04  0.00000000000E+00 0. -1.
         21   -1    0    0  504  502  0.00000000000E+00 -0.00000000000E+00 -0.62404420359E+03  0.62404420359E+03  0.00000000000E+00 0.  1.
         21    1    1    2  503  505  0.83041900820E+01  0.80617823437E+02 -0.41692751884E+03  0.42473138452E+03  0.00000000000E+00 0.  1.
         21    1    1    2  504  501  0.46608535301E+02  0.46217641773E+02  0.45398794105E+03  0.45870848760E+03  0.00000000000E+00 0. -1.
         21    1    1    2  505  502  0.42166463369E+02  0.91084024978E+01 -0.18821080702E+03  0.19309138124E+03  0.00000000000E+00 0.  1.
         -2    1    1    2    0  503 -0.97079188752E+02 -0.13594386771E+03  0.67351837551E+03  0.69392514453E+03  0.00000000000E+00 0. -1.
<scales pt_clust_3="103.00805" pt_clust_4="65.83671" pt_clust_5="43.13900" pt_clust_6="14000.00000"></scales>
<clustering>
<clus scale="   43.139">  2  5  1 -1</clus>
<clus scale="   65.837">  1  4  2 -1</clus>
<clus scale="  103.008">  2  3  1 -1</clus>
<clus scale="   43.139">  2  3  1 -1</clus>
</clustering>
</event>
<event>
 6    0  0.1631680E+002  0.4643693E+03  0.7546771E-02  0.1023522E+00
          1   -1    0    0  504    0 -0.00000000000E+00  0.00000000000E+00  0.17756192487E+04  0.17756192487E+04  0.00000000000E+00 0.  1.
         21   -1    0    0  505  502  0.00000000000E+00 -0.00000000000E+00 -0.78480682358E+03  0.78480682358E+03  0.00000000000E+00 0. -1.
         21    1    1    2  503  502 -0.39188541464E+03  0.31472340249E+02 -0.33007482637E+03  0.51333622258E+03  0.00000000000E+00 0. -1.
         21    1    1    2  504  503 -0.28424605643E+01  0.30623985689E+02  0.32553404489E+03  0.32698367308E+03  0.00000000000E+00 0. -1.
         21    1    1    2  505  501 -0.74707914038E+02  0.32673095387E+02 -0.31478900249E+03  0.32517828905E+03  0.00000000000E+00 0. -1.
          1    1    1    2  501    0  0.46943578925E+03 -0.94769421325E+02  0.13101422091E+04  0.13949278875E+04  0.00000000000E+00 0.  1.
<scales pt_clust_3="464.36931" pt_clust_4="30.75562" pt_clust_5="81.59357" pt_clust_6="14000.00000"></scales>
<clustering>
<clus scale="   30.756">  1  4  2 -1</clus>
<clus scale="   81.594">  2  5  1 -1</clus>
<clus scale="  464.369">  2  3  1 -1</clus>
<clus scale="   81.594">  2  3  1 -1</clus>
</clustering>
</event>
<event>
 6    0  0.1631680E+002  0.1828179E+03  0.7546771E-02  0.1165103E+00
          1   -1    0    0  505    0 -0.00000000000E+00  0.00000000000E+00  0.20757411934E+03  0.20757411934E+03  0.00000000000E+00 0.  1.
         21   -1    0    0  503  502  0.00000000000E+00 -0.00000000000E+00 -0.14773248854E+04  0.14773248854E+04  0.00000000000E+00 0. -1.
         21    1    1    2  503  501  0.44857134220E+02 -0.20411695373E+02 -0.33570758354E+03  0.33930573447E+03  0.00000000000E+00 0. -1.
         21    1    1    2  504  502 -0.42934223131E+02  0.78394413210E+02 -0.95584406436E+03  0.96001401391E+03  0.00000000000E+00 0. -1.
         21    1    1    2  505  504  0.16955061174E+03 -0.10227795877E+03 -0.31789979810E+02  0.20054623808E+03  0.00000000000E+00 0. -1.
          1    1    1    2  501    0 -0.17147352283E+03  0.44295240933E+02  0.53590861658E+02  0.18503301828E+03  0.00000000000E+00 0.  1.
<scales pt_clust_3="49.28286" pt_clust_4="61.46333" pt_clust_5="182.81792" pt_clust_6="14000.00000"></scales>
<clustering>
<clus scale="   49.283">  2  3  1 -1</clus>
<clus scale="   61.463">  2  4  1 -1</clus>
<clus scale="  182.818">  2  5  1 -1</clus>
<clus scale="   49.283">  2  3  1 -1</clus>
</clustering>
</event>
<event>
 6    0  0.1631680E+002  0.1369539E+03  0.7546771E-02  0.1217487E+00
          2   -1    0    0  503    0 -0.00000000000E+00  0.00000000000E+00  0.18254136753E+04  0.18254136753E+04  0.00000000000E+00 0.  1.
         21   -1    0    0  504  502  0.00000000000E+00 -0.00000000000E+00 -0.13321312749E+03  0.13321312749E+03  0.00000000000E+00 0. -1.
         21    1    1    2  503  502 -0.73677443743E+02  0.25729896580E+02  0.14032561310E+03  0.16056671818E+03  0.00000000000E+00 0. -1.
         21    1    1    2  504  505  0.26917348837E+02 -0.30364336623E+02 -0.39765692337E+02  0.56814143433E+02  0.00000000000E+00 0. -1.
         21    1    1    2  505  501  0.30061552725E+02  0.14059756315E+03  0.54243081103E-01  0.14377543135E+03  0.00000000000E+00 0. -1.
          2    1    1    2  501    0  0.16698542181E+02 -0.13596312311E+03  0.15915863840E+04  0.15974705099E+04  0.00000000000E+00 0.  1.
<scales pt_clust_3="73.85714" pt_clust_4="40.57754" pt_clust_5="136.95391" pt_clust_6="14000.00000"></scales>
<clustering>
<clus scale="   40.578">  2  4  1 -1</clus>
<clus scale="   73.857">  2  3  1 -1</clus>
<clus scale="  136.954">  2  5  1 -1</clus>
<clus scale="   40.578">  2  3  1 -1</clus>
</clustering>
</event>
<event>
 6    0  0.1631680E+002  0.1032269E+03  0.7546771E-02  0.1273653E+00
          2   -1    0    0  504    0 -0.00000000000E+00  0.00000000000E+00  0.10012928832E+04  0.10012928832E+04  0.00000000000E+00 0. -1.
         21   -1    0    0  501  502  0.00000000000E+00 -0.00000000000E+00 -0.38143677034E+03  0.38143677034E+03  0.00000000000E+00 0.  1.
         21    1    1    2  503  505 -0.90308197008E+02 -0.24417633237E+02 -0.14973571842E+03  0.17655757313E+03  0.00000000000E+00 0.  1.
         21    1    1    2  504  503  0.37610730436E+02  0.23006491164E+02  0.17830404767E+03  0.18367416557E+03  0.00000000000E+00 0. -1.
         21    1    1    2  505  502 -0.96708104948E+01  0.55977556974E+02 -0.20968807582E+03  0.21724663542E+03  0.00000000000E+00 0.  1.
          2    1    1    2  501    0  0.62368277066E+02 -0.54566414901E+02  0.80097585941E+03  0.80525127940E+03  0.00000000000E+00 0. -1.
<scales pt_clust_3="103.22691" pt_clust_4="44.08929" pt_clust_5="56.88205" pt_clust_6="14000.00000"></scales>
<clustering>
<clus scale="   44.089">  1  4  2 -1</clus>
<clus scale="   56.882">  2  5  1 -1</clus>
<clus scale="  103.227">  2  3  1 -1</clus>
<clus scale="   56.882">  2  3  1 -1</clus>
</clustering>
</event>
<event>
 6    0  0.1631680E+002  0.1043136E+03  0.7546771E-02  0.1271478E+00
          1   -1    0    0  504    0 -0.00000000000E+00  0.00000000000E+00  0.15948477684E+04  0.15948477684E+04  0.00000000000E+00 0. -1.
         21   -1    0    0  501  502  0.00000000000E+00 -0.00000000000E+00 -0.66743430631E+02  0.66743430631E+02  0.00000000000E+00 0.  1.
         21    1    1    2  503  502 -0.37974039866E+02 -0.10429893117E+02 -0.34076928844E+02  0.52077321874E+02  0.00000000000E+00 0.  1.
         21    1    1    2  504  505 -0.76225811934E+01 -0.29850755663E+02  0.19272709706E+03  0.19517403849E+03  0.00000000000E+00 0.  1.
         21    1    1    2  505  503  0.72922524465E+01 -0.89767234160E+02  0.88624336128E+02  0.12635507995E+03  0.00000000000E+00 0.  1.
          1    1    1    2  501    0  0.38304368612E+02  0.13004788294E+03  0.12808298334E+04  0.12879847587E+04  0.00000000000E+00 0. -1.
<scales pt_clust_3="39.47872" pt_clust_4="30.80862" pt_clust_5="104.31360" pt_clust_6="14000.00000"></scales>
<clustering>
<clus scale="   30.809">  1  4  2 -1</clus>
<clus scale="   39.479">  2  3  1 -1</clus>
<clus scale="  104.314">  2  5  1 -1</clus>
<clus scale="   39.479">  2  3  1 -1</clus>
</clustering>
</event>
<event>
 6    0  0.1631680E+002  0.9598430E+02  0.7546771E-02  0.1288974E+00
         21   -1    0    0  504  502  0.00000000000E+00  0.00000000000E+00  0.14232644719E+04  0.14232644719E+04  0.00000000000E+00 0.  1.
          1   -1    0    0  503    0 -0.00000000000E+00 -0.00000000000E+00 -0.88882742013E+03  0.88882742013E+03  0.00000000000E+00 0. -1.
         21    1    1    2  503  505  0.30293079949E+02 -0.69663626632E+01 -0.14260521449E+03  0.14595358201E+03  0.00000000000E+00 0.  1.
         21    1    1    2  504  501  0.10018083903E+03  0.59785119215E+02  0.67941413558E+03  0.68935769279E+03  0.00000000000E+00 0.  1.
         21    1    1    2  505  502 -0.58895942178E+01 -0.43600927341E+02  0.73126308245E+03  0.73258543798E+03  0.00000000000E+00 0.  1.
          1    1    1    2  501    0 -0.12458432477E+03 -0.92178292107E+01 -0.73363495177E+03  0.74419517925E+03  0.00000000000E+00 0. -1.
<scales pt_clust_3="31.08377" pt_clust_4="95.98430" pt_clust_5="43.99945" pt_clust_6="14000.00000"></scales>
<clustering>
<clus scale="   31.084">  2  3  1 -1</clus>
<clus scale="   43.999">  1  5  2 -1</clus>
<clus scale="   95.984">  1  4  2 -1</clus>
<clus scale="   43.999">  1  3  2 -1</clus>
</clustering>
</event>
<event>
 6    0  0.1631680E+002  0.2358704E+03  0.7546771E-02  0.1122575E+00
         21   -1    0    0  505  502  0.00000000000E+00  0.00000000000E+00  0.70059181359E+03  0.70059181359E+03  0.00000000000E+00 0.  1.
          2   -1    0    0  503    0 -0.00000000000E+00 -0.00000000000E+00 -0.60610315433E+03  0.60610315433E+03  0.00000000000E+00 0. -1.
         21    1    1    2  503  504 -0.66510618564E+02  0.36011004672E+02 -0.57965812248E+02  0.95291606288E+02  0.00000000000E+00 0. -1.
         21    1    1    2  504  502 -0.13805992878E+03 -0.94575393322E+02  0.50075019949E+03  0.52797330543E+03  0.00000000000E+00 0.  1.
         21    1    1    2  505  501 -0.87477690242E+02  0.12821915179E+02  0.10810810746E+03  0.13965711832E+03  0.00000000000E+00 0. -1.
          2    1    1    2  501    0  0.29204823759E+03  0.45742473471E+02 -0.45640383545E+03  0.54377293788E+03  0.00000000000E+00 0. -1.
<scales pt_clust_3="75.63369" pt_clust_4="14000.00000" pt_clust_5="90.53186" pt_clust_6="235.87036"></scales>
<clustering>
<clus scale="   75.634">  2  3  1 -1</clus>
<clus scale="   90.532">  1  5  2 -1</clus>
<clus scale="  235.870">  2  6  1 -1</clus>
<clus scale="   90.532">  1  3  2 -1</clus>
</clustering>
</event>
<event>
 6    0  0.1631680E+002  0.9355926E+02  0.7546771E-02  0.1294454E+00
         21   -1    0    0  504  502  0.00000000000E+00  0.00000000000E+00  0.29328903590E+02  0.29328903590E+02  0.00000000000E+00 0.  1.
          1   -1    0    0  503    0 -0.00000000000E+00 -0.00000000000E+00 -0.40799850888E+04  0.40799850888E+04  0.00000000000E+00 0. -1.
         21    1    1    2  503  505 -0.20570870779E+02  0.24857814793E+02 -0.48858643329E+03  0.48965066576E+03  0.00000000000E+00 0. -1.
         21    1    1    2  504  501  0.10373580624E+03 -0.39436002886E+02 -0.31637923029E+03  0.33527918692E+03  0.00000000000E+00 0.  1.
         21    1    1    2  505  502 -0.93492915052E+01  0.38780811608E+02 -0.21883341328E+01  0.39951838592E+02  0.00000000000E+00 0.  1.
          1    1    1    2  501    0 -0.73815643960E+02 -0.24202623515E+02 -0.32435021875E+04  0.32444323011E+04  0.00000000000E+00 0. -1.
<scales pt_clust_3="32.26564" pt_clust_4="93.55926" pt_clust_5="40.06203" pt_clust_6="14000.00000"></scales>
<clustering>
<clus scale="   32.266">  2  3  1 -1</clus>
<clus scale="   40.062">  1  5  2 -1</clus>
<clus scale="   93.559">  1  4  2 -1</clus>
<clus scale="   40.062">  1  3  2 -1</clus>
</clustering>
</event>
<event>
 6    0  0.1631680E+002  0.1243564E+03  0.7546771E-02  0.1236079E+00
         -2   -1    0    0    0  501 -0.00000000000E+00  0.00000000000E+00  0.17168967231E+04  0.17168967231E+04  0.00000000000E+00 0.  1.
         21   -1    0    0  505  502  0.00000000000E+00 -0.00000000000E+00 -0.38274375302E+02  0.38274375302E+02  0.00000000000E+00 0.  1.
         21    1    1    2  503  501 -0.97630088395E+02 -0.48723273269E+02  0.56029252943E+03  0.57081810592E+03  0.00000000000E+00 0.  1.
         21    1    1    2  504  503 -0.19427502490E+02  0.57012210905E+02  0.27725170850E+02  0.66306147105E+02  0.00000000000E+00 0.  1.
         21    1    1    2  505  504 -0.24609827042E+02 -0.19818987825E+02  0.18611503758E+02  0.36671841208E+02  0.00000000000E+00 0.  1.
         -2    1    1    2    0  502  0.14166741793E+03  0.11530050189E+02  0.10719931438E+04  0.10813750042E+04  0.00000000000E+00 0.  1.
<scales pt_clust_3="14000.00000" pt_clust_4="56.58918" pt_clust_5="31.59804" pt_clust_6="124.35642"></scales>
<clustering>
<clus scale="   31.598">  2  5  1 -1</clus>
<clus scale="   56.589">  2  4  1 -1</clus>
<clus scale="  124.356">  1  6  2 -1</clus>
<clus scale="   31.598">  2  3  1 -1</clus>
</clustering>
</event>
<event>
 6    0  0.1631680E+002  0.1521863E+03  0.7546771E-02  0.1197812E+00
         21   -1    0    0  501  502  0.00000000000E+00  0.00000000000E+00  0.11830860960E+03  0.11830860960E+03  0.00000000000E+00 0. -1.
          2   -1    0    0  505    0 -0.00000000000E+00 -0.00000000000E+00 -0.75003932290E+03  0.75003932290E+03  0.00000000000E+00 0. -1.
         21    1    1    2  503  502  0.24518436646E+02 -0.51111400850E+02  0.56630543183E+02  0.80128318675E+02  0.00000000000E+00 0. -1.
         21    1    1    2  504  503 -0.74584563639E+02  0.10047856890E+03 -0.74309348139E+02  0.14553583463E+03  0.00000000000E+00 0. -1.
         21    1    1    2  505  504 -0.45920807217E+02  0.29737890258E+02 -0.10204719881E+03  0.11578727666E+03  0.00000000000E+00 0. -1.
          2    1    1    2  501    0  0.95986934210E+02 -0.79105058308E+02 -0.51200470953E+03  0.52689650252E+03  0.00000000000E+00 0. -1.
<scales pt_clust_3="56.68800" pt_clust_4="49.96519" pt_clust_5="49.96519" pt_clust_6="132.10002"></scales>
<clustering>
<clus scale="   49.965">  4  5 -1 -1</clus>
<clus scale="   56.688">  1  3  2 -1</clus>
<clus scale="  132.100">  2  6  1 -1</clus>
<clus scale="   56.688">  1  3  2 -1</clus>
</clustering>
</event>
<event>
 6    0  0.1631680E+002  0.9028579E+02  0.7546771E-02  0.1302161E+00
         21   -1    0    0  503  502  0.00000000000E+00  0.00000000000E+00  0.82923581942E+03  0.82923581942E+03  0.00000000000E+00 0.  1.
          2   -1    0    0  505    0 -0.00000000000E+00 -0.00000000000E+00 -0.20466621119E+04  0.20466621119E+04  0.00000000000E+00 0.  1.
         21    1    1    2  503  501  0.88750418914E+02 -0.87021094292E+02  0.61982922368E+03  0.63216894438E+03  0.00000000000E+00 0.  1.
         21    1    1    2  504  502 -0.29456146201E+02  0.19432325790E+02  0.19684701274E+03  0.19998506509E+03  0.00000000000E+00 0. -1.
         21    1    1    2  505  504  0.32047822228E+02  0.98064652910E+01 -0.14067228066E+04  0.14071219863E+04  0.00000000000E+00 0.  1.
          2    1    1    2  501    0 -0.91342094941E+02  0.57782303212E+02 -0.62737972226E+03  0.63662193551E+03  0.00000000000E+00 0.  1.
<scales pt_clust_3="90.28579" pt_clust_4="35.23621" pt_clust_5="33.51462" pt_clust_6="14000.00000"></scales>
<clustering>
<clus scale="   33.515">  2  5  1 -1</clus>
<clus scale="   35.236">  1  4  2 -1</clus>
<clus scale="   90.286">  1  3  2 -1</clus>
<clus scale="   35.236">  1  3  2 -1</clus>
</clustering>
</event>
<event>
 6    0  0.1631680E+002  0.1686556E+03  0.7546771E-02  0.1179257E+00
         21   -1    0    0  504  502  0.00000000000E+00  0.00000000000E+00  0.16575110934E+03  0.16575110934E+03  0.00000000000E+00 0.  1.
          2   -1    0    0  505    0 -0.00000000000E+00 -0.00000000000E+00 -0.30301590311E+04  0.30301590311E+04  0.00000000000E+00 0. -1.
         21    1    1    2  503  502 -0.30748908349E+02 -0.13379117390E+03 -0.48792275989E+03  0.50686703700E+03  0.00000000000E+00 0. -1.
         21    1    1    2  504  501 -0.33764732196E+02  0.16949545485E+03  0.10472611375E+03  0.20207999717E+03  0.00000000000E+00 0.  1.
         21    1    1    2  505  503 -0.44844461317E+02  0.87812634154E+01 -0.44725076841E+03  0.44957912111E+03  0.00000000000E+00 0. -1.
          2    1    1    2  501    0  0.10935810186E+03 -0.44485544359E+02 -0.20339605072E+04  0.20373839851E+04  0.00000000000E+00 0. -1.
<scales pt_clust_3="168.65563" pt_clust_4="14000.00000" pt_clust_5="45.69613" pt_clust_6="82.98615"></scales>
<clustering>
<clus scale="   45.696">  2  5  1 -1</clus>
<clus scale="   82.986">  2  6  1 -1</clus>
<clus scale="  168.656">  2  3  1 -1</clus>
<clus scale="  168.656">  1  3  2 -1</clus>
</clustering>
</event>
<event>
 6    0  0.1631680E+002  0.8299886E+02  0.7546771E-02  0.1320750E+00
          2   -1    0    0  505    0 -0.00000000000E+00  0.00000000000E+00  0.14487765397E+04  0.14487765397E+04  0.00000000000E+00 0.  1.
         21   -1    0    0  503  502  0.00000000000E+00 -0.00000000000E+00 -0.52782584569E+02  0.52782584569E+02  0.00000000000E+00 0. -1.
         21    1    1    2  503  501  0.21816500164E+02 -0.23458537568E+02  0.11736777560E+02  0.34117658356E+02  0.00000000000E+00 0.  1.
         21    1    1    2  504  502  0.25543017735E+02  0.89995006728E+02  0.32058071968E+02  0.98890176303E+02  0.00000000000E+00 0. -1.
         21    1    1    2  505  504  0.57359492529E+02 -0.38898849131E+02  0.20809841764E+03  0.21933577746E+03  0.00000000000E+00 0. -1.
          2    1    1    2  501    0 -0.10471901043E+03 -0.27637620029E+02  0.11441006880E+04  0.11492155122E+04  0.00000000000E+00 0.  1.
<scales pt_clust_3="32.03533" pt_clust_4="14000.00000" pt_clust_5="73.52959" pt_clust_6="82.99886"></scales>
<clustering>
<clus scale="   32.035">  2  3  1 -1</clus>
<clus scale="   73.530">  1  5  2 -1</clus>
<clus scale="   82.999">  1  6  2 -1</clus>
<clus scale="   32.035">  2  3  1 -1</clus>
</clustering>
</event>
<event>
 6    0  0.1631680E+002  0.1052691E+03  0.7546771E-02  0.1269590E+00
         21   -1    0    0  503  502  0.00000000000E+00  0.00000000000E+00  0.33603315374E+02  0.33603315374E+02  0.00000000000E+00 0.  1.
          2   -1    0    0  504    0 -0.00000000000E+00 -0.00000000000E+00 -0.13158609039E+04  0.13158609039E+04  0.00000000000E+00 0.  1.
         21    1    1    2  503  505  0.37165150285E+02 -0.12911620050E+02 -0.23851465866E+02  0.46009246375E+02  0.00000000000E+00 0.  1.
         21    1    1    2  504  502 -0.24440254611E+02 -0.44343307610E+02 -0.46549231263E+03  0.46823791826E+03  0.00000000000E+00 0.  1.
         21    1    1    2  505  501 -0.53718357770E+02 -0.80094792208E+02 -0.16469945195E+03  0.19085792405E+03  0.00000000000E+00 0.  1.
          2    1    1    2  501    0  0.40993462096E+02  0.13734971987E+03 -0.62821435809E+03  0.64435913060E+03  0.00000000000E+00 0.  1.
<scales pt_clust_3="39.34410" pt_clust_4="50.28394" pt_clust_5="14000.00000" pt_clust_6="105.26911"></scales>
<clustering>
<clus scale="   39.344">  1  3  2 -1</clus>
<clus scale="   50.284">  2  4  1 -1</clus>
<clus scale="  105.269">  2  6  1 -1</clus>
<clus scale="   39.344">  1  3  2 -1</clus>
</clustering>
</event>
<event>
 6    0  0.1631680E+002  0.1369660E+03  0.7546771E-02  0.1217471E+00
         21   -1    0    0  503  502  0.00000000000E+00  0.00000000000E+00  0.44853102794E+02  0.44853102794E+02  0.00000000000E+00 0. -1.
          2   -1    0    0  504    0 -0.00000000000E+00 -0.00000000000E+00 -0.20643917647E+04  0.20643917647E+04  0.00000000000E+00 0. -1.
         21    1    1    2  503  505 -0.29399497917E+01  0.43742829102E+02 -0.53806724882E+02  0.69406354502E+02  0.00000000000E+00 0.  1.
         21    1    1    2  504  502 -0.47989040157E+02 -0.31994050734E+02 -0.67084601438E+03  0.67332083160E+03  0.00000000000E+00 0. -1.
         21    1    1    2  505  501 -0.18902595584E+02  0.84095373145E+02 -0.23127558685E+02  0.89242500385E+02  0.00000000000E+00 0. -1.
          2    1    1    2  501    0  0.69831585533E+02 -0.95844151514E+02 -0.12717583640E+04  0.12772751810E+04  0.00000000000E+00 0. -1.
<scales pt_clust_3="35.16303" pt_clust_4="57.67640" pt_clust_5="35.16303" pt_clust_6="127.78427"></scales>
<clustering>
<clus scale="   35.163">  3  5 -1 -1</clus>
<clus scale="   57.676">  2  4  1 -1</clus>
<clus scale="  127.784">  2  6  1 -1</clus>
<clus scale="  136.966">  1  3  2 -1</clus>
</clustering>
</event>
<event>
 6    0  0.1631680E+002  0.1741434E+03  0.7546771E-02  0.1173595E+00
         21   -1    0    0  504  502  0.00000000000E+00  0.00000000000E+00  0.76297543649E+02  0.76297543649E+02  0.00000000000E+00 0. -1.
          2   -1    0    0  503    0 -0.00000000000E+00 -0.00000000000E+00 -0.18759638917E+04  0.18759638917E+04  0.00000000000E+00 0. -1.
         21    1    1    2  503  505  0.69369626608E+02 -0.38218365482E+02 -0.99821599653E+03  0.10013530667E+04  0.00000000000E+00 0. -1.
         21    1    1    2  504  501  0.27233235990E+02  0.20770252017E+03 -0.14756956734E+03  0.25623965976E+03  0.00000000000E+00 0. -1.
         21    1    1    2  505  502 -0.47849898120E+02 -0.28773120440E+02 -0.58185341247E+02  0.80641423263E+02  0.00000000000E+00 0. -1.
          2    1    1    2  501    0 -0.48752964479E+02 -0.14071103425E+03 -0.59569544296E+03  0.61402728561E+03  0.00000000000E+00 0. -1.
<scales pt_clust_3="78.53399" pt_clust_4="14000.00000" pt_clust_5="55.83462" pt_clust_6="174.14343"></scales>
<clustering>
<clus scale="   55.835">  1  5  2 -1</clus>
<clus scale="   78.534">  2  3  1 -1</clus>
<clus scale="  174.143">  2  6  1 -1</clus>
<clus scale="   55.835">  1  3  2 -1</clus>
</clustering>
</event>
<event>
 6    0  0.1631680E+002  0.9306922E+02  0.7546771E-02  0.1295585E+00
         21   -1    0    0  501  502  0.00000000000E+00  0.00000000000E+00  0.20009751676E+02  0.20009751676E+02  0.00000000000E+00 0. -1.
          1   -1    0    0  505    0 -0.00000000000E+00 -0.00000000000E+00 -0.20091420662E+04  0.20091420662E+04  0.00000000000E+00 0. -1.
         21    1    1    2  503  502 -0.37047481451E+02  0.24017906101E+02 -0.36917950722E+02  0.57552678311E+02  0.00000000000E+00 0. -1.
         21    1    1    2  504  503  0.12320524156E+03  0.18263589686E+02 -0.50588329531E+03  0.52099040176E+03  0.00000000000E+00 0. -1.
         21    1    1    2  505  504 -0.35372857286E+02  0.62822298946E+01 -0.30339857578E+03  0.30551825024E+03  0.00000000000E+00 0.  1.
          1    1    1    2  501    0 -0.50784902820E+02 -0.48563725681E+02 -0.11429324927E+04  0.11450904875E+04  0.00000000000E+00 0. -1.
<scales pt_clust_3="45.07053" pt_clust_4="14000.00000" pt_clust_5="35.92639" pt_clust_6="93.06922"></scales>
<clustering>
<clus scale="   35.926">  2  5  1 -1</clus>
<clus scale="   45.071">  1  3  2 -1</clus>
<clus scale="   93.069">  2  6  1 -1</clus>
<clus scale="   45.071">  1  3  2 -1</clus>
</clustering>
</event>
<event>
 6    0  0.1631680E+002  0.1903205E+03  0.7546771E-02  0.1158173E+00
          2   -1    0    0  505    0 -0.00000000000E+00  0.00000000000E+00  0.10707934755E+04  0.10707934755E+04  0.00000000000E+00 0. -1.
         21   -1    0    0  504  502  0.00000000000E+00 -0.00000000000E+00 -0.10607564847E+03  0.10607564847E+03  0.00000000000E+00 0. -1.
         21    1    1    2  503  502 -0.20112644120E+03  0.63478726840E+02  0.21620785914E+03  0.30203846190E+03  0.00000000000E+00 0. -1.
         21    1    1    2  504  501  0.10134854516E+03 -0.36321797654E+02  0.18807372241E+02  0.10929097786E+03  0.00000000000E+00 0. -1.
         21    1    1    2  505  503  0.48245464061E+02  0.13685861985E+02  0.68311552119E+03  0.68495382539E+03  0.00000000000E+00 0. -1.
          2    1    1    2  501    0  0.51532431977E+02 -0.40842791171E+02  0.46587074477E+02  0.80585858836E+02  0.00000000000E+00 0. -1.
<scales pt_clust_3="183.77179" pt_clust_4="38.68144" pt_clust_5="50.14905" pt_clust_6="38.68144"></scales>
<clustering>
<clus scale="   38.681">  4  6 -1 -1</clus>
<clus scale="   50.149">  1  5  2 -1</clus>
<clus scale="  183.772">  1  3  2 -1</clus>
<clus scale="  190.320">  2  3  1 -1</clus>
</clustering>
</event>
<event>
 6    0  0.1808370E+002  0.7796832E+02  0.7546771E-02  0.1334918E+00
          3   -1    0    0  504    0 -0.00000000000E+00  0.00000000000E+00  0.16723615068E+04  0.16723615068E+04  0.00000000000E+00 0.  1.
         21   -1    0    0  505  502  0.00000000000E+00 -0.00000000000E+00 -0.18782369101E+03  0.18782369101E+03  0.00000000000E+00 0.  1.
         21    1    1    2  503  502  0.39782159132E+01 -0.38028216567E+02  0.68059008645E+02  0.78064076981E+02  0.00000000000E+00 0.  1.
         21    1    1    2  504  503 -0.37286442998E+02  0.69465640640E+01  0.98780782052E+02  0.10581198650E+03  0.00000000000E+00 0. -1.
         21    1    1    2  505  501 -0.76333213607E+02  0.15118931306E+02 -0.16870270309E+03  0.18578467002E+03  0.00000000000E+00 0.  1.
          3    1    1    2  501    0  0.10964144069E+03  0.15962721197E+02  0.14864007282E+04  0.14905244643E+04  0.00000000000E+00 0.  1.
<scales pt_clust_3="37.77163" pt_clust_4="37.92801" pt_clust_5="77.96832" pt_clust_6="14000.00000"></scales>
<clustering>
<clus scale="   37.928">  1  4  2 -1</clus>
<clus scale="   37.772">  1  3  2 -1</clus>
<clus scale="   77.968">  2  5  1 -1</clus>
<clus scale="   77.968">  2  3  1 -1</clus>
</clustering>
</event>
<event>
 6    0  0.1631680E+002  0.1241658E+03  0.7546771E-02  0.1236379E+00
         21   -1    0    0  505  502  0.00000000000E+00  0.00000000000E+00  0.82257016032E+03  0.82257016032E+03  0.00000000000E+00 0.  1.
         -2   -1    0    0    0  501 -0.00000000000E+00 -0.00000000000E+00 -0.12429312739E+03  0.12429312739E+03  0.00000000000E+00 0.  1.
         21    1    1    2  503  502 -0.85858845880E+02  0.11065994430E+03  0.52057054110E+03  0.53908353058E+03  0.00000000000E+00 0.  1.
         21    1    1    2  504  503  0.23259884110E+02 -0.10748028798E+03  0.23435758380E+03  0.25887547508E+03  0.00000000000E+00 0.  1.
         21    1    1    2  505  501  0.41407824296E+02 -0.61934786464E+02 -0.38493708792E+02  0.83858758063E+02  0.00000000000E+00 0.  1.
         -2    1    1    2    0  504  0.21191137474E+02  0.58755130147E+02 -0.18157383182E+02  0.65045523981E+02  0.00000000000E+00 0.  1.
<scales pt_clust_3="14000.00000" pt_clust_4="124.16580" pt_clust_5="59.99801" pt_clust_6="62.45982"></scales>
<clustering>
<clus scale="   62.460">  2  6  1 -1</clus>
<clus scale="   59.998">  2  5  1 -1</clus>
<clus scale="  124.166">  2  4  1 -1</clus>
<clus scale="  124.166">  1  3  2 -1</clus>
</clustering>
</event>
<event>
 6    0  0.1631680E+002  0.1004557E+03  0.7546771E-02  0.1279341E+00
         21   -1    0    0  503  502  0.00000000000E+00  0.00000000000E+00  0.76910995528E+02  0.76910995528E+02  0.00000000000E+00 0. -1.
         -4   -1    0    0    0  501 -0.00000000000E+00 -0.00000000000E+00 -0.17323453590E+04  0.17323453590E+04  0.00000000000E+00 0. -1.
         21    1    1    2  503  501 -0.15878515390E+02 -0.27121024572E+02 -0.35135729114E+03  0.35276000803E+03  0.00000000000E+00 0. -1.
         21    1    1    2  504  505  0.48898228040E+02 -0.77850506390E+02  0.14818613269E+02  0.93119972884E+02  0.00000000000E+00 0. -1.
         21    1    1    2  505  502  0.44103355304E+02  0.36436386370E+02 -0.20321350271E+02  0.60709747797E+02  0.00000000000E+00 0. -1.
         -4    1    1    2    0  504 -0.77123067954E+02  0.68535144592E+02 -0.12985743353E+04  0.13026666258E+04  0.00000000000E+00 0. -1.
<scales pt_clust_3="31.42733" pt_clust_4="100.45567" pt_clust_5="56.34219" pt_clust_6="14000.00000"></scales>
<clustering>
<clus scale="   31.427">  2  3  1 -1</clus>
<clus scale="   56.342">  1  5  2 -1</clus>
<clus scale="  100.456">  1  4  2 -1</clus>
<clus scale="   56.342">  1  3  2 -1</clus>
</clustering>
</event>
<event>
 6    0  0.1631680E+002  0.2845315E+03  0.7546771E-02  0.1093239E+00
         21   -1    0    0  505  502  0.00000000000E+00  0.00000000000E+00  0.50770146582E+03  0.50770146582E+03  0.00000000000E+00 0. -1.
          2   -1    0    0  503    0 -0.00000000000E+00 -0.00000000000E+00 -0.22242408239E+04  0.22242408239E+04  0.00000000000E+00 0.  1.
         21    1    1    2  503  504  0.17669817708E+02 -0.79713569321E+02 -0.88490381403E+02  0.12040358463E+03  0.00000000000E+00 0. -1.
         21    1    1    2  504  502  0.57767010636E+02  0.59582230279E+02 -0.41052310240E+03  0.41882727619E+03  0.00000000000E+00 0.  1.
         21    1    1    2  505  501  0.13284768751E+03  0.25111235413E+03  0.43039364966E+03  0.51569818319E+03  0.00000000000E+00 0. -1.
          2    1    1    2  501    0 -0.20828451585E+03 -0.23098101508E+03 -0.16479195239E+04  0.16770132457E+04  0.00000000000E+00 0.  1.
<scales pt_clust_3="81.64849" pt_clust_4="75.38784" pt_clust_5="284.53154" pt_clust_6="14000.00000"></scales>
<clustering>
<clus scale="   81.648">  2  3  1 -1</clus>
<clus scale="   75.388">  2  4  1 -1</clus>
<clus scale="  284.532">  1  5  2 -1</clus>
<clus scale="  284.532">  1  3  2 -1</clus>
</clustering>
</event>
<event>
 6    0  0.1631680E+002  0.1291735E+03  0.7546771E-02  0.1228687E+00
         21   -1    0    0  504  502  0.00000000000E+00  0.00000000000E+00  0.77632759588E+02  0.77632759588E+02  0.00000000000E+00 0. -1.
          2   -1    0    0  503    0 -0.00000000000E+00 -0.00000000000E+00 -0.67614900410E+03  0.67614900410E+03  0.00000000000E+00 0. -1.
         21    1    1    2  503  502 -0.19803847257E+02 -0.31225912860E+02 -0.21484927478E+02  0.42765080485E+02  0.00000000000E+00 0. -1.
         21    1    1    2  504  505 -0.22758900126E+02  0.19581144987E+02 -0.36711171616E+02  0.47424665474E+02  0.00000000000E+00 0. -1.
         21    1    1    2  505  501 -0.19218899689E+02  0.12642461371E+03 -0.22781901065E+02  0.12989058500E+03  0.00000000000E+00 0. -1.
          2    1    1    2  501    0  0.61781647072E+02 -0.11477984584E+03 -0.51753824435E+03  0.53370143273E+03  0.00000000000E+00 0. -1.
<scales pt_clust_3="36.59867" pt_clust_4="30.02314" pt_clust_5="14000.00000" pt_clust_6="129.17347"></scales>
<clustering>
<clus scale="   30.023">  1  4  2 -1</clus>
<clus scale="   36.599">  1  3  2 -1</clus>
<clus scale="  129.173">  2  6  1 -1</clus>
<clus scale="   30.023">  1  3  2 -1</clus>
</clustering>
</event>
<event>
 6    0  0.1631680E+002  0.1512965E+03  0.7546771E-02  0.1198889E+00
         21   -1    0    0  504  502  0.00000000000E+00  0.00000000000E+00  0.24799820294E+03  0.24799820294E+03  0.00000000000E+00 0. -1.
          2   -1    0    0  502    0 -0.00000000000E+00 -0.00000000000E+00 -0.35810474333E+03  0.35810474333E+03  0.00000000000E+00 0.  1.
         21    1    1    2  503  501  0.34702849030E+02 -0.18785903945E+02 -0.55229190928E+02  0.67878284071E+02  0.00000000000E+00 0.  1.
         21    1    1    2  504  505  0.10796581294E+03  0.65546933648E+02  0.46349310007E+02  0.13454098191E+03  0.00000000000E+00 0. -1.
         21    1    1    2  505  503 -0.17183339805E+03 -0.68286836862E+02  0.92390755271E+02  0.20670234743E+03  0.00000000000E+00 0. -1.
          2    1    1    2  501    0  0.29164736086E+02  0.21525807160E+02 -0.19361741474E+03  0.19698133286E+03  0.00000000000E+00 0.  1.
<scales pt_clust_3="46.95268" pt_clust_4="151.29649" pt_clust_5="14000.00000" pt_clust_6="36.24834"></scales>
<clustering>
<clus scale="   36.248">  2  6  1 -1</clus>
<clus scale="   46.953">  2  3  1 -1</clus>
<clus scale="  151.296">  1  4  2 -1</clus>
<clus scale="  151.296">  1  3  2 -1</clus>
</clustering>
</event>
<event>
 6    0  0.1631680E+002  0.6208790E+02  0.7546771E-02  0.1389273E+00
         21   -1    0    0  505  502  0.00000000000E+00  0.00000000000E+00  0.23240422506E+03  0.23240422506E+03  0.00000000000E+00 0.  1.
         -1   -1    0    0    0  501 -0.00000000000E+00 -0.00000000000E+00 -0.77585296350E+03  0.77585296350E+03  0.00000000000E+00 0. -1.
         21    1    1    2  503  502  0.25152103559E+02 -0.96382043653E+02 -0.22433440340E+02  0.10210477901E+03  0.00000000000E+00 0.  1.
         21    1    1    2  504  501  0.28654850539E+02 -0.98825491910E+01 -0.76741239819E+02  0.82510503131E+02  0.00000000000E+00 0.  1.
         21    1    1    2  505  504 -0.12236997089E+02  0.58003745162E+02  0.18340079264E+03  0.19274342866E+03  0.00000000000E+00 0.  1.
         -1    1    1    2    0  503 -0.41569957009E+02  0.48260847682E+02 -0.62767485093E+03  0.63089847775E+03  0.00000000000E+00 0. -1.
<scales pt_clust_3="62.08790" pt_clust_4="30.31114" pt_clust_5="14000.00000" pt_clust_6="42.33538"></scales>
<clustering>
<clus scale="   30.311">  2  4  1 -1</clus>
<clus scale="   42.335">  2  6  1 -1</clus>
<clus scale="   62.088">  2  3  1 -1</clus>
<clus scale="   62.088">  1  3  2 -1</clus>
</clustering>
</event>
<event>
 6    0  0.1631680E+002  0.8485160E+02  0.7546771E-02  0.1315821E+00
         21   -1    0    0  504  502  0.00000000000E+00  0.00000000000E+00  0.31619078645E+03  0.31619078645E+03  0.00000000000E+00 0. -1.
          2   -1    0    0  503    0 -0.00000000000E+00 -0.00000000000E+00 -0.91845070573E+03  0.91845070573E+03  0.00000000000E+00 0.  1.
         21    1    1    2  503  502  0.43535838710E+02 -0.86047359450E+02 -0.43130353809E+03  0.44195277948E+03  0.00000000000E+00 0.  1.
         21    1    1    2  504  505  0.33721456901E+02  0.21672022270E+02  0.18761924368E+03  0.19185357387E+03  0.00000000000E+00 0. -1.
         21    1    1    2  505  501 -0.73217518770E+01  0.61707870073E+02  0.11038872115E+03  0.12667730277E+03  0.00000000000E+00 0.  1.
          2    1    1    2  501    0 -0.69935543733E+02  0.26674671071E+01 -0.46896434602E+03  0.47415783606E+03  0.00000000000E+00 0.  1.
<scales pt_clust_3="84.85160" pt_clust_4="40.08507" pt_clust_5="14000.00000" pt_clust_6="69.31299"></scales>
<clustering>
<clus scale="   40.085">  1  4  2 -1</clus>
<clus scale="   69.313">  2  6  1 -1</clus>
<clus scale="   84.852">  2  3  1 -1</clus>
<clus scale="   40.085">  1  3  2 -1</clus>
</clustering>
</event>
<event>
 6    0  0.1631680E+002  0.9820950E+02  0.7546771E-02  0.1284107E+00
          2   -1    0    0  505    0 -0.00000000000E+00  0.00000000000E+00  0.10637362747E+04  0.10637362747E+04  0.00000000000E+00 0.  1.
         21   -1    0    0  504  502  0.00000000000E+00 -0.00000000000E+00 -0.12688273686E+03  0.12688273686E+03  0.00000000000E+00 0.  1.
         21    1    1    2  503  501 -0.61965676278E+02 -0.94812905349E+02 -0.60064467846E+02  0.12820675628E+03  0.00000000000E+00 0.  1.
         21    1    1    2  504  503  0.32143471275E+02 -0.26893980355E+02 -0.62312485529E+01  0.42371185769E+02  0.00000000000E+00 0. -1.
         21    1    1    2  505  502  0.22924562578E+02  0.23769736000E+02  0.39864698849E+02  0.51766109891E+02  0.00000000000E+00 0. -1.
          2    1    1    2  501    0  0.68976424256E+01  0.97937149704E+02  0.96328455537E+03  0.96827495959E+03  0.00000000000E+00 0.  1.
<scales pt_clust_3="98.20950" pt_clust_4="42.89237" pt_clust_5="33.02326" pt_clust_6="14000.00000"></scales>
<clustering>
<clus scale="   33.023">  2  5  1 -1</clus>
<clus scale="   42.892">  2  4  1 -1</clus>
<clus scale="   98.209">  2  3  1 -1</clus>
<clus scale="   33.023">  2  3  1 -1</clus>
</clustering>
</event>
<event>
 6    0  0.1631680E+002  0.2687129E+03  0.7546771E-02  0.1102019E+00
         21   -1    0    0  505  502  0.00000000000E+00  0.00000000000E+00  0.72856178817E+02  0.72856178817E+02  0.00000000000E+00 0. -1.
          2   -1    0    0  502    0 -0.00000000000E+00 -0.00000000000E+00 -0.12481798789E+04  0.12481798789E+04  0.00000000000E+00 0.  1.
         21    1    1    2  503  504  0.41189883066E+02  0.94644475857E+01 -0.10612594575E+03  0.11423177578E+03  0.00000000000E+00 0. -1.
         21    1    1    2  504  501 -0.10527752225E+02 -0.43141159084E+02 -0.14421817393E+03  0.15090021493E+03  0.00000000000E+00 0. -1.
         21    1    1    2  505  503  0.17391903438E+03  0.12159416037E+03 -0.17970973061E+03  0.27808012808E+03  0.00000000000E+00 0. -1.
          2    1    1    2  501    0 -0.20458116522E+03 -0.87917448873E+02 -0.74526984982E+03  0.77782393897E+03  0.00000000000E+00 0.  1.
<scales pt_clust_3="41.76485" pt_clust_4="39.67075" pt_clust_5="41.76485" pt_clust_6="267.09476"></scales>
<clustering>
<clus scale="   39.671">  4  6 -1 -1</clus>
<clus scale="   41.765">  3  5 -1 -1</clus>
<clus scale="  267.095">  2  4  1 -1</clus>
<clus scale="  268.713">  1  3  2 -1</clus>
</clustering>
</event>
<event>
 6    0  0.1631680E+002  0.1862557E+03  0.7546771E-02  0.1161882E+00
          1   -1    0    0  504    0 -0.00000000000E+00  0.00000000000E+00  0.27650719268E+04  0.27650719268E+04  0.00000000000E+00 0. -1.
         21   -1    0    0  503  502  0.00000000000E+00 -0.00000000000E+00 -0.97462511898E+02  0.97462511898E+02  0.00000000000E+00 0. -1.
         21    1    1    2  503  501  0.99196796222E+02 -0.16067964257E+03  0.61152350987E+03  0.64001480846E+03  0.00000000000E+00 0. -1.
         21    1    1    2  504  505 -0.18202361564E+02  0.26710612907E+02  0.11397621444E+03  0.11847092583E+03  0.00000000000E+00 0.  1.
         21    1    1    2  505  502 -0.18038822016E+02  0.18788212044E+03  0.31158312683E+02  0.19130062920E+03  0.00000000000E+00 0. -1.
          1    1    1    2  501    0 -0.62955612642E+02 -0.53913090774E+02  0.19109513779E+04  0.19127480752E+04  0.00000000000E+00 0. -1.
<scales pt_clust_3="186.25570" pt_clust_4="32.32310" pt_clust_5="14000.00000" pt_clust_6="83.60471"></scales>
<clustering>
<clus scale="   32.323">  1  4  2 -1</clus>
<clus scale="   83.605">  1  6  2 -1</clus>
<clus scale="  186.256">  1  3  2 -1</clus>
<clus scale="  186.256">  2  3  1 -1</clus>
</clustering>
</event>
<event>
 6    0  0.1631680E+002  0.9239575E+02  0.7546771E-02  0.1297152E+00
         -1   -1    0    0    0  501 -0.00000000000E+00  0.00000000000E+00  0.52175265265E+03  0.52175265265E+03  0.00000000000E+00 0.  1.
         21   -1    0    0  503  502  0.00000000000E+00 -0.00000000000E+00 -0.16605221950E+03  0.16605221950E+03  0.00000000000E+00 0. -1.
         21    1    1    2  503  501 -0.62186941901E+02  0.86720764960E+02  0.92307477255E+02  0.14109704878E+03  0.00000000000E+00 0. -1.
         21    1    1    2  504  502 -0.28621795129E+02  0.12337831986E+02 -0.12594769510E+03  0.12974687339E+03  0.00000000000E+00 0. -1.
         21    1    1    2  505  504  0.45148044919E+02 -0.22852258103E+02  0.76270404328E+02  0.91530029153E+02  0.00000000000E+00 0.  1.
         -1    1    1    2    0  505  0.45660692111E+02 -0.76206338843E+02  0.31307024666E+03  0.32543092082E+03  0.00000000000E+00 0.  1.
<scales pt_clust_3="14000.00000" pt_clust_4="31.16776" pt_clust_5="44.39110" pt_clust_6="92.39575"></scales>
<clustering>
<clus scale="   31.168">  2  4  1 -1</clus>
<clus scale="   44.391">  2  5  1 -1</clus>
<clus scale="   92.396">  1  6  2 -1</clus>
<clus scale="   31.168">  2  3  1 -1</clus>
</clustering>
</event>
<event>
 6    0  0.1631680E+002  0.1475043E+03  0.7546771E-02  0.1203574E+00
         -2   -1    0    0    0  501 -0.00000000000E+00  0.00000000000E+00  0.67290536831E+03  0.67290536831E+03  0.00000000000E+00 0. -1.
         21   -1    0    0  501  502  0.00000000000E+00 -0.00000000000E+00 -0.51631102668E+03  0.51631102668E+03  0.00000000000E+00 0. -1.
         21    1    1    2  503  502  0.17919533637E+02 -0.24445784737E+02 -0.15202167707E+03  0.15501385866E+03  0.00000000000E+00 0. -1.
         21    1    1    2  504  505  0.41799296718E+02 -0.11507474958E+03  0.10455420525E+03  0.16099987899E+03  0.00000000000E+00 0. -1.
         21    1    1    2  505  503  0.70238147211E+02  0.37481855076E+02 -0.31685783475E+03  0.32670655675E+03  0.00000000000E+00 0. -1.
         -2    1    1    2    0  504 -0.12995697757E+03  0.10203867924E+03  0.52091964819E+03  0.54649610059E+03  0.00000000000E+00 0. -1.
<scales pt_clust_3="30.31016" pt_clust_4="14000.00000" pt_clust_5="87.56910" pt_clust_6="147.50435"></scales>
<clustering>
<clus scale="   30.310">  2  3  1 -1</clus>
<clus scale="   87.569">  2  5  1 -1</clus>
<clus scale="  147.504">  1  6  2 -1</clus>
<clus scale="   30.310">  2  3  1 -1</clus>
</clustering>
</event>
<event>
 6    0  0.1631680E+002  0.2905599E+03  0.7546771E-02  0.1090057E+00
         21   -1    0    0  504  502  0.00000000000E+00  0.00000000000E+00  0.44145923837E+03  0.44145923837E+03  0.00000000000E+00 0.  1.
          2   -1    0    0  503    0 -0.00000000000E+00 -0.00000000000E+00 -0.20206339827E+04  0.20206339827E+04  0.00000000000E+00 0. -1.
         21    1    1    2  503  505 -0.30889670305E+02 -0.53366661184E+01 -0.12529983733E+04  0.12533904320E+04  0.00000000000E+00 0. -1.
         21    1    1    2  504  501 -0.13795561276E+03  0.20445278805E+03  0.27170729785E+03  0.36695714919E+03  0.00000000000E+00 0.  1.
         21    1    1    2  505  502 -0.13292450435E+03 -0.87662616175E+02  0.40084664484E+01  0.15927876800E+03  0.00000000000E+00 0.  1.
          2    1    1    2  501    0  0.30176978742E+03 -0.11145350576E+03 -0.60189213537E+03  0.68246687184E+03  0.00000000000E+00 0. -1.
<scales pt_clust_3="31.34728" pt_clust_4="290.55990" pt_clust_5="162.13914" pt_clust_6="14000.00000"></scales>
<clustering>
<clus scale="   31.347">  2  3  1 -1</clus>
<clus scale="  162.139">  1  5  2 -1</clus>
<clus scale="  290.560">  1  4  2 -1</clus>
<clus scale="  162.139">  1  3  2 -1</clus>
</clustering>
</event>
<event>
 6    0  0.1631680E+002  0.6201438E+02  0.7546771E-02  0.1389568E+00
          1   -1    0    0  505    0 -0.00000000000E+00  0.00000000000E+00  0.14430048217E+04  0.14430048217E+04  0.00000000000E+00 0.  1.
         21   -1    0    0  503  502  0.00000000000E+00 -0.00000000000E+00 -0.11643990373E+03  0.11643990373E+03  0.00000000000E+00 0. -1.
         21    1    1    2  503  504 -0.38817433274E+02 -0.34450328634E+02  0.46550838353E+02  0.69717994953E+02  0.00000000000E+00 0. -1.
         21    1    1    2  504  501  0.68699200905E+02  0.32815415732E+02  0.41325206950E+03  0.42020674038E+03  0.00000000000E+00 0. -1.
         21    1    1    2  505  502 -0.16614818929E+02  0.64997755691E+02 -0.89064083974E+02  0.11150413224E+03  0.00000000000E+00 0. -1.
          1    1    1    2  501    0 -0.13266948702E+02 -0.63362842789E+02  0.95582609413E+03  0.95801585791E+03  0.00000000000E+00 0.  1.
<scales pt_clust_3="51.90008" pt_clust_4="14000.00000" pt_clust_5="62.57097" pt_clust_6="62.01438"></scales>
<clustering>
<clus scale="   51.900">  2  3  1 -1</clus>
<clus scale="   62.571">  2  5  1 -1</clus>
<clus scale="   62.014">  1  6  2 -1</clus>
<clus scale="   51.900">  2  3  1 -1</clus>
</clustering>
</event>
<event>
 6    0  0.1631680E+002  0.1237484E+03  0.7546771E-02  0.1237038E+00
         21   -1    0    0  504  502  0.00000000000E+00  0.00000000000E+00  0.22573040475E+03  0.22573040475E+03  0.00000000000E+00 0.  1.
          2   -1    0    0  505    0 -0.00000000000E+00 -0.00000000000E+00 -0.46821766020E+03  0.46821766020E+03  0.00000000000E+00 0.  1.
         21    1    1    2  503  502 -0.33537240078E+02  0.44983290328E+01  0.56773609101E+01  0.34310550317E+02  0.00000000000E+00 0. -1.
         21    1    1    2  504  501  0.48227046530E+02  0.92136972552E+01 -0.74400959711E+01  0.49659795229E+02  0.00000000000E+00 0. -1.
         21    1    1    2  505  503  0.92858506212E+02  0.49516063804E+02  0.15931603170E+03  0.19093491223E+03  0.00000000000E+00 0.  1.
          2    1    1    2  501    0 -0.10754831266E+03 -0.63228090092E+02 -0.40004055209E+03  0.41904280718E+03  0.00000000000E+00 0.  1.
<scales pt_clust_3="33.83757" pt_clust_4="45.81909" pt_clust_5="14000.00000" pt_clust_6="123.74839"></scales>
<clustering>
<clus scale="   33.838">  1  3  2 -1</clus>
<clus scale="   45.819">  1  4  2 -1</clus>
<clus scale="  123.748">  2  6  1 -1</clus>
<clus scale="   33.838">  1  3  2 -1</clus>
</clustering>
</event>
<event>
 6    0  0.1631680E+002  0.1129807E+03  0.7546771E-02  0.1255148E+00
          1   -1    0    0  505    0 -0.00000000000E+00  0.00000000000E+00  0.44069279724E+04  0.44069279724E+04  0.00000000000E+00 0.  1.
         21   -1    0    0  504  502  0.00000000000E+00 -0.00000000000E+00 -0.12426793777E+02  0.12426793777E+02  0.00000000000E+00 0.  1.
         21    1    1    2  503  502 -0.78713246615E+02 -0.71110766398E+02  0.29639679062E+03  0.31480720097E+03  0.00000000000E+00 0.  1.
         21    1    1    2  504  501 -0.26092610565E+02  0.32894482432E+02  0.33284909367E+03  0.33548679625E+03  0.00000000000E+00 0. -1.
         21    1    1    2  505  503 -0.64441158741E+01 -0.34304268440E+02  0.59224573532E+03  0.59327339437E+03  0.00000000000E+00 0.  1.
          1    1    1    2  501    0  0.11124997305E+03  0.72520552407E+02  0.31730095590E+04  0.31757873746E+04  0.00000000000E+00 0.  1.
<scales pt_clust_3="112.98068" pt_clust_4="40.04945" pt_clust_5="34.90429" pt_clust_6="14000.00000"></scales>
<clustering>
<clus scale="   34.904">  1  5  2 -1</clus>
<clus scale="   40.049">  2  4  1 -1</clus>
<clus scale="  112.981">  2  3  1 -1</clus>
<clus scale="   40.049">  2  3  1 -1</clus>
</clustering>
</event>
<event>
 6    0  0.1631680E+002  0.9564301E+02  0.7546771E-02  0.1289734E+00
         21   -1    0    0  504  502  0.00000000000E+00  0.00000000000E+00  0.77558886051E+02  0.77558886051E+02  0.00000000000E+00 0. -1.
          1   -1    0    0  503    0 -0.00000000000E+00 -0.00000000000E+00 -0.66159757415E+03  0.66159757415E+03  0.00000000000E+00 0.  1.
         21    1    1    2  503  505 -0.42025615952E+02 -0.12959571950E+02 -0.58935622833E+02  0.73535777279E+02  0.00000000000E+00 0. -1.
         21    1    1    2  504  501 -0.91309736029E+02  0.77297084837E+01  0.42224559203E+01  0.91733556679E+02  0.00000000000E+00 0. -1.
         21    1    1    2  505  502  0.37304095641E+02  0.53600694526E+01 -0.18407817440E+01  0.37732139796E+02  0.00000000000E+00 0. -1.
          1    1    1    2  501    0  0.96031256340E+02 -0.13020598650E+00 -0.52748473945E+03  0.53615498645E+03  0.00000000000E+00 0.  1.
<scales pt_clust_3="39.42625" pt_clust_4="95.64301" pt_clust_5="37.68721" pt_clust_6="14000.00000"></scales>
<clustering>
<clus scale="   37.687">  1  5  2 -1</clus>
<clus scale="   39.426">  1  3  2 -1</clus>
<clus scale="   95.643">  1  4  2 -1</clus>
<clus scale="   37.687">  1  3  2 -1</clus>
</clustering>
</event>
<event>
 6    0  0.1631680E+002  0.9700785E+02  0.7546771E-02  0.1286717E+00
         -1   -1    0    0    0  501 -0.00000000000E+00  0.00000000000E+00  0.11636735827E+02  0.11636735827E+02  0.00000000000E+00 0. -1.
         21   -1    0    0  504  502  0.00000000000E+00 -0.00000000000E+00 -0.26558628108E+04  0.26558628108E+04  0.00000000000E+00 0. -1.
         21    1    1    2  503  502  0.37626166787E+02 -0.42547239717E+02 -0.54061121317E+03  0.54358668107E+03  0.00000000000E+00 0.  1.
         21    1    1    2  504  505 -0.10629524089E+03  0.70499198513E+02 -0.14627502254E+04  0.14683007311E+04  0.00000000000E+00 0. -1.
         21    1    1    2  505  501 -0.33042554511E+02 -0.14731383527E+01 -0.16412664050E+03  0.16742620663E+03  0.00000000000E+00 0. -1.
         -1    1    1    2    0  503  0.10171162861E+03 -0.26478820444E+02 -0.47673799598E+03  0.48818592784E+03  0.00000000000E+00 0. -1.
<scales pt_clust_3="53.83804" pt_clust_4="14000.00000" pt_clust_5="33.07538" pt_clust_6="97.00785"></scales>
<clustering>
<clus scale="   33.075">  1  5  2 -1</clus>
<clus scale="   53.838">  2  3  1 -1</clus>
<clus scale="   97.008">  1  6  2 -1</clus>
<clus scale="   53.838">  2  3  1 -1</clus>
</clustering>
</event>
<event>
 6    0  0.1631680E+002  0.1195404E+03  0.7546771E-02  0.1243857E+00
         21   -1    0    0  503  502  0.00000000000E+00  0.00000000000E+00  0.75691959130E+03  0.75691959130E+03  0.00000000000E+00 0.  1.
          1   -1    0    0  504    0 -0.00000000000E+00 -0.00000000000E+00 -0.10088541456E+04  0.10088541456E+04  0.00000000000E+00 0. -1.
         21    1    1    2  503  501 -0.64981749409E+02 -0.94938908549E+00  0.63476013920E+03  0.63807833643E+03  0.00000000000E+00 0.  1.
         21    1    1    2  504  505  0.52015331203E+02 -0.40955979475E+02 -0.40968608013E+02  0.77855081899E+02  0.00000000000E+00 0.  1.
         21    1    1    2  505  502 -0.50662969289E+02 -0.38222663282E+02  0.89121992841E+02  0.10940949709E+03  0.00000000000E+00 0. -1.
          1    1    1    2  501    0  0.63629387494E+02  0.80128031842E+02 -0.93484807830E+03  0.94043082145E+03  0.00000000000E+00 0. -1.
<scales pt_clust_3="14000.00000" pt_clust_4="65.77349" pt_clust_5="63.46423" pt_clust_6="119.54036"></scales>
<clustering>
<clus scale="   63.464">  1  5  2 -1</clus>
<clus scale="   65.773">  2  4  1 -1</clus>
<clus scale="  119.540">  2  6  1 -1</clus>
<clus scale="   63.464">  1  3  2 -1</clus>
</clustering>
</event>
<event>
 6    0  0.1631680E+002  0.4901949E+02  0.7546771E-02  0.1450703E+00
         21   -1    0    0  505  502  0.00000000000E+00  0.00000000000E+00  0.81267853024E+03  0.81267853024E+03  0.00000000000E+00 0. -1.
          2   -1    0    0  503    0 -0.00000000000E+00 -0.00000000000E+00 -0.20299982549E+04  0.20299982549E+04  0.00000000000E+00 0.  1.
         21    1    1    2  503  502  0.41504519730E+02 -0.10790633001E+02 -0.69667877168E+03  0.69799740245E+03  0.00000000000E+00 0. -1.
         21    1    1    2  504  501  0.53362781637E+02  0.57901709830E+02  0.50710433546E+02  0.93657581304E+02  0.00000000000E+00 0. -1.
         21    1    1    2  505  504 -0.12918279179E+02 -0.46467963916E+02  0.73776650640E+03  0.73934130926E+03  0.00000000000E+00 0. -1.
          2    1    1    2  501    0 -0.81949022188E+02 -0.64311291213E+00 -0.13091178929E+04  0.13116804921E+04  0.00000000000E+00 0.  1.
<scales pt_clust_3="42.88430" pt_clust_4="14000.00000" pt_clust_5="49.01949" pt_clust_6="42.64927"></scales>
<clustering>
<clus scale="   42.884">  2  3  1 -1</clus>
<clus scale="   42.649">  2  6  1 -1</clus>
<clus scale="   49.019">  1  5  2 -1</clus>
<clus scale="   49.019">  1  3  2 -1</clus>
</clustering>
</event>
<event>
 6    0  0.1631680E+002  0.8795743E+02  0.7546771E-02  0.1307875E+00
         21   -1    0    0  504  502  0.00000000000E+00  0.00000000000E+00  0.44606871474E+03  0.44606871474E+03  0.00000000000E+00 0. -1.
         -2   -1    0    0    0  501 -0.00000000000E+00 -0.00000000000E+00 -0.78534203672E+02  0.78534203672E+02  0.00000000000E+00 0. -1.
         21    1    1    2  503  502 -0.40091402195E+02  0.24163777278E+02  0.20231862796E+03  0.20766327524E+03  0.00000000000E+00 0. -1.
         21    1    1    2  504  501 -0.10009047472E+02  0.77662697374E+02  0.98913963780E+02  0.12615723453E+03  0.00000000000E+00 0. -1.
         21    1    1    2  505  503 -0.35196004463E+02 -0.46301869069E+02  0.67367846949E+02  0.89000273101E+02  0.00000000000E+00 0. -1.
         -2    1    1    2    0  505  0.85296454131E+02 -0.55524605582E+02 -0.10659276258E+01  0.10178213553E+03  0.00000000000E+00 0. -1.
<scales pt_clust_3="46.81035" pt_clust_4="87.95743" pt_clust_5="61.66549" pt_clust_6="14000.00000"></scales>
<clustering>
<clus scale="   46.810">  1  3  2 -1</clus>
<clus scale="   61.665">  1  5  2 -1</clus>
<clus scale="   87.957">  1  4  2 -1</clus>
<clus scale="   46.810">  1  3  2 -1</clus>
</clustering>
</event>
<event>
 6    0  0.1631680E+002  0.1484293E+03  0.7546771E-02  0.1202416E+00
          1   -1    0    0  505    0 -0.00000000000E+00  0.00000000000E+00  0.46888776513E+03  0.46888776513E+03  0.00000000000E+00 0.  1.
         21   -1    0    0  504  502  0.00000000000E+00 -0.00000000000E+00 -0.28926960280E+03  0.28926960280E+03  0.00000000000E+00 0. -1.
         21    1    1    2  503  501 -0.11548448533E+03 -0.70604450191E+02  0.12186962142E+03  0.18213692477E+03  0.00000000000E+00 0. -1.
         21    1    1    2  504  503 -0.22149798980E+01 -0.59185036309E+02 -0.75893297525E+02  0.96268204865E+02  0.00000000000E+00 0. -1.
         21    1    1    2  505  502  0.70598474680E+02 -0.45824821942E+02 -0.13277519794E+03  0.15720468225E+03  0.00000000000E+00 0. -1.
          1    1    1    2  501    0  0.47100990551E+02  0.17561430844E+03  0.26641703637E+03  0.32254755604E+03  0.00000000000E+00 0.  1.
<scales pt_clust_3="14000.00000" pt_clust_4="59.22647" pt_clust_5="111.88217" pt_clust_6="148.42934"></scales>
<clustering>
<clus scale="   59.226">  2  4  1 -1</clus>
<clus scale="  111.882">  2  5  1 -1</clus>
<clus scale="  148.429">  1  6  2 -1</clus>
<clus scale="   59.226">  2  3  1 -1</clus>
</clustering>
</event>
<event>
 6    0  0.1631680E+002  0.9998075E+02  0.7546771E-02  0.1280336E+00
         21   -1    0    0  504  502  0.00000000000E+00  0.00000000000E+00  0.15859249237E+04  0.15859249237E+04  0.00000000000E+00 0. -1.
          3   -1    0    0  503    0 -0.00000000000E+00 -0.00000000000E+00 -0.35093265551E+03  0.35093265551E+03  0.00000000000E+00 0.  1.
         21    1    1    2  503  502  0.10827169031E+03 -0.21662287629E+02  0.82821705781E+03  0.83554503677E+03  0.00000000000E+00 0. -1.
         21    1    1    2  504  505 -0.93039397085E+02 -0.15783030569E+02  0.72424075119E+03  0.73036299136E+03  0.00000000000E+00 0. -1.
         21    1    1    2  505  501 -0.56735941518E+02  0.76230458002E+01 -0.86045782509E+01  0.57888830132E+02  0.00000000000E+00 0.  1.
          3    1    1    2  501    0  0.41503648288E+02  0.29822272398E+02 -0.30886096260E+03  0.31306072090E+03  0.00000000000E+00 0.  1.
<scales pt_clust_3="14000.00000" pt_clust_4="99.98075" pt_clust_5="39.30746" pt_clust_6="51.10695"></scales>
<clustering>
<clus scale="   51.107">  2  6  1 -1</clus>
<clus scale="   39.307">  2  5  1 -1</clus>
<clus scale="   99.981">  1  4  2 -1</clus>
<clus scale="   99.981">  1  3  2 -1</clus>
</clustering>
</event>
<event>
 6    0  0.1631680E+002  0.1128112E+03  0.7546771E-02  0.1255451E+00
         21   -1    0    0  504  502  0.00000000000E+00  0.00000000000E+00  0.13372113112E+04  0.13372113112E+04  0.00000000000E+00 0. -1.
          1   -1    0    0  505    0 -0.00000000000E+00 -0.00000000000E+00 -0.83991832910E+02  0.83991832910E+02  0.00000000000E+00 0.  1.
         21    1    1    2  503  502  0.63668378611E+02  0.15517444387E+02  0.17817104379E+03  0.18984039181E+03  0.00000000000E+00 0. -1.
         21    1    1    2  504  501 -0.97117290082E+01 -0.12195374301E+03  0.10684292130E+04  0.10754106268E+04  0.00000000000E+00 0. -1.
         21    1    1    2  505  503  0.21499679829E+02  0.41192159183E+02 -0.23067777582E+02  0.51876319968E+02  0.00000000000E+00 0.  1.
          1    1    1    2  501    0 -0.75456329432E+02  0.65244139445E+02  0.29686999126E+02  0.10407580555E+03  0.00000000000E+00 0.  1.
<scales pt_clust_3="69.51352" pt_clust_4="14000.00000" pt_clust_5="46.46537" pt_clust_6="112.81123"></scales>
<clustering>
<clus scale="   46.465">  2  5  1 -1</clus>
<clus scale="   69.514">  1  3  2 -1</clus>
<clus scale="  112.811">  2  6  1 -1</clus>
<clus scale="   69.514">  1  3  2 -1</clus>
</clustering>
</event>
<event>
 6    0  0.1631680E+002  0.2277729E+03  0.7546771E-02  0.1128217E+00
          2   -1    0    0  505    0 -0.00000000000E+00  0.00000000000E+00  0.16361073609E+04  0.16361073609E+04  0.00000000000E+00 0.  1.
         21   -1    0    0  504  502  0.00000000000E+00 -0.00000000000E+00 -0.11325659973E+03  0.11325659973E+03  0.00000000000E+00 0.  1.
         21    1    1    2  503  502 -0.17963143078E+03  0.12787666529E+03  0.88285453383E+03  0.90997363717E+03  0.00000000000E+00 0.  1.
         21    1    1    2  504  501  0.34556912421E+02  0.27313336246E+02 -0.60025846565E+02  0.74453346391E+02  0.00000000000E+00 0.  1.
         21    1    1    2  505  503  0.10641673396E+02  0.36171835965E+02  0.29377871631E+03  0.29618842160E+03  0.00000000000E+00 0.  1.
          2    1    1    2  501    0  0.13443284496E+03 -0.19136183750E+03  0.40624335756E+03  0.46874855543E+03  0.00000000000E+00 0.  1.
<scales pt_clust_3="227.77285" pt_clust_4="44.21339" pt_clust_5="37.70473" pt_clust_6="14000.00000"></scales>
<clustering>
<clus scale="   37.705">  1  5  2 -1</clus>
<clus scale="   44.213">  2  4  1 -1</clus>
<clus scale="  227.773">  1  3  2 -1</clus>
<clus scale="   44.213">  2  3  1 -1</clus>
</clustering>
</event>
<event>
 6    0  0.1631680E+002  0.1217498E+03  0.7546771E-02  0.1240238E+00
         21   -1    0    0  505  502  0.00000000000E+00  0.00000000000E+00  0.11845388780E+04  0.11845388780E+04  0.00000000000E+00 0. -1.
         -2   -1    0    0    0  501 -0.00000000000E+00 -0.00000000000E+00 -0.55017519474E+03  0.55017519474E+03  0.00000000000E+00 0.  1.
         21    1    1    2  503  501 -0.18684319207E+02  0.69540816252E+02 -0.39374123011E+03  0.40027138943E+03  0.00000000000E+00 0.  1.
         21    1    1    2  504  502  0.78023729442E+01  0.10273918672E+03  0.97193132725E+03  0.97737747181E+03  0.00000000000E+00 0. -1.
         21    1    1    2  505  503 -0.25777307713E+02  0.16368770482E+02  0.14297099933E+03  0.14619546124E+03  0.00000000000E+00 0. -1.
         -2    1    1    2    0  504  0.36659253976E+02 -0.18864877346E+03 -0.86797413218E+02  0.21086975025E+03  0.00000000000E+00 0.  1.
<scales pt_clust_3="72.07781" pt_clust_4="121.74980" pt_clust_5="30.53533" pt_clust_6="14000.00000"></scales>
<clustering>
<clus scale="   30.535">  1  5  2 -1</clus>
<clus scale="   72.078">  2  3  1 -1</clus>
<clus scale="  121.750">  1  4  2 -1</clus>
<clus scale="   30.535">  1  3  2 -1</clus>
</clustering>
</event>
<event>
 6    0  0.1631680E+002  0.9723060E+02  0.7546771E-02  0.1286230E+00
         21   -1    0    0  503  502  0.00000000000E+00  0.00000000000E+00  0.13091759096E+04  0.13091759096E+04  0.00000000000E+00 0.  1.
          4   -1    0    0  504    0 -0.00000000000E+00 -0.00000000000E+00 -0.94692405515E+02  0.94692405515E+02  0.00000000000E+00 0. -1.
         21    1    1    2  503  501  0.71288454397E+02  0.13702120589E+02  0.52459237112E+03  0.52959130250E+03  0.00000000000E+00 0.  1.
         21    1    1    2  504  505 -0.82566772095E+01 -0.31908443394E+02  0.34802882448E+02  0.47932891683E+02  0.00000000000E+00 0. -1.
         21    1    1    2  505  502  0.24288641926E+02 -0.48823674417E+02  0.70384088925E+03  0.70595020128E+03  0.00000000000E+00 0.  1.
          4    1    1    2  501    0 -0.87320419113E+02  0.67029997222E+02 -0.48752638690E+02  0.12039391970E+03  0.00000000000E+00 0. -1.
<scales pt_clust_3="14000.00000" pt_clust_4="32.95939" pt_clust_5="54.83003" pt_clust_6="97.23060"></scales>
<clustering>
<clus scale="   32.959">  2  4  1 -1</clus>
<clus scale="   54.830">  1  5  2 -1</clus>
<clus scale="   97.231">  2  6  1 -1</clus>
<clus scale="   54.830">  1  3  2 -1</clus>
</clustering>
</event>
<event>
 6    0  0.1631680E+002  0.8917540E+02  0.7546771E-02  0.1304861E+00
         21   -1    0    0  504  502  0.00000000000E+00  0.00000000000E+00  0.36668263877E+02  0.36668263877E+02  0.00000000000E+00 0.  1.
          4   -1    0    0  503    0 -0.00000000000E+00 -0.00000000000E+00 -0.18333321856E+04  0.18333321856E+04  0.00000000000E+00 0. -1.
         21    1    1    2  503  505  0.24387201301E+02  0.31571603650E+02 -0.15569188614E+03  0.16072170095E+03  0.00000000000E+00 0.  1.
         21    1    1    2  504  501  0.32054036505E+02 -0.27916302499E+02 -0.59581375156E+02  0.73189626771E+02  0.00000000000E+00 0.  1.
         21    1    1    2  505  502  0.23989671490E+02  0.92391387908E+02 -0.67228461060E+02  0.11675332490E+03  0.00000000000E+00 0.  1.
          4    1    1    2  501    0 -0.80430909296E+02 -0.96046689059E+02 -0.15141621993E+04  0.15193357968E+04  0.00000000000E+00 0. -1.
<scales pt_clust_3="39.89363" pt_clust_4="42.44269" pt_clust_5="89.17540" pt_clust_6="14000.00000"></scales>
<clustering>
<clus scale="   39.894">  2  3  1 -1</clus>
<clus scale="   42.443">  1  4  2 -1</clus>
<clus scale="   89.175">  1  5  2 -1</clus>
<clus scale="   42.443">  1  3  2 -1</clus>
</clustering>
</event>
<event>
 6    0  0.1631680E+002  0.2315068E+03  0.7546771E-02  0.1125584E+00
         21   -1    0    0  501  502  0.00000000000E+00  0.00000000000E+00  0.21790215816E+03  0.21790215816E+03  0.00000000000E+00 0.  1.
          2   -1    0    0  503    0 -0.00000000000E+00 -0.00000000000E+00 -0.15224413816E+04  0.15224413816E+04  0.00000000000E+00 0.  1.
         21    1    1    2  503  504  0.44021486903E+02 -0.21989546862E+01 -0.10212848667E+04  0.10222355431E+04  0.00000000000E+00 0.  1.
         21    1    1    2  504  505 -0.73514736155E+02 -0.10612229660E+02  0.47711399105E+01  0.74429830218E+02  0.00000000000E+00 0. -1.
         21    1    1    2  505  502 -0.12599407280E+03 -0.82665488829E+02  0.12264816930E+03  0.19429529808E+03  0.00000000000E+00 0.  1.
          2    1    1    2  501    0  0.15548732205E+03  0.95476673175E+02 -0.41067366597E+03  0.44938286834E+03  0.00000000000E+00 0.  1.
<scales pt_clust_3="44.07637" pt_clust_4="59.95721" pt_clust_5="59.95721" pt_clust_6="214.76118"></scales>
<clustering>
<clus scale="   44.076">  2  3  1 -1</clus>
<clus scale="   59.957">  4  5 -1 -1</clus>
<clus scale="  214.761">  2  6  1 -1</clus>
<clus scale="  231.507">  1  3  2 -1</clus>
</clustering>
</event>
<event>
 6    0  0.1631680E+002  0.1618311E+03  0.7546771E-02  0.1186645E+00
         21   -1    0    0  505  502  0.00000000000E+00  0.00000000000E+00  0.57258543261E+02  0.57258543261E+02  0.00000000000E+00 0. -1.
          1   -1    0    0  504    0 -0.00000000000E+00 -0.00000000000E+00 -0.25571557765E+04  0.25571557765E+04  0.00000000000E+00 0.  1.
         21    1    1    2  503  502 -0.35558807473E+02  0.11514247569E+03 -0.24701206677E+03  0.27484028021E+03  0.00000000000E+00 0. -1.
         21    1    1    2  504  503 -0.77912219587E+02  0.35617530487E+02 -0.48144734828E+03  0.48900968458E+03  0.00000000000E+00 0. -1.
         21    1    1    2  505  501 -0.37765016370E+02  0.37735874034E+02  0.87051435425E+01  0.54092256143E+02  0.00000000000E+00 0. -1.
          1    1    1    2  501    0  0.15123604343E+03 -0.18849588021E+03 -0.17801429618E+04  0.17964720989E+04  0.00000000000E+00 0.  1.
<scales pt_clust_3="161.83106" pt_clust_4="93.02343" pt_clust_5="53.38720" pt_clust_6="14000.00000"></scales>
<clustering>
<clus scale="   53.387">  1  5  2 -1</clus>
<clus scale="   93.023">  2  4  1 -1</clus>
<clus scale="  161.831">  1  3  2 -1</clus>
<clus scale="   53.387">  1  3  2 -1</clus>
</clustering>
</event>
<event>
 6    0  0.1631680E+002  0.8516219E+02  0.7546771E-02  0.1315009E+00
         21   -1    0    0  504  502  0.00000000000E+00  0.00000000000E+00  0.66648177647E+02  0.66648177647E+02  0.00000000000E+00 0.  1.
          2   -1    0    0  505    0 -0.00000000000E+00 -0.00000000000E+00 -0.15209400479E+04  0.15209400479E+04  0.00000000000E+00 0.  1.
         21    1    1    2  503  502 -0.90585915519E+02 -0.33934553861E+02 -0.58541805751E+02  0.11306858563E+03  0.00000000000E+00 0.  1.
         21    1    1    2  504  501  0.36393014131E+02  0.81245045160E+02 -0.18768586157E+02  0.90980595002E+02  0.00000000000E+00 0.  1.
         21    1    1    2  505  503 -0.16441190307E+02  0.25720640670E+02 -0.22047904203E+03  0.22258228158E+03  0.00000000000E+00 0.  1.
          2    1    1    2  501    0  0.70634091695E+02 -0.73031131969E+02 -0.11565024363E+04  0.11609567633E+04  0.00000000000E+00 0.  1.
<scales pt_clust_3="85.16219" pt_clust_4="14000.00000" pt_clust_5="30.52645" pt_clust_6="75.11649"></scales>
<clustering>
<clus scale="   30.526">  2  5  1 -1</clus>
<clus scale="   75.116">  2  6  1 -1</clus>
<clus scale="   85.162">  2  3  1 -1</clus>
<clus scale="   85.162">  1  3  2 -1</clus>
</clustering>
</event>
<event>
 6    0  0.1631680E+002  0.9390294E+02  0.7546771E-02  0.1293666E+00
          1   -1    0    0  504    0 -0.00000000000E+00  0.00000000000E+00  0.31977795637E+03  0.31977795637E+03  0.00000000000E+00 0. -1.
         21   -1    0    0  503  502  0.00000000000E+00 -0.00000000000E+00 -0.10262632341E+04  0.10262632341E+04  0.00000000000E+00 0.  1.
         21    1    1    2  503  501  0.66654974725E+02 -0.21342182323E+02 -0.82371139563E+03  0.82667940442E+03  0.00000000000E+00 0.  1.
         21    1    1    2  504  505 -0.29068341783E+02  0.26341636809E+02  0.70942352410E+02  0.81065823189E+02  0.00000000000E+00 0. -1.
         21    1    1    2  505  502 -0.13166081242E+03  0.73916830682E+02 -0.14607515895E+03  0.21008621908E+03  0.00000000000E+00 0.  1.
          1    1    1    2  501    0  0.94074179478E+02 -0.78916285168E+02  0.19235892449E+03  0.22820974374E+03  0.00000000000E+00 0. -1.
<scales pt_clust_3="69.77103" pt_clust_4="39.22818" pt_clust_5="14000.00000" pt_clust_6="93.90294"></scales>
<clustering>
<clus scale="   39.228">  1  4  2 -1</clus>
<clus scale="   69.771">  2  3  1 -1</clus>
<clus scale="   93.903">  1  6  2 -1</clus>
<clus scale="   69.771">  2  3  1 -1</clus>
</clustering>
</event>
<event>
 6    0  0.1631680E+002  0.7703016E+02  0.7546771E-02  0.1337697E+00
         21   -1    0    0  504  502  0.00000000000E+00  0.00000000000E+00  0.13403898006E+04  0.13403898006E+04  0.00000000000E+00 0. -1.
         -3   -1    0    0    0  501 -0.00000000000E+00 -0.00000000000E+00 -0.14073086164E+03  0.14073086164E+03  0.00000000000E+00 0. -1.
         21    1    1    2  503  505 -0.29216516057E+02 -0.52416862650E+02  0.43499774966E+03  0.43911749511E+03  0.00000000000E+00 0. -1.
         21    1    1    2  504  501 -0.42496009099E+02 -0.43193123729E+02 -0.16617756291E+02  0.62830777100E+02  0.00000000000E+00 0. -1.
         21    1    1    2  505  502 -0.14796351930E+02  0.54047248127E+02  0.85581860541E+03  0.85765116593E+03  0.00000000000E+00 0. -1.
         -3    1    1    2    0  503  0.86508877087E+02  0.41562738252E+02 -0.74539659809E+02  0.12152122411E+03  0.00000000000E+00 0. -1.
<scales pt_clust_3="42.73726" pt_clust_4="77.03016" pt_clust_5="56.03603" pt_clust_6="14000.00000"></scales>
<clustering>
<clus scale="   56.036">  1  5  2 -1</clus>
<clus scale="   42.737">  1  3  2 -1</clus>
<clus scale="   77.030">  2  4  1 -1</clus>
<clus scale="   56.036">  1  3  2 -1</clus>
</clustering>
</event>
<event>
 6    0  0.1631680E+002  0.8976258E+02  0.7546771E-02  0.1303428E+00
         21   -1    0    0  503  502  0.00000000000E+00  0.00000000000E+00  0.18870532067E+03  0.18870532067E+03  0.00000000000E+00 0. -1.
          1   -1    0    0  505    0 -0.00000000000E+00 -0.00000000000E+00 -0.18027495162E+04  0.18027495162E+04  0.00000000000E+00 0. -1.
         21    1    1    2  503  504 -0.75945177783E+01 -0.31028413496E+02  0.12189168537E+03  0.12600802398E+03  0.00000000000E+00 0. -1.
         21    1    1    2  504  501  0.88027969814E+02  0.68272677336E+02  0.11809295621E+02  0.11202473568E+03  0.00000000000E+00 0. -1.
         21    1    1    2  505  502 -0.75745702077E+01  0.36457897116E+02 -0.43220447948E+03  0.43380556066E+03  0.00000000000E+00 0. -1.
          1    1    1    2  501    0 -0.72858881828E+02 -0.73702160956E+02 -0.13155406970E+04  0.13196165165E+04  0.00000000000E+00 0. -1.
<scales pt_clust_3="31.94431" pt_clust_4="14000.00000" pt_clust_5="36.88036" pt_clust_6="89.76258"></scales>
<clustering>
<clus scale="   31.944">  1  3  2 -1</clus>
<clus scale="   36.880">  2  5  1 -1</clus>
<clus scale="   89.763">  2  6  1 -1</clus>
<clus scale="   31.944">  1  3  2 -1</clus>
</clustering>
</event>
<event>
 6    0  0.1631680E+002  0.7868311E+02  0.7546771E-02  0.1332831E+00
          3   -1    0    0  505    0 -0.00000000000E+00  0.00000000000E+00  0.82250232469E+03  0.82250232469E+03  0.00000000000E+00 0.  1.
         21   -1    0    0  503  502  0.00000000000E+00 -0.00000000000E+00 -0.38429468744E+03  0.38429468744E+03  0.00000000000E+00 0.  1.
         21    1    1    2  503  501 -0.42376279241E+02 -0.28617775874E+02 -0.35426881163E+03  0.35794010258E+03  0.00000000000E+00 0.  1.
         21    1    1    2  504  502 -0.67466776744E+01 -0.31525849767E+02 -0.37285226287E+01  0.32454564304E+02  0.00000000000E+00 0.  1.
         21    1    1    2  505  504 -0.24128110130E+02 -0.43552443637E+02  0.30596649342E+03  0.30999109042E+03  0.00000000000E+00 0. -1.
          3    1    1    2  501    0  0.73251067045E+02  0.10369606928E+03  0.49023847810E+03  0.50641125482E+03  0.00000000000E+00 0.  1.
<scales pt_clust_3="78.68311" pt_clust_4="32.23968" pt_clust_5="49.95889" pt_clust_6="14000.00000"></scales>
<clustering>
<clus scale="   32.240">  2  4  1 -1</clus>
<clus scale="   49.959">  1  5  2 -1</clus>
<clus scale="   78.683">  2  3  1 -1</clus>
<clus scale="   32.240">  2  3  1 -1</clus>
</clustering>
</event>
<event>
 6    0  0.1631680E+002  0.9416598E+02  0.7546771E-02  0.1293066E+00
          2   -1    0    0  503    0 -0.00000000000E+00  0.00000000000E+00  0.15288034010E+04  0.15288034010E+04  0.00000000000E+00 0. -1.
         21   -1    0    0  504  502  0.00000000000E+00 -0.00000000000E+00 -0.70700692280E+03  0.70700692280E+03  0.00000000000E+00 0. -1.
         21    1    1    2  503  505  0.31568171435E+02  0.11957432331E+02  0.74087897445E+03  0.74164761472E+03  0.00000000000E+00 0. -1.
         21    1    1    2  504  501  0.14135328931E+02  0.38103460655E+02 -0.69279764580E+03  0.69398865932E+03  0.00000000000E+00 0. -1.
         21    1    1    2  505  502 -0.73474513745E+02 -0.11198001030E+03  0.45438181035E+03  0.47370967528E+03  0.00000000000E+00 0. -1.
          2    1    1    2  501    0  0.27771013379E+02  0.61919117319E+02  0.31933333921E+03  0.32646437448E+03  0.00000000000E+00 0. -1.
<scales pt_clust_3="33.75692" pt_clust_4="40.65767" pt_clust_5="14000.00000" pt_clust_6="94.16598"></scales>
<clustering>
<clus scale="   33.757">  1  3  2 -1</clus>
<clus scale="   40.658">  2  4  1 -1</clus>
<clus scale="   94.166">  1  6  2 -1</clus>
<clus scale="   40.658">  2  3  1 -1</clus>
</clustering>
</event>
<event>
 6    0  0.1631680E+002  0.7842910E+02  0.7546771E-02  0.1333569E+00
         21   -1    0    0  504  502  0.00000000000E+00  0.00000000000E+00  0.14842995933E+02  0.14842995933E+02  0.00000000000E+00 0. -1.
          2   -1    0    0  505    0 -0.00000000000E+00 -0.00000000000E+00 -0.15505810040E+04  0.15505810040E+04  0.00000000000E+00 0. -1.
         21    1    1    2  503  501 -0.24850821687E+02  0.92104568972E+02 -0.62783891891E+03  0.63504529213E+03  0.00000000000E+00 0. -1.
         21    1    1    2  504  503 -0.36254356915E+02  0.91180989665E+01 -0.58970393383E+02  0.69821382253E+02  0.00000000000E+00 0.  1.
         21    1    1    2  505  502  0.29751760882E+02 -0.37854207960E+02 -0.13871254583E+03  0.14683078256E+03  0.00000000000E+00 0.  1.
          2    1    1    2  501    0  0.31353417720E+02 -0.63368459978E+02 -0.71021614999E+03  0.71372654303E+03  0.00000000000E+00 0. -1.
<scales pt_clust_3="78.42910" pt_clust_4="37.38339" pt_clust_5="36.74746" pt_clust_6="14000.00000"></scales>
<clustering>
<clus scale="   37.383">  1  4  2 -1</clus>
<clus scale="   36.747">  1  5  2 -1</clus>
<clus scale="   78.429">  1  3  2 -1</clus>
<clus scale="   37.383">  1  3  2 -1</clus>
</clustering>
</event>
<event>
 6    0  0.1631680E+002  0.5705136E+02  0.7546771E-02  0.1410640E+00
         21   -1    0    0  501  502  0.00000000000E+00  0.00000000000E+00  0.35934012689E+03  0.35934012689E+03  0.00000000000E+00 0. -1.
          1   -1    0    0  504    0 -0.00000000000E+00 -0.00000000000E+00 -0.39758633067E+04  0.39758633067E+04  0.00000000000E+00 0.  1.
         21    1    1    2  503  502 -0.26529598243E+02 -0.35021181105E+02  0.34412000230E+03  0.34691335906E+03  0.00000000000E+00 0. -1.
         21    1    1    2  504  505  0.49740348650E+02  0.23286819538E+02 -0.91815325104E+03  0.91979441760E+03  0.00000000000E+00 0.  1.
         21    1    1    2  505  503  0.12164463363E+02  0.86915080913E+02 -0.14278108983E+03  0.16759667381E+03  0.00000000000E+00 0.  1.
          1    1    1    2  501    0 -0.35375213770E+02 -0.75180719346E+02 -0.28997088412E+04  0.29008989831E+04  0.00000000000E+00 0.  1.
<scales pt_clust_3="43.93521" pt_clust_4="52.62786" pt_clust_5="14000.00000" pt_clust_6="57.05136"></scales>
<clustering>
<clus scale="   43.935">  1  3  2 -1</clus>
<clus scale="   52.628">  2  4  1 -1</clus>
<clus scale="   57.051">  2  6  1 -1</clus>
<clus scale="   43.935">  1  3  2 -1</clus>
</clustering>
</event>
<event>
 6    0  0.1631680E+002  0.9508753E+02  0.7546771E-02  0.1290979E+00
          1   -1    0    0  503    0 -0.00000000000E+00  0.00000000000E+00  0.65749520395E+03  0.65749520395E+03  0.00000000000E+00 0.  1.
         21   -1    0    0  504  502  0.00000000000E+00 -0.00000000000E+00 -0.89333250613E+02  0.89333250613E+02  0.00000000000E+00 0. -1.
         21    1    1    2  503  505 -0.22311413317E+02  0.20728750554E+02  0.20365154169E+03  0.20591607683E+03  0.00000000000E+00 0.  1.
         21    1    1    2  504  501  0.10557571015E+02  0.33189220615E+02  0.17817525786E+02  0.39120977696E+02  0.00000000000E+00 0. -1.
         21    1    1    2  505  502 -0.10097603135E+03 -0.23435354077E+02 -0.29592913631E+02  0.10780127674E+03  0.00000000000E+00 0. -1.
          1    1    1    2  501    0  0.11272987366E+03 -0.30482617093E+02  0.37628579950E+03  0.39399012331E+03  0.00000000000E+00 0.  1.
<scales pt_clust_3="30.45456" pt_clust_4="35.68692" pt_clust_5="95.08753" pt_clust_6="14000.00000"></scales>
<clustering>
<clus scale="   30.455">  1  3  2 -1</clus>
<clus scale="   35.687">  2  4  1 -1</clus>
<clus scale="   95.088">  2  5  1 -1</clus>
<clus scale="   35.687">  2  3  1 -1</clus>
</clustering>
</event>
<event>
 6    0  0.1631680E+002  0.1239720E+03  0.7546771E-02  0.1236685E+00
          2   -1    0    0  503    0 -0.00000000000E+00  0.00000000000E+00  0.12528057289E+04  0.12528057289E+04  0.00000000000E+00 0.  1.
         21   -1    0    0  505  502  0.00000000000E+00 -0.00000000000E+00 -0.49684783507E+02  0.49684783507E+02  0.00000000000E+00 0. -1.
         21    1    1    2  503  504  0.31288522228E+02  0.33031726124E+02  0.35499186090E+03  0.35789563822E+03  0.00000000000E+00 0. -1.
         21    1    1    2  504  502  0.35444292172E+02  0.46009123256E+02  0.95931639563E+02  0.11214284079E+03  0.00000000000E+00 0. -1.
         21    1    1    2  505  501  0.57813606736E+02 -0.12594460640E+03  0.11090218274E+03  0.17749296082E+03  0.00000000000E+00 0. -1.
          2    1    1    2  501    0 -0.12454642114E+03  0.46903757020E+02  0.64129526219E+03  0.65495907257E+03  0.00000000000E+00 0.  1.
<scales pt_clust_3="45.49798" pt_clust_4="63.33438" pt_clust_5="123.97198" pt_clust_6="14000.00000"></scales>
<clustering>
<clus scale="   45.498">  1  3  2 -1</clus>
<clus scale="   63.334">  2  4  1 -1</clus>
<clus scale="  123.972">  2  5  1 -1</clus>
<clus scale="   63.334">  2  3  1 -1</clus>
</clustering>
</event>
<event>
 6    0  0.1631680E+002  0.6319644E+02  0.7546771E-02  0.1384887E+00
          1   -1    0    0  504    0 -0.00000000000E+00  0.00000000000E+00  0.30922551603E+04  0.30922551603E+04  0.00000000000E+00 0. -1.
         21   -1    0    0  503  502  0.00000000000E+00 -0.00000000000E+00 -0.18304972474E+03  0.18304972474E+03  0.00000000000E+00 0. -1.
         21    1    1    2  503  505 -0.10266399072E+03  0.22091138218E+01  0.45300843520E+02  0.11223609757E+03  0.00000000000E+00 0. -1.
         21    1    1    2  504  502  0.56061558900E+02  0.23135593106E+02 -0.13961716390E+03  0.15222058504E+03  0.00000000000E+00 0. -1.
         21    1    1    2  505  501  0.88804057847E+02 -0.33939496874E+02  0.64837629815E+03  0.65530899135E+03  0.00000000000E+00 0. -1.
          1    1    1    2  501    0 -0.42201626031E+02  0.85947899462E+01  0.23551454577E+04  0.23555392110E+04  0.00000000000E+00 0. -1.
<scales pt_clust_3="14000.00000" pt_clust_4="63.19644" pt_clust_5="57.82067" pt_clust_6="43.06794"></scales>
<clustering>
<clus scale="   43.068">  1  6  2 -1</clus>
<clus scale="   57.821">  1  5  2 -1</clus>
<clus scale="   63.196">  2  4  1 -1</clus>
<clus scale="   63.196">  2  3  1 -1</clus>
</clustering>
</event>
<event>
 6    0  0.1631680E+002  0.6214080E+02  0.7546771E-02  0.1389061E+00
          2   -1    0    0  505    0 -0.00000000000E+00  0.00000000000E+00  0.61195041085E+03  0.61195041085E+03  0.00000000000E+00 0.  1.
         21   -1    0    0  503  502  0.00000000000E+00 -0.00000000000E+00 -0.36513121995E+02  0.36513121995E+02  0.00000000000E+00 0.  1.
         21    1    1    2  503  501 -0.45482050515E+02  0.15923804219E+02  0.38066761272E+02  0.61410607989E+02  0.00000000000E+00 0.  1.
         21    1    1    2  504  502  0.55049786583E+02 -0.65963726724E+02  0.10233495239E+03  0.13361936509E+03  0.00000000000E+00 0.  1.
         21    1    1    2  505  504 -0.42889313553E+02 -0.21153976461E+02  0.13298583798E+03  0.14132309451E+03  0.00000000000E+00 0.  1.
          2    1    1    2  501    0  0.33321577485E+02  0.71193898966E+02  0.30204973721E+03  0.31211046526E+03  0.00000000000E+00 0.  1.
<scales pt_clust_3="51.82092" pt_clust_4="62.14080" pt_clust_5="47.82242" pt_clust_6="14000.00000"></scales>
<clustering>
<clus scale="   47.822">  1  5  2 -1</clus>
<clus scale="   51.821">  2  3  1 -1</clus>
<clus scale="   62.141">  2  4  1 -1</clus>
<clus scale="   51.821">  2  3  1 -1</clus>
</clustering>
</event>
<event>
 6    0  0.1631680E+002  0.8181311E+02  0.7546771E-02  0.1323983E+00
          2   -1    0    0  505    0 -0.00000000000E+00  0.00000000000E+00  0.20148803056E+04  0.20148803056E+04  0.00000000000E+00 0.  1.
         21   -1    0    0  503  502  0.00000000000E+00 -0.00000000000E+00 -0.10662119543E+03  0.10662119543E+03  0.00000000000E+00 0.  1.
         21    1    1    2  503  501  0.22888994772E+02  0.79144532784E+02 -0.77735731436E+02  0.11327226975E+03  0.00000000000E+00 0.  1.
         21    1    1    2  504  502 -0.80889788092E+02 -0.89272726491E+01  0.16772356358E+03  0.18642437554E+03  0.00000000000E+00 0. -1.
         21    1    1    2  505  504  0.26091220830E+02 -0.27879719578E+02  0.27670409525E+03  0.27932630899E+03  0.00000000000E+00 0. -1.
          2    1    1    2  501    0  0.31909572490E+02 -0.42337540557E+02  0.15415671828E+04  0.15424785468E+04  0.00000000000E+00 0.  1.
<scales pt_clust_3="81.81311" pt_clust_4="79.11019" pt_clust_5="38.18417" pt_clust_6="14000.00000"></scales>
<clustering>
<clus scale="   38.184">  1  5  2 -1</clus>
<clus scale="   79.110">  1  4  2 -1</clus>
<clus scale="   81.813">  2  3  1 -1</clus>
<clus scale="   81.813">  2  3  1 -1</clus>
</clustering>
</event>
<event>
 6    0  0.1631680E+002  0.7611941E+02  0.7546771E-02  0.1340439E+00
         21   -1    0    0  503  502  0.00000000000E+00  0.00000000000E+00  0.17470064004E+02  0.17470064004E+02  0.00000000000E+00 0.  1.
          2   -1    0    0  505    0 -0.00000000000E+00 -0.00000000000E+00 -0.27037597137E+04  0.27037597137E+04  0.00000000000E+00 0. -1.
         21    1    1    2  503  501 -0.43083188622E+02  0.16258444159E+02 -0.12194996165E+03  0.13035448322E+03  0.00000000000E+00 0.  1.
         21    1    1    2  504  502  0.72078326416E+02  0.14192679798E+02 -0.12178826526E+03  0.14222903660E+03  0.00000000000E+00 0.  1.
         21    1    1    2  505  504  0.25809040962E+02  0.59086955801E+02 -0.11682623453E+04  0.11700402909E+04  0.00000000000E+00 0. -1.
          2    1    1    2  501    0 -0.54804178756E+02 -0.89538079757E+02 -0.12742890775E+04  0.12786059669E+04  0.00000000000E+00 0. -1.
<scales pt_clust_3="46.04887" pt_clust_4="47.18341" pt_clust_5="76.11941" pt_clust_6="14000.00000"></scales>
<clustering>
<clus scale="   46.049">  1  3  2 -1</clus>
<clus scale="   47.183">  1  4  2 -1</clus>
<clus scale="   76.119">  2  5  1 -1</clus>
<clus scale="   46.049">  1  3  2 -1</clus>
</clustering>
</event>
<event>
 6    0  0.1631680E+002  0.9318340E+02  0.7546771E-02  0.1295321E+00
         21   -1    0    0  504  502  0.00000000000E+00  0.00000000000E+00  0.24350837781E+03  0.24350837781E+03  0.00000000000E+00 0. -1.
         -3   -1    0    0    0  501 -0.00000000000E+00 -0.00000000000E+00 -0.15712779947E+03  0.15712779947E+03  0.00000000000E+00 0. -1.
         21    1    1    2  503  502 -0.25521826630E+02  0.18553024220E+02  0.61632355499E+02  0.69239624397E+02  0.00000000000E+00 0.  1.
         21    1    1    2  504  505  0.13240790377E+03 -0.48249399093E+02  0.81831354993E+02  0.16296081785E+03  0.00000000000E+00 0. -1.
         21    1    1    2  505  501 -0.43190218638E+02  0.32799835688E+02 -0.83371264924E+02  0.99458493968E+02  0.00000000000E+00 0. -1.
         -3    1    1    2    0  503 -0.63695858506E+02 -0.31034608152E+01  0.26288132780E+02  0.68977241064E+02  0.00000000000E+00 0. -1.
<scales pt_clust_3="31.55279" pt_clust_4="14000.00000" pt_clust_5="55.65800" pt_clust_6="93.18340"></scales>
<clustering>
<clus scale="   31.553">  1  3  2 -1</clus>
<clus scale="   55.658">  2  5  1 -1</clus>
<clus scale="   93.183">  1  6  2 -1</clus>
<clus scale="   31.553">  1  3  2 -1</clus>
</clustering>
</event>
<event>
 6    0  0.1631680E+002  0.6835521E+02  0.7546771E-02  0.1365777E+00
          1   -1    0    0  505    0 -0.00000000000E+00  0.00000000000E+00  0.82387803711E+03  0.82387803711E+03  0.00000000000E+00 0.  1.
         21   -1    0    0  504  502  0.00000000000E+00 -0.00000000000E+00 -0.39843443517E+03  0.39843443517E+03  0.00000000000E+00 0.  1.
         21    1    1    2  503  502 -0.45266227173E+02  0.92767018751E+02 -0.23967372481E+03  0.26095640528E+03  0.00000000000E+00 0.  1.
         21    1    1    2  504  501  0.53665824080E+01 -0.37951813931E+02 -0.14178289685E+03  0.14687249650E+03  0.00000000000E+00 0.  1.
         21    1    1    2  505  503  0.23942259876E+02  0.21120108618E+02  0.29738407038E+03  0.29909292221E+03  0.00000000000E+00 0.  1.
          1    1    1    2  501    0  0.15957384889E+02 -0.75935313439E+02  0.50951615322E+03  0.51539064829E+03  0.00000000000E+00 0.  1.
<scales pt_clust_3="68.35521" pt_clust_4="38.24457" pt_clust_5="31.92633" pt_clust_6="14000.00000"></scales>
<clustering>
<clus scale="   31.926">  1  5  2 -1</clus>
<clus scale="   38.245">  2  4  1 -1</clus>
<clus scale="   68.355">  2  3  1 -1</clus>
<clus scale="   38.245">  2  3  1 -1</clus>
</clustering>
</event>
<event>
 6    0  0.1631680E+002  0.1432144E+03  0.7546771E-02  0.1209068E+00
         21   -1    0    0  504  502  0.00000000000E+00  0.00000000000E+00  0.10668044026E+04  0.10668044026E+04  0.00000000000E+00 0. -1.
          1   -1    0    0  503    0 -0.00000000000E+00 -0.00000000000E+00 -0.28512983201E+04  0.28512983201E+04  0.00000000000E+00 0.  1.
         21    1    1    2  503  505 -0.37411250225E+02 -0.21416136113E+01 -0.12004059024E+03  0.12575345505E+03  0.00000000000E+00 0. -1.
         21    1    1    2  504  501  0.83961290372E+02  0.10046075463E+03 -0.12824619237E+04  0.12891277855E+04  0.00000000000E+00 0.  1.
         21    1    1    2  505  502 -0.32379894190E+02 -0.13960779520E+03  0.10554409417E+04  0.10651264599E+04  0.00000000000E+00 0. -1.
          1    1    1    2  501    0 -0.14170145957E+02  0.41288654173E+02 -0.14374323453E+04  0.14380950223E+04  0.00000000000E+00 0.  1.
<scales pt_clust_3="37.47250" pt_clust_4="14000.00000" pt_clust_5="143.21443" pt_clust_6="52.54512"></scales>
<clustering>
<clus scale="   37.472">  2  3  1 -1</clus>
<clus scale="   52.545">  2  6  1 -1</clus>
<clus scale="  143.214">  1  5  2 -1</clus>
<clus scale="  143.214">  1  3  2 -1</clus>
</clustering>
</event>
<event>
 6    0  0.1631680E+002  0.1153968E+03  0.7546771E-02  0.1250890E+00
          3   -1    0    0  503    0 -0.00000000000E+00  0.00000000000E+00  0.23728343937E+03  0.23728343937E+03  0.00000000000E+00 0.  1.
         21   -1    0    0  504  502  0.00000000000E+00 -0.00000000000E+00 -0.92718309566E+03  0.92718309566E+03  0.00000000000E+00 0. -1.
         21    1    1    2  503  502 -0.33958206661E+02 -0.85014166922E+01  0.13918581332E+02  0.37671750579E+02  0.00000000000E+00 0.  1.
         21    1    1    2  504  505 -0.94652490385E+02 -0.71537124342E+02 -0.80347835792E+03  0.81219094168E+03  0.00000000000E+00 0. -1.
         21    1    1    2  505  501  0.63826086879E+02  0.76308046683E+02 -0.77388101119E+02  0.12603811150E+03  0.00000000000E+00 0. -1.
          3    1    1    2  501    0  0.64784610166E+02  0.37304943510E+01  0.17704822142E+03  0.18856573127E+03  0.00000000000E+00 0.  1.
<scales pt_clust_3="35.00620" pt_clust_4="115.39685" pt_clust_5="14000.00000" pt_clust_6="35.61594"></scales>
<clustering>
<clus scale="   35.006">  1  3  2 -1</clus>
<clus scale="   35.616">  1  6  2 -1</clus>
<clus scale="  115.397">  2  4  1 -1</clus>
<clus scale="  115.397">  2  3  1 -1</clus>
</clustering>
</event>
<event>
 6    0  0.1631680E+002  0.1247281E+03  0.7546771E-02  0.1235495E+00
          1   -1    0    0  505    0 -0.00000000000E+00  0.00000000000E+00  0.34324282764E+04  0.34324282764E+04  0.00000000000E+00 0.  1.
         21   -1    0    0  504  502  0.00000000000E+00 -0.00000000000E+00 -0.10054654303E+03  0.10054654303E+03  0.00000000000E+00 0.  1.
         21    1    1    2  503  502 -0.92853893868E+02  0.11957218472E+03 -0.22813228132E+02  0.15310060856E+03  0.00000000000E+00 0.  1.
         21    1    1    2  504  501  0.52302963510E+01 -0.33956021408E+02  0.29873492228E+02  0.45527935684E+02  0.00000000000E+00 0.  1.
         21    1    1    2  505  503  0.12154430058E+01  0.46976135004E+02  0.19714134150E+03  0.20266460740E+03  0.00000000000E+00 0.  1.
          1    1    1    2  501    0  0.86408154511E+02 -0.13259229831E+03  0.31276801277E+04  0.31316816678E+04  0.00000000000E+00 0.  1.
<scales pt_clust_3="124.72808" pt_clust_4="34.35648" pt_clust_5="45.98521" pt_clust_6="14000.00000"></scales>
<clustering>
<clus scale="   34.356">  2  4  1 -1</clus>
<clus scale="   45.985">  1  5  2 -1</clus>
<clus scale="  124.728">  2  3  1 -1</clus>
<clus scale="   34.356">  2  3  1 -1</clus>
</clustering>
</event>
<event>
 6    0  0.1631680E+002  0.1613102E+03  0.7546771E-02  0.1187225E+00
          2   -1    0    0  505    0 -0.00000000000E+00  0.00000000000E+00  0.36422523031E+03  0.36422523031E+03  0.00000000000E+00 0.  1.
         21   -1    0    0  504  502  0.00000000000E+00 -0.00000000000E+00 -0.42949121586E+03  0.42949121586E+03  0.00000000000E+00 0.  1.
         21    1    1    2  503  501 -0.62469657702E+02 -0.66415795974E+02  0.13283034981E+03  0.16111305943E+03  0.00000000000E+00 0.  1.
         21    1    1    2  504  503  0.23963125962E+02 -0.43703771953E+02 -0.33356052331E+02  0.59973971987E+02  0.00000000000E+00 0.  1.
         21    1    1    2  505  502  0.10084296579E+03  0.11913153229E+03 -0.34662640405E+03  0.38014666869E+03  0.00000000000E+00 0.  1.
          2    1    1    2  501    0 -0.62336434047E+02 -0.90119643653E+01  0.18188612101E+03  0.19248274605E+03  0.00000000000E+00 0.  1.
<scales pt_clust_3="56.79598" pt_clust_4="49.84226" pt_clust_5="145.95672" pt_clust_6="56.79598"></scales>
<clustering>
<clus scale="   49.842">  2  4  1 -1</clus>
<clus scale="   56.796">  3  6 -1 -1</clus>
<clus scale="  145.957">  2  5  1 -1</clus>
<clus scale="   49.842">  2  3  1 -1</clus>
</clustering>
</event>
<event>
 6    0  0.1631680E+002  0.8430935E+02  0.7546771E-02  0.1317249E+00
         21   -1    0    0  503  502  0.00000000000E+00  0.00000000000E+00  0.28049700246E+03  0.28049700246E+03  0.00000000000E+00 0.  1.
         -3   -1    0    0    0  501 -0.00000000000E+00 -0.00000000000E+00 -0.28994266460E+03  0.28994266460E+03  0.00000000000E+00 0. -1.
         21    1    1    2  503  505  0.18211150217E+02  0.35020978686E+02  0.14919578672E+02  0.42198445091E+02  0.00000000000E+00 0. -1.
         21    1    1    2  504  502 -0.97260945940E+02 -0.67792836914E+02  0.22242948037E+03  0.25205244311E+03  0.00000000000E+00 0.  1.
         21    1    1    2  505  501  0.17795152008E+02  0.40095610952E+02 -0.36607352610E+02  0.57135135580E+02  0.00000000000E+00 0. -1.
         -3    1    1    2    0  504  0.61254643715E+02 -0.73237527241E+01 -0.21018736856E+03  0.21905364328E+03  0.00000000000E+00 0. -1.
<scales pt_clust_3="39.47296" pt_clust_4="14000.00000" pt_clust_5="45.47229" pt_clust_6="84.30935"></scales>
<clustering>
<clus scale="   39.473">  1  3  2 -1</clus>
<clus scale="   45.472">  2  5  1 -1</clus>
<clus scale="   84.309">  2  6  1 -1</clus>
<clus scale="   39.473">  1  3  2 -1</clus>
</clustering>
</event>
<event>
 6    0  0.1631680E+002  0.2807794E+03  0.7546771E-02  0.1095264E+00
         -2   -1    0    0    0  501 -0.00000000000E+00  0.00000000000E+00  0.33494599459E+03  0.33494599459E+03  0.00000000000E+00 0. -1.
         21   -1    0    0  503  502  0.00000000000E+00 -0.00000000000E+00 -0.36479597661E+03  0.36479597661E+03  0.00000000000E+00 0. -1.
         21    1    1    2  503  504  0.15805586891E+03 -0.28560097406E+02  0.80259907158E+02  0.17955219173E+03  0.00000000000E+00 0. -1.
         21    1    1    2  504  501  0.88415580708E+02  0.81733926025E+02  0.11733879998E+03  0.16812538046E+03  0.00000000000E+00 0. -1.
         21    1    1    2  505  502 -0.28051534549E+02  0.15238097825E+02 -0.61699607733E+02  0.69468912546E+02  0.00000000000E+00 0. -1.
         -2    1    1    2    0  505 -0.21841991506E+03 -0.68411926445E+02 -0.16574908142E+03  0.28259548646E+03  0.00000000000E+00 0. -1.
<scales pt_clust_3="118.45108" pt_clust_4="118.45108" pt_clust_5="31.92316" pt_clust_6="246.12652"></scales>
<clustering>
<clus scale="   31.923">  2  5  1 -1</clus>
<clus scale="  118.451">  3  4 -1 -1</clus>
<clus scale="  246.127">  2  6  1 -1</clus>
<clus scale="   31.923">  2  3  1 -1</clus>
</clustering>
</event>
<event>
 6    0  0.1631680E+002  0.7268515E+02  0.7546771E-02  0.1351193E+00
         21   -1    0    0  503  502  0.00000000000E+00  0.00000000000E+00  0.21530515149E+02  0.21530515149E+02  0.00000000000E+00 0. -1.
          2   -1    0    0  504    0 -0.00000000000E+00 -0.00000000000E+00 -0.26598172723E+04  0.26598172723E+04  0.00000000000E+00 0.  1.
         21    1    1    2  503  505 -0.44717618669E+02 -0.21925600731E+02 -0.70683646913E+02  0.86467192205E+02  0.00000000000E+00 0. -1.
         21    1    1    2  504  502  0.66861554602E+02  0.31381307305E+02 -0.12442025260E+04  0.12463928673E+04  0.00000000000E+00 0. -1.
         21    1    1    2  505  501  0.22239157606E+02  0.52854436287E+02 -0.60813009187E+02  0.83584649623E+02  0.00000000000E+00 0. -1.
          2    1    1    2  501    0 -0.44383093539E+02 -0.62310142861E+02 -0.12625875751E+04  0.12649030784E+04  0.00000000000E+00 0.  1.
<scales pt_clust_3="49.80359" pt_clust_4="72.68515" pt_clust_5="37.70288" pt_clust_6="14000.00000"></scales>
<clustering>
<clus scale="   49.804">  1  3  2 -1</clus>
<clus scale="   37.703">  1  5  2 -1</clus>
<clus scale="   72.685">  2  4  1 -1</clus>
<clus scale="   49.804">  1  3  2 -1</clus>
</clustering>
</event>
<event>
 6    0  0.1631680E+002  0.8155876E+02  0.7546771E-02  0.1324685E+00
         -1   -1    0    0    0  501 -0.00000000000E+00  0.00000000000E+00  0.45761118934E+02  0.45761118934E+02  0.00000000000E+00 0.  1.
         21   -1    0    0  503  502  0.00000000000E+00 -0.00000000000E+00 -0.13108308888E+04  0.13108308888E+04  0.00000000000E+00 0.  1.
         21    1    1    2  503  505 -0.53497083474E+02  0.45773632225E+02 -0.61055088856E+03  0.61459706383E+03  0.00000000000E+00 0.  1.
         21    1    1    2  504  502  0.11680098004E+02 -0.38618610282E+02 -0.52510466762E+03  0.52665238413E+03  0.00000000000E+00 0.  1.
         21    1    1    2  505  501 -0.55462981703E+02 -0.15821108175E+02 -0.96236368090E+02  0.11219575904E+03  0.00000000000E+00 0.  1.
         -1    1    1    2    0  504  0.97279967172E+02  0.86660862327E+01 -0.33177845594E+02  0.10314680073E+03  0.00000000000E+00 0.  1.
<scales pt_clust_3="47.05570" pt_clust_4="40.34627" pt_clust_5="81.55876" pt_clust_6="14000.00000"></scales>
<clustering>
<clus scale="   40.346">  2  4  1 -1</clus>
<clus scale="   47.056">  2  3  1 -1</clus>
<clus scale="   81.559">  2  5  1 -1</clus>
<clus scale="   40.346">  2  3  1 -1</clus>
</clustering>
</event>
<event>
 6    0  0.1631680E+002  0.1006178E+03  0.7546771E-02  0.1279002E+00
          2   -1    0    0  504    0 -0.00000000000E+00  0.00000000000E+00  0.16089491358E+04  0.16089491358E+04  0.00000000000E+00 0. -1.
         21   -1    0    0  501  502  0.00000000000E+00 -0.00000000000E+00 -0.74549765219E+02  0.74549765219E+02  0.00000000000E+00 0.  1.
         21    1    1    2  503  505  0.33995859113E+02  0.54943189418E+02 -0.80789441793E+01  0.65113300018E+02  0.00000000000E+00 0. -1.
         21    1    1    2  504  503  0.48938826909E+02 -0.11940934091E+02  0.49783532291E+03  0.50037746095E+03  0.00000000000E+00 0. -1.
         21    1    1    2  505  502 -0.50192765215E+01  0.30967817772E+02 -0.26758416044E+02  0.41233623459E+02  0.00000000000E+00 0.  1.
          2    1    1    2  501    0 -0.77915409500E+02 -0.73970073099E+02  0.10714014079E+04  0.10767745166E+04  0.00000000000E+00 0. -1.
<scales pt_clust_3="30.17867" pt_clust_4="50.37454" pt_clust_5="30.17867" pt_clust_6="90.81987"></scales>
<clustering>
<clus scale="   30.179">  3  5 -1 -1</clus>
<clus scale="   50.375">  1  4  2 -1</clus>
<clus scale="   90.820">  1  6  2 -1</clus>
<clus scale="  100.618">  2  3  1 -1</clus>
</clustering>
</event>
<event>
 6    0  0.1631680E+002  0.7585696E+02  0.7546771E-02  0.1341238E+00
         21   -1    0    0  504  502  0.00000000000E+00  0.00000000000E+00  0.73143288318E+03  0.73143288318E+03  0.00000000000E+00 0.  1.
         -1   -1    0    0    0  501 -0.00000000000E+00 -0.00000000000E+00 -0.61352584625E+03  0.61352584625E+03  0.00000000000E+00 0.  1.
         21    1    1    2  503  505 -0.37412953374E+02 -0.44993768784E+02  0.18901891903E+03  0.19786945207E+03  0.00000000000E+00 0. -1.
         21    1    1    2  504  501 -0.40322528452E+02  0.36198968765E+02 -0.15077399155E+03  0.16021569264E+03  0.00000000000E+00 0.  1.
         21    1    1    2  505  502  0.65107622642E+02  0.64185081013E+02  0.52754160075E+03  0.53540533026E+03  0.00000000000E+00 0.  1.
         -1    1    1    2    0  503  0.12627859184E+02 -0.55390280995E+02 -0.44787949131E+03  0.45146825446E+03  0.00000000000E+00 0.  1.
<scales pt_clust_3="75.85696" pt_clust_4="54.18738" pt_clust_5="14000.00000" pt_clust_6="33.47953"></scales>
<clustering>
<clus scale="   54.187">  2  4  1 -1</clus>
<clus scale="   33.480">  2  6  1 -1</clus>
<clus scale="   75.857">  2  3  1 -1</clus>
<clus scale="   75.857">  1  3  2 -1</clus>
</clustering>
</event>
<event>
 6    0  0.1631680E+002  0.9834220E+02  0.7546771E-02  0.1283821E+00
         21   -1    0    0  505  502  0.00000000000E+00  0.00000000000E+00  0.15697469440E+03  0.15697469440E+03  0.00000000000E+00 0.  1.
          1   -1    0    0  504    0 -0.00000000000E+00 -0.00000000000E+00 -0.38378975837E+03  0.38378975837E+03  0.00000000000E+00 0.  1.
         21    1    1    2  503  502 -0.32951917386E+02  0.11607976187E+02  0.31026560145E+02  0.46724954842E+02  0.00000000000E+00 0. -1.
         21    1    1    2  504  503 -0.18744260418E+02  0.63498941010E+02 -0.22192148153E+03  0.23158714725E+03  0.00000000000E+00 0.  1.
         21    1    1    2  505  501  0.74089708140E+02  0.63014730327E+02  0.37733337805E+02  0.10432615143E+03  0.00000000000E+00 0.  1.
          1    1    1    2  501    0 -0.22393530336E+02 -0.13812164752E+03 -0.73653480387E+02  0.15812619925E+03  0.00000000000E+00 0.  1.
<scales pt_clust_3="34.93671" pt_clust_4="67.05509" pt_clust_5="98.34220" pt_clust_6="14000.00000"></scales>
<clustering>
<clus scale="   34.937">  1  3  2 -1</clus>
<clus scale="   67.055">  2  4  1 -1</clus>
<clus scale="   98.342">  1  5  2 -1</clus>
<clus scale="   34.937">  1  3  2 -1</clus>
</clustering>
</event>
<event>
 6    0  0.1631680E+002  0.1139741E+03  0.7546771E-02  0.1253382E+00
         21   -1    0    0  501  502  0.00000000000E+00  0.00000000000E+00  0.15104294079E+03  0.15104294079E+03  0.00000000000E+00 0.  1.
          2   -1    0    0  504    0 -0.00000000000E+00 -0.00000000000E+00 -0.87015841455E+03  0.87015841455E+03  0.00000000000E+00 0.  1.
         21    1    1    2  503  502  0.10050020871E+02  0.12551679519E+03  0.90480081882E+02  0.15505519666E+03  0.00000000000E+00 0.  1.
         21    1    1    2  504  505  0.48210789725E+02 -0.73277559481E+02 -0.40001394865E+03  0.40951805831E+03  0.00000000000E+00 0.  1.
         21    1    1    2  505  503 -0.37866477184E+00 -0.82998166550E+02 -0.63794429880E+02  0.10468318070E+03  0.00000000000E+00 0. -1.
          2    1    1    2  501    0 -0.57882145824E+02  0.30758930844E+02 -0.34578717711E+03  0.35194491967E+03  0.00000000000E+00 0.  1.
<scales pt_clust_3="14000.00000" pt_clust_4="49.50222" pt_clust_5="113.97413" pt_clust_6="65.54735"></scales>
<clustering>
<clus scale="   65.547">  2  6  1 -1</clus>
<clus scale="   49.502">  2  4  1 -1</clus>
<clus scale="  113.974">  2  5  1 -1</clus>
<clus scale="  113.974">  1  3  2 -1</clus>
</clustering>
</event>
<event>
 6    0  0.1631680E+002  0.9231573E+02  0.7546771E-02  0.1297339E+00
          1   -1    0    0  504    0 -0.00000000000E+00  0.00000000000E+00  0.62100770694E+03  0.62100770694E+03  0.00000000000E+00 0.  1.
         21   -1    0    0  505  502  0.00000000000E+00 -0.00000000000E+00 -0.21684535145E+04  0.21684535145E+04  0.00000000000E+00 0. -1.
         21    1    1    2  503  502 -0.10491069037E+03 -0.11405061020E+02 -0.14364741513E+04  0.14403452072E+04  0.00000000000E+00 0. -1.
         21    1    1    2  504  503  0.39871479135E+02  0.87670308222E+01  0.29030271615E+02  0.50093436176E+02  0.00000000000E+00 0.  1.
         21    1    1    2  505  501  0.71274408723E+02 -0.53328593260E+02 -0.71537916686E+03  0.72089620097E+03  0.00000000000E+00 0. -1.
          1    1    1    2  501    0 -0.62351974851E+01  0.55966623458E+02  0.57537723907E+03  0.57812637708E+03  0.00000000000E+00 0.  1.
<scales pt_clust_3="14000.00000" pt_clust_4="40.82396" pt_clust_5="92.31573" pt_clust_6="72.74020"></scales>
<clustering>
<clus scale="   40.824">  1  4  2 -1</clus>
<clus scale="   72.740">  1  6  2 -1</clus>
<clus scale="   92.316">  1  5  2 -1</clus>
<clus scale="   92.316">  2  3  1 -1</clus>
</clustering>
</event>
<event>
 6    0  0.1631680E+002  0.1898196E+03  0.7546771E-02  0.1158624E+00
         21   -1    0    0  504  502  0.00000000000E+00  0.00000000000E+00  0.79694002061E+02  0.79694002061E+02  0.00000000000E+00 0. -1.
          2   -1    0    0  503    0 -0.00000000000E+00 -0.00000000000E+00 -0.27567346717E+04  0.27567346717E+04  0.00000000000E+00 0. -1.
         21    1    1    2  503  505 -0.40671419434E+02 -0.67387708754E+01 -0.29574707801E+03  0.29860661336E+03  0.00000000000E+00 0. -1.
         21    1    1    2  504  501  0.34521256213E+02  0.53220991467E+02  0.60320845936E+00  0.63439379913E+02  0.00000000000E+00 0. -1.
         21    1    1    2  505  502 -0.23886237073E+02 -0.23597902807E+03 -0.29426583827E+03  0.37795375058E+03  0.00000000000E+00 0. -1.
          2    1    1    2  501    0  0.30036400294E+02  0.18949680747E+03 -0.20876309619E+04  0.20964289299E+04  0.00000000000E+00 0. -1.
<scales pt_clust_3="41.22591" pt_clust_4="63.08277" pt_clust_5="14000.00000" pt_clust_6="189.81962"></scales>
<clustering>
<clus scale="   41.226">  2  3  1 -1</clus>
<clus scale="   63.083">  1  4  2 -1</clus>
<clus scale="  189.820">  2  6  1 -1</clus>
<clus scale="   63.083">  1  3  2 -1</clus>
</clustering>
</event>
<event>
 6    0  0.1631680E+002  0.8779330E+02  0.7546771E-02  0.1308285E+00
         21   -1    0    0  503  502  0.00000000000E+00  0.00000000000E+00  0.28328934585E+03  0.28328934585E+03  0.00000000000E+00 0. -1.
          1   -1    0    0  504    0 -0.00000000000E+00 -0.00000000000E+00 -0.33791092976E+03  0.33791092976E+03  0.00000000000E+00 0. -1.
         21    1    1    2  503  501 -0.24976408399E+02  0.26186070934E+02  0.10212175982E+03  0.10834382823E+03  0.00000000000E+00 0. -1.
         21    1    1    2  504  505  0.32528827584E+02  0.21692895340E+02 -0.10889086508E+03  0.11569756622E+03  0.00000000000E+00 0.  1.
         21    1    1    2  505  502  0.86530603215E+02 -0.83200730866E+02  0.13981531829E+03  0.18427758989E+03  0.00000000000E+00 0. -1.
          1    1    1    2  501    0 -0.94083022400E+02  0.35321764592E+02 -0.18766779695E+03  0.21288129126E+03  0.00000000000E+00 0. -1.
<scales pt_clust_3="36.18745" pt_clust_4="38.98515" pt_clust_5="14000.00000" pt_clust_6="87.79330"></scales>
<clustering>
<clus scale="   36.187">  1  3  2 -1</clus>
<clus scale="   38.985">  2  4  1 -1</clus>
<clus scale="   87.793">  2  6  1 -1</clus>
<clus scale="   36.187">  1  3  2 -1</clus>
</clustering>
</event>
<event>
 6    0  0.1631680E+002  0.5949581E+02  0.7546771E-02  0.1399960E+00
         21   -1    0    0  504  502  0.00000000000E+00  0.00000000000E+00  0.35453333829E+04  0.35453333829E+04  0.00000000000E+00 0.  1.
         -2   -1    0    0    0  501 -0.00000000000E+00 -0.00000000000E+00 -0.56931026391E+02  0.56931026391E+02  0.00000000000E+00 0. -1.
         21    1    1    2  503  501 -0.16126161807E+02  0.48539726624E+02  0.73922250757E+02  0.89892476395E+02  0.00000000000E+00 0.  1.
         21    1    1    2  504  503 -0.28094334460E+02  0.71242415902E+02  0.30020141720E+04  0.30029908196E+04  0.00000000000E+00 0.  1.
         21    1    1    2  505  502 -0.17315751802E+02 -0.35273412881E+02  0.40244941853E+03  0.40436318253E+03  0.00000000000E+00 0.  1.
         -2    1    1    2    0  505  0.61536248069E+02 -0.84508729645E+02  0.10016515221E+02  0.10501793080E+03  0.00000000000E+00 0. -1.
<scales pt_clust_3="50.42318" pt_clust_4="14000.00000" pt_clust_5="39.29439" pt_clust_6="59.49581"></scales>
<clustering>
<clus scale="   39.294">  1  5  2 -1</clus>
<clus scale="   50.423">  2  3  1 -1</clus>
<clus scale="   59.496">  2  6  1 -1</clus>
<clus scale="   39.294">  1  3  2 -1</clus>
</clustering>
</event>
<event>
 6    0  0.1631680E+002  0.9382165E+02  0.7546771E-02  0.1293852E+00
          2   -1    0    0  503    0 -0.00000000000E+00  0.00000000000E+00  0.23789109689E+03  0.23789109689E+03  0.00000000000E+00 0.  1.
         21   -1    0    0  504  502  0.00000000000E+00 -0.00000000000E+00 -0.17648328390E+03  0.17648328390E+03  0.00000000000E+00 0. -1.
         21    1    1    2  503  505  0.75779111949E+02  0.51806833017E+02  0.15138401882E+03  0.17704107690E+03  0.00000000000E+00 0.  1.
         21    1    1    2  504  501 -0.47209568477E+02  0.14914894105E+02 -0.63610808727E+02  0.80607272680E+02  0.00000000000E+00 0. -1.
         21    1    1    2  505  502  0.32310264902E+02  0.27138989073E+02 -0.20935416729E+01  0.42247613692E+02  0.00000000000E+00 0.  1.
          2    1    1    2  501    0 -0.60879808374E+02 -0.93860716195E+02 -0.24271855436E+02  0.11447841752E+03  0.00000000000E+00 0.  1.
<scales pt_clust_3="93.82165" pt_clust_4="42.34042" pt_clust_5="42.19571" pt_clust_6="14000.00000"></scales>
<clustering>
<clus scale="   42.196">  2  5  1 -1</clus>
<clus scale="   42.340">  2  4  1 -1</clus>
<clus scale="   93.822">  1  3  2 -1</clus>
<clus scale="   42.196">  2  3  1 -1</clus>
</clustering>
</event>
<event>
 6    0  0.1631680E+002  0.1130727E+03  0.7546771E-02  0.1254983E+00
         21   -1    0    0  504  502  0.00000000000E+00  0.00000000000E+00  0.31604019372E+03  0.31604019372E+03  0.00000000000E+00 0.  1.
         -1   -1    0    0    0  501 -0.00000000000E+00 -0.00000000000E+00 -0.26047252598E+04  0.26047252598E+04  0.00000000000E+00 0.  1.
         21    1    1    2  503  502 -0.40553940340E+02 -0.86626910320E+02 -0.99004947927E+02  0.13766198961E+03  0.00000000000E+00 0.  1.
         21    1    1    2  504  501  0.77912305228E+02  0.84753742269E+02  0.28267601609E+03  0.30522000951E+03  0.00000000000E+00 0.  1.
         21    1    1    2  505  503 -0.25619129496E+02  0.57017427393E+02 -0.40827382214E+03  0.41303128292E+03  0.00000000000E+00 0.  1.
         -1    1    1    2    0  505 -0.11739235392E+02 -0.55144259342E+02 -0.20640823121E+04  0.20648521714E+04  0.00000000000E+00 0.  1.
<scales pt_clust_3="113.07268" pt_clust_4="14000.00000" pt_clust_5="37.69925" pt_clust_6="56.37995"></scales>
<clustering>
<clus scale="   56.380">  2  6  1 -1</clus>
<clus scale="   37.699">  2  5  1 -1</clus>
<clus scale="  113.073">  2  3  1 -1</clus>
<clus scale="  113.073">  1  3  2 -1</clus>
</clustering>
</event>
<event>
 6    0  0.1631680E+002  0.6816212E+02  0.7546771E-02  0.1366457E+00
          2   -1    0    0  505    0 -0.00000000000E+00  0.00000000000E+00  0.21593681526E+04  0.21593681526E+04  0.00000000000E+00 0.  1.
         21   -1    0    0  504  502  0.00000000000E+00 -0.00000000000E+00 -0.15363413618E+02  0.15363413618E+02  0.00000000000E+00 0.  1.
         21    1    1    2  503  502 -0.40237221933E+02  0.18116047441E+02  0.50019376221E+02  0.66702047954E+02  0.00000000000E+00 0.  1.
         21    1    1    2  504  501 -0.38643134405E+02 -0.37927637358E+02  0.20372736869E+03  0.21079999589E+03  0.00000000000E+00 0.  1.
         21    1    1    2  505  503 -0.21426698217E+02  0.51067487078E+02  0.51676913786E+03  0.51972813420E+03  0.00000000000E+00 0.  1.
          2    1    1    2  501    0  0.10030705456E+03 -0.31255897161E+02  0.13734888562E+04  0.13775013882E+04  0.00000000000E+00 0.  1.
<scales pt_clust_3="44.12737" pt_clust_4="14000.00000" pt_clust_5="62.50255" pt_clust_6="68.16212"></scales>
<clustering>
<clus scale="   44.127">  2  3  1 -1</clus>
<clus scale="   62.503">  1  5  2 -1</clus>
<clus scale="   68.162">  1  6  2 -1</clus>
<clus scale="   44.127">  2  3  1 -1</clus>
</clustering>
</event>
<event>
 6    0  0.1631680E+002  0.1191405E+03  0.7546771E-02  0.1244522E+00
         21   -1    0    0  501  502  0.00000000000E+00  0.00000000000E+00  0.49241445222E+03  0.49241445222E+03  0.00000000000E+00 0. -1.
          2   -1    0    0  503    0 -0.00000000000E+00 -0.00000000000E+00 -0.38795989839E+03  0.38795989839E+03  0.00000000000E+00 0.  1.
         21    1    1    2  503  505  0.55545174442E+02  0.21422493316E+02 -0.60848358133E+02  0.85127623667E+02  0.00000000000E+00 0. -1.
         21    1    1    2  504  502 -0.71195917451E+02 -0.47806157304E+02  0.25934526790E+03  0.27315610065E+03  0.00000000000E+00 0. -1.
         21    1    1    2  505  504  0.17417607122E+03  0.39664456022E+02  0.14831964857E+03  0.23218374407E+03  0.00000000000E+00 0. -1.
          2    1    1    2  501    0 -0.15852532821E+03 -0.13280792034E+02 -0.24236200451E+03  0.28990688221E+03  0.00000000000E+00 0.  1.
<scales pt_clust_3="59.53310" pt_clust_4="84.48482" pt_clust_5="119.14055" pt_clust_6="14000.00000"></scales>
<clustering>
<clus scale="   59.533">  2  3  1 -1</clus>
<clus scale="   84.485">  1  4  2 -1</clus>
<clus scale="  119.141">  1  5  2 -1</clus>
<clus scale="   84.485">  1  3  2 -1</clus>
</clustering>
</event>
<event>
 6    0  0.1631680E+002  0.6803758E+02  0.7546771E-02  0.1366896E+00
         21   -1    0    0  505  502  0.00000000000E+00  0.00000000000E+00  0.14796639565E+02  0.14796639565E+02  0.00000000000E+00 0. -1.
          2   -1    0    0  504    0 -0.00000000000E+00 -0.00000000000E+00 -0.42971388471E+04  0.42971388471E+04  0.00000000000E+00 0. -1.
         21    1    1    2  503  502  0.64069422335E+02  0.81615783896E+02 -0.39979526038E+03  0.41304028530E+03  0.00000000000E+00 0. -1.
         21    1    1    2  504  503 -0.46851009475E+02  0.18566613279E+02 -0.56997033745E+03  0.57219395470E+03  0.00000000000E+00 0. -1.
         21    1    1    2  505  501 -0.41857995404E+02 -0.39385446125E+02 -0.11605930750E+03  0.12951087986E+03  0.00000000000E+00 0. -1.
          2    1    1    2  501    0  0.24639582543E+02 -0.60796951050E+02 -0.31965173022E+04  0.31971903668E+04  0.00000000000E+00 0. -1.
<scales pt_clust_3="14000.00000" pt_clust_4="50.39580" pt_clust_5="68.03758" pt_clust_6="47.48794"></scales>
<clustering>
<clus scale="   50.396">  2  4  1 -1</clus>
<clus scale="   47.488">  2  6  1 -1</clus>
<clus scale="   68.038">  1  5  2 -1</clus>
<clus scale="   68.038">  1  3  2 -1</clus>
</clustering>
</event>
<event>
 6    0  0.1631680E+002  0.1143512E+03  0.7546771E-02  0.1252718E+00
         21   -1    0    0  505  502  0.00000000000E+00  0.00000000000E+00  0.51225246844E+02  0.51225246844E+02  0.00000000000E+00 0.  1.
          1   -1    0    0  504    0 -0.00000000000E+00 -0.00000000000E+00 -0.31882436293E+04  0.31882436293E+04  0.00000000000E+00 0.  1.
         21    1    1    2  503  502  0.47583478206E+02 -0.85361234373E+02 -0.61799551212E+02  0.11562833676E+03  0.00000000000E+00 0.  1.
         21    1    1    2  504  503  0.33914651998E+02 -0.18873143706E+02 -0.61480746459E+03  0.61603134473E+03  0.00000000000E+00 0. -1.
         21    1    1    2  505  501 -0.10077450570E+03  0.14748215109E+03 -0.31689888968E+03  0.36377382007E+03  0.00000000000E+00 0.  1.
          1    1    1    2  501    0  0.19276375496E+02 -0.43247773011E+02 -0.21435124769E+04  0.21440353745E+04  0.00000000000E+00 0.  1.
<scales pt_clust_3="114.35124" pt_clust_4="38.81236" pt_clust_5="14000.00000" pt_clust_6="75.74624"></scales>
<clustering>
<clus scale="   38.812">  2  4  1 -1</clus>
<clus scale="   75.746">  2  6  1 -1</clus>
<clus scale="  114.351">  1  3  2 -1</clus>
<clus scale="  114.351">  1  3  2 -1</clus>
</clustering>
</event>
<event>
 6    0  0.1631680E+002  0.1228246E+03  0.7546771E-02  0.1238509E+00
         21   -1    0    0  504  502  0.00000000000E+00  0.00000000000E+00  0.20752366829E+03  0.20752366829E+03  0.00000000000E+00 0.  1.
          2   -1    0    0  503    0 -0.00000000000E+00 -0.00000000000E+00 -0.22135917258E+04  0.22135917258E+04  0.00000000000E+00 0. -1.
         21    1    1    2  503  502 -0.53085292588E+02 -0.85765616712E+01 -0.82450225489E+03  0.82625394039E+03  0.00000000000E+00 0. -1.
         21    1    1    2  504  505 -0.34086491849E+02  0.31678771999E+02  0.13813251799E+03  0.14576016619E+03  0.00000000000E+00 0.  1.
         21    1    1    2  505  501 -0.11191317532E+02  0.85129256206E+02  0.30415144543E+02  0.91089609001E+02  0.00000000000E+00 0.  1.
          2    1    1    2  501    0  0.98363101968E+02 -0.10823146653E+03 -0.13501134652E+04  0.13580116785E+04  0.00000000000E+00 0. -1.
<scales pt_clust_3="54.15782" pt_clust_4="46.53422" pt_clust_5="14000.00000" pt_clust_6="122.82459"></scales>
<clustering>
<clus scale="   46.534">  1  4  2 -1</clus>
<clus scale="   54.158">  2  3  1 -1</clus>
<clus scale="  122.825">  2  6  1 -1</clus>
<clus scale="   46.534">  1  3  2 -1</clus>
</clustering>
</event>
<event>
 6    0  0.1631680E+002  0.1064124E+03  0.7546771E-02  0.1267361E+00
         21   -1    0    0  504  502  0.00000000000E+00  0.00000000000E+00  0.41401704531E+03  0.41401704531E+03  0.00000000000E+00 0.  1.
          2   -1    0    0  505    0 -0.00000000000E+00 -0.00000000000E+00 -0.49507501119E+03  0.49507501119E+03  0.00000000000E+00 0. -1.
         21    1    1    2  503  502 -0.30082268590E+02  0.30348823023E+00  0.42838441756E+02  0.52346605246E+02  0.00000000000E+00 0.  1.
         21    1    1    2  504  501  0.69142546809E+02 -0.14951183286E+02  0.30979010023E+03  0.31776427719E+03  0.00000000000E+00 0.  1.
         21    1    1    2  505  503  0.69040217443E+02  0.39272829012E+02  0.11446053060E+02  0.80249105004E+02  0.00000000000E+00 0.  1.
          2    1    1    2  501    0 -0.10810049566E+03 -0.24625133956E+02 -0.44513256093E+03  0.45873206906E+03  0.00000000000E+00 0. -1.
<scales pt_clust_3="30.08380" pt_clust_4="45.80253" pt_clust_5="106.41244" pt_clust_6="14000.00000"></scales>
<clustering>
<clus scale="   30.084">  1  3  2 -1</clus>
<clus scale="   45.803">  1  4  2 -1</clus>
<clus scale="  106.412">  1  5  2 -1</clus>
<clus scale="   30.084">  1  3  2 -1</clus>
</clustering>
</event>
<event>
 6    0  0.1631680E+002  0.2071148E+03  0.7546771E-02  0.1143871E+00
         21   -1    0    0  505  502  0.00000000000E+00  0.00000000000E+00  0.65900878611E+03  0.65900878611E+03  0.00000000000E+00 0. -1.
          2   -1    0    0  504    0 -0.00000000000E+00 -0.00000000000E+00 -0.89099275465E+03  0.89099275465E+03  0.00000000000E+00 0.  1.
         21    1    1    2  503  502  0.40552589180E+02 -0.85920818243E+02  0.98336851380E+02  0.13673710483E+03  0.00000000000E+00 0.  1.
         21    1    1    2  504  503  0.27552216117E+02 -0.13857249781E+03  0.49786837409E+03  0.51752717772E+03  0.00000000000E+00 0. -1.
         21    1    1    2  505  501 -0.10776078643E+03  0.95140335647E+02 -0.16476799803E+03  0.21866084180E+03  0.00000000000E+00 0. -1.
          2    1    1    2  501    0  0.39655981132E+02  0.12935298041E+03 -0.66342119598E+03  0.67707641641E+03  0.00000000000E+00 0.  1.
<scales pt_clust_3="95.01000" pt_clust_4="207.11479" pt_clust_5="14000.00000" pt_clust_6="134.41167"></scales>
<clustering>
<clus scale="   95.010">  1  3  2 -1</clus>
<clus scale="  134.412">  2  6  1 -1</clus>
<clus scale="  207.115">  1  4  2 -1</clus>
<clus scale="   95.010">  1  3  2 -1</clus>
</clustering>
</event>
<event>
 6    0  0.1631680E+002  0.1708490E+03  0.7546771E-02  0.1176965E+00
          2   -1    0    0  505    0 -0.00000000000E+00  0.00000000000E+00  0.22866502713E+03  0.22866502713E+03  0.00000000000E+00 0.  1.
         21   -1    0    0  501  502  0.00000000000E+00 -0.00000000000E+00 -0.75776259508E+03  0.75776259508E+03  0.00000000000E+00 0.  1.
         21    1    1    2  503  502  0.75144191563E+02 -0.10218405576E+02 -0.44638256673E+03  0.45277860066E+03  0.00000000000E+00 0.  1.
         21    1    1    2  504  503  0.63496698940E+02 -0.50764463019E+02 -0.21632306352E+03  0.23109420004E+03  0.00000000000E+00 0.  1.
         21    1    1    2  505  504  0.44933486736E+02 -0.10804421090E+02 -0.22228404100E+02  0.51282118659E+02  0.00000000000E+00 0. -1.
          2    1    1    2  501    0 -0.18357437724E+03  0.71787289685E+02  0.15583646640E+03  0.25127270285E+03  0.00000000000E+00 0.  1.
<scales pt_clust_3="71.72838" pt_clust_4="71.72838" pt_clust_5="46.21422" pt_clust_6="153.70862"></scales>
<clustering>
<clus scale="   46.214">  1  5  2 -1</clus>
<clus scale="   71.728">  3  4 -1 -1</clus>
<clus scale="  153.709">  1  6  2 -1</clus>
<clus scale="  170.849">  2  3  1 -1</clus>
</clustering>
</event>
<event>
 6    0  0.1631680E+002  0.1319779E+03  0.7546771E-02  0.1224550E+00
         21   -1    0    0  503  502  0.00000000000E+00  0.00000000000E+00  0.36074398903E+04  0.36074398903E+04  0.00000000000E+00 0. -1.
         -3   -1    0    0    0  501 -0.00000000000E+00 -0.00000000000E+00 -0.38779720843E+02  0.38779720843E+02  0.00000000000E+00 0.  1.
         21    1    1    2  503  505 -0.46324379810E+01 -0.38181242573E+02  0.67210454387E+03  0.67320411812E+03  0.00000000000E+00 0. -1.
         21    1    1    2  504  501 -0.67894563582E+02 -0.57786528270E+02  0.85416544895E+02  0.12347040437E+03  0.00000000000E+00 0.  1.
         21    1    1    2  505  504  0.13224645301E+03 -0.14256087437E+02  0.26042073018E+04  0.26076019694E+04  0.00000000000E+00 0. -1.
         -3    1    1    2    0  502 -0.59719451444E+02  0.11022385828E+03  0.20693177895E+03  0.24194311925E+03  0.00000000000E+00 0.  1.
<scales pt_clust_3="38.46124" pt_clust_4="90.16793" pt_clust_5="14000.00000" pt_clust_6="131.97786"></scales>
<clustering>
<clus scale="   38.461">  1  3  2 -1</clus>
<clus scale="   90.168">  2  4  1 -1</clus>
<clus scale="  131.978">  2  6  1 -1</clus>
<clus scale="   38.461">  1  3  2 -1</clus>
</clustering>
</event>
<event>
 6    0  0.1631680E+002  0.1223602E+03  0.7546771E-02  0.1239254E+00
         21   -1    0    0  505  502  0.00000000000E+00  0.00000000000E+00  0.18909515477E+03  0.18909515477E+03  0.00000000000E+00 0.  1.
         -3   -1    0    0    0  501 -0.00000000000E+00 -0.00000000000E+00 -0.48425125643E+03  0.48425125643E+03  0.00000000000E+00 0.  1.
         21    1    1    2  503  502  0.19683585255E+01 -0.37720724898E+02 -0.60669493173E+01  0.38256181150E+02  0.00000000000E+00 0.  1.
         21    1    1    2  504  501  0.26290691271E+02  0.27630274030E+02 -0.28631116530E+02  0.47690390271E+02  0.00000000000E+00 0. -1.
         21    1    1    2  505  504 -0.12198619077E+03  0.65556933025E+02  0.12518048667E+03  0.18667751993E+03  0.00000000000E+00 0.  1.
         -3    1    1    2    0  503  0.93727140970E+02 -0.55466482157E+02 -0.38563852248E+03  0.40072231984E+03  0.00000000000E+00 0.  1.
<scales pt_clust_3="37.77205" pt_clust_4="36.74018" pt_clust_5="122.36017" pt_clust_6="14000.00000"></scales>
<clustering>
<clus scale="   37.772">  1  3  2 -1</clus>
<clus scale="   36.740">  2  4  1 -1</clus>
<clus scale="  122.360">  1  5  2 -1</clus>
<clus scale="   37.772">  1  3  2 -1</clus>
</clustering>
</event>
<event>
 6    0  0.1631680E+002  0.7761301E+02  0.7546771E-02  0.1335965E+00
         21   -1    0    0  505  502  0.00000000000E+00  0.00000000000E+00  0.23898598865E+04  0.23898598865E+04  0.00000000000E+00 0.  1.
          3   -1    0    0  503    0 -0.00000000000E+00 -0.00000000000E+00 -0.21045959627E+03  0.21045959627E+03  0.00000000000E+00 0.  1.
         21    1    1    2  503  504  0.16604075162E+01 -0.57923884807E+02 -0.13945820481E+02  0.59602175238E+02  0.00000000000E+00 0.  1.
         21    1    1    2  504  502  0.60962058981E+02  0.37903525386E+02  0.17588998662E+04  0.17603641070E+04  0.00000000000E+00 0.  1.
         21    1    1    2  505  501 -0.13217735376E+03 -0.54485046834E+02  0.58295591720E+03  0.60023085107E+03  0.00000000000E+00 0.  1.
          3    1    1    2  501    0  0.69554887266E+02  0.74505406255E+02 -0.14850967268E+03  0.18012234948E+03  0.00000000000E+00 0.  1.
<scales pt_clust_3="57.94768" pt_clust_4="71.66208" pt_clust_5="14000.00000" pt_clust_6="77.61301"></scales>
<clustering>
<clus scale="   57.948">  2  3  1 -1</clus>
<clus scale="   71.662">  1  4  2 -1</clus>
<clus scale="   77.613">  2  6  1 -1</clus>
<clus scale="   71.662">  1  3  2 -1</clus>
</clustering>
</event>
<event>
 6    0  0.1631680E+002  0.7295027E+02  0.7546771E-02  0.1350338E+00
         -4   -1    0    0    0  501 -0.00000000000E+00  0.00000000000E+00  0.10055748883E+04  0.10055748883E+04  0.00000000000E+00 0.  1.
         21   -1    0    0  504  502  0.00000000000E+00 -0.00000000000E+00 -0.88041454549E+02  0.88041454549E+02  0.00000000000E+00 0. -1.
         21    1    1    2  503  501  0.22099355912E+02  0.27936029076E+02  0.34457275442E+03  0.34640898709E+03  0.00000000000E+00 0.  1.
         21    1    1    2  504  503 -0.25354154621E+02 -0.20054326578E+02 -0.41968390679E+01  0.32597893018E+02  0.00000000000E+00 0. -1.
         21    1    1    2  505  502  0.90874763368E+02  0.41943741568E+02 -0.25739886574E+02  0.10334428787E+03  0.00000000000E+00 0. -1.
         -4    1    1    2    0  505 -0.87619964659E+02 -0.49825444066E+02  0.60289740499E+03  0.61126517488E+03  0.00000000000E+00 0.  1.
<scales pt_clust_3="35.20569" pt_clust_4="32.32660" pt_clust_5="72.95027" pt_clust_6="14000.00000"></scales>
<clustering>
<clus scale="   32.327">  2  4  1 -1</clus>
<clus scale="   35.206">  1  3  2 -1</clus>
<clus scale="   72.950">  2  5  1 -1</clus>
<clus scale="   32.327">  2  3  1 -1</clus>
</clustering>
</event>
<event>
 6    0  0.1631680E+002  0.8914255E+02  0.7546771E-02  0.1304942E+00
          2   -1    0    0  503    0 -0.00000000000E+00  0.00000000000E+00  0.15194652576E+04  0.15194652576E+04  0.00000000000E+00 0. -1.
         21   -1    0    0  504  502  0.00000000000E+00 -0.00000000000E+00 -0.79213287746E+02  0.79213287746E+02  0.00000000000E+00 0. -1.
         21    1    1    2  503  502 -0.16307557639E+02 -0.68058482213E+02  0.20862630082E+03  0.22005187305E+03  0.00000000000E+00 0. -1.
         21    1    1    2  504  505 -0.92539808317E+02  0.10469895311E+02 -0.29313198529E+02  0.97634514589E+02  0.00000000000E+00 0. -1.
         21    1    1    2  505  501  0.66959539589E+02 -0.27525695568E+02  0.15590792469E+03  0.17189684360E+03  0.00000000000E+00 0. -1.
          2    1    1    2  501    0  0.41887826367E+02  0.85114282470E+02  0.11050309429E+04  0.11090953141E+04  0.00000000000E+00 0. -1.
<scales pt_clust_3="69.98495" pt_clust_4="14000.00000" pt_clust_5="89.14255" pt_clust_6="39.20435"></scales>
<clustering>
<clus scale="   69.985">  1  3  2 -1</clus>
<clus scale="   39.204">  1  6  2 -1</clus>
<clus scale="   89.143">  1  5  2 -1</clus>
<clus scale="   89.143">  2  3  1 -1</clus>
</clustering>
</event>
<event>
 6    0  0.1631680E+002  0.7939062E+02  0.7546771E-02  0.1330790E+00
         21   -1    0    0  504  502  0.00000000000E+00  0.00000000000E+00  0.28319716243E+03  0.28319716243E+03  0.00000000000E+00 0. -1.
          1   -1    0    0  503    0 -0.00000000000E+00 -0.00000000000E+00 -0.12712676569E+03  0.12712676569E+03  0.00000000000E+00 0. -1.
         21    1    1    2  503  502  0.49154013409E+02  0.59081861467E+01  0.85777261925E+01  0.50245408590E+02  0.00000000000E+00 0. -1.
         21    1    1    2  504  505  0.81811930780E+02 -0.12251929745E+02  0.13877995124E+03  0.16156477545E+03  0.00000000000E+00 0. -1.
         21    1    1    2  505  501 -0.75073428446E+02 -0.31889418984E+02  0.69769248878E+02  0.10733453680E+03  0.00000000000E+00 0. -1.
          1    1    1    2  501    0 -0.55892515743E+02  0.38233162582E+02 -0.61056529568E+02  0.91179207279E+02  0.00000000000E+00 0. -1.
<scales pt_clust_3="49.50781" pt_clust_4="14000.00000" pt_clust_5="79.39062" pt_clust_6="47.23753"></scales>
<clustering>
<clus scale="   49.508">  2  3  1 -1</clus>
<clus scale="   47.238">  2  6  1 -1</clus>
<clus scale="   79.391">  2  5  1 -1</clus>
<clus scale="   79.391">  1  3  2 -1</clus>
</clustering>
</event>
<event>
 6    0  0.1631680E+002  0.9011646E+02  0.7546771E-02  0.1302570E+00
          1   -1    0    0  503    0 -0.00000000000E+00  0.00000000000E+00  0.24075873372E+03  0.24075873372E+03  0.00000000000E+00 0. -1.
         21   -1    0    0  501  502  0.00000000000E+00 -0.00000000000E+00 -0.83498465504E+02  0.83498465504E+02  0.00000000000E+00 0. -1.
         21    1    1    2  503  504 -0.12836091254E+02  0.29527220083E+02  0.33894768641E+02  0.46749088823E+02  0.00000000000E+00 0. -1.
         21    1    1    2  504  505  0.60757337042E+02  0.70158283219E+02  0.56709624450E+02  0.10876405755E+03  0.00000000000E+00 0. -1.
         21    1    1    2  505  502  0.22969804349E+02 -0.43080675841E+02 -0.10166303546E+02  0.49868930914E+02  0.00000000000E+00 0. -1.
          1    1    1    2  501    0 -0.70891050136E+02 -0.56604827461E+02  0.76822178676E+02  0.11887512195E+03  0.00000000000E+00 0. -1.
<scales pt_clust_3="32.19661" pt_clust_4="90.11646" pt_clust_5="45.64377" pt_clust_6="14000.00000"></scales>
<clustering>
<clus scale="   32.197">  1  3  2 -1</clus>
<clus scale="   45.644">  2  5  1 -1</clus>
<clus scale="   90.116">  2  4  1 -1</clus>
<clus scale="   45.644">  2  3  1 -1</clus>
</clustering>
</event>
<event>
 6    0  0.1631680E+002  0.8463045E+02  0.7546771E-02  0.1316402E+00
          1   -1    0    0  505    0 -0.00000000000E+00  0.00000000000E+00  0.18759547525E+03  0.18759547525E+03  0.00000000000E+00 0.  1.
         21   -1    0    0  503  502  0.00000000000E+00 -0.00000000000E+00 -0.29232312826E+03  0.29232312826E+03  0.00000000000E+00 0.  1.
         21    1    1    2  503  501  0.10908914496E+02  0.62468896335E+02 -0.20975535868E+02  0.66793267099E+02  0.00000000000E+00 0.  1.
         21    1    1    2  504  502  0.76613948895E+02 -0.38442134645E+02 -0.21671221508E+03  0.23304866240E+03  0.00000000000E+00 0.  1.
         21    1    1    2  505  504 -0.16749482798E+02 -0.25533111683E+02  0.12663664138E+01  0.30562863905E+02  0.00000000000E+00 0. -1.
          1    1    1    2  501    0 -0.70773380593E+02  0.15063499930E+01  0.13169373152E+03  0.14951381011E+03  0.00000000000E+00 0.  1.
<scales pt_clust_3="59.69532" pt_clust_4="14000.00000" pt_clust_5="30.53662" pt_clust_6="84.63045"></scales>
<clustering>
<clus scale="   30.537">  1  5  2 -1</clus>
<clus scale="   59.695">  2  3  1 -1</clus>
<clus scale="   84.630">  1  6  2 -1</clus>
<clus scale="   59.695">  2  3  1 -1</clus>
</clustering>
</event>
<event>
 6    0  0.1631680E+002  0.1461669E+03  0.7546771E-02  0.1205264E+00
         21   -1    0    0  504  502  0.00000000000E+00  0.00000000000E+00  0.93310298654E+02  0.93310298654E+02  0.00000000000E+00 0.  1.
          2   -1    0    0  503    0 -0.00000000000E+00 -0.00000000000E+00 -0.22355808728E+04  0.22355808728E+04  0.00000000000E+00 0. -1.
         21    1    1    2  503  505  0.32080979416E+02 -0.10957928496E+02 -0.28564077614E+03  0.28764547351E+03  0.00000000000E+00 0.  1.
         21    1    1    2  504  501 -0.12693258558E+02 -0.35908055750E+02  0.32656978389E+02  0.50169567649E+02  0.00000000000E+00 0.  1.
         21    1    1    2  505  502 -0.11272900408E+03 -0.45294167619E+02 -0.27355361306E+02  0.12452993927E+03  0.00000000000E+00 0.  1.
          2    1    1    2  501    0  0.93341283225E+02  0.92160151865E+02 -0.18619314151E+04  0.18665461910E+04  0.00000000000E+00 0. -1.
<scales pt_clust_3="33.90082" pt_clust_4="38.08421" pt_clust_5="146.16693" pt_clust_6="14000.00000"></scales>
<clustering>
<clus scale="   33.901">  2  3  1 -1</clus>
<clus scale="   38.084">  1  4  2 -1</clus>
<clus scale="  146.167">  1  5  2 -1</clus>
<clus scale="   38.084">  1  3  2 -1</clus>
</clustering>
</event>
<event>
 6    0  0.1631680E+002  0.7965221E+02  0.7546771E-02  0.1330041E+00
          1   -1    0    0  503    0 -0.00000000000E+00  0.00000000000E+00  0.22915393353E+04  0.22915393353E+04  0.00000000000E+00 0. -1.
         21   -1    0    0  505  502  0.00000000000E+00 -0.00000000000E+00 -0.57821739027E+02  0.57821739027E+02  0.00000000000E+00 0.  1.
         21    1    1    2  503  504 -0.10124128937E+02 -0.65234248709E+02  0.91871672776E+03  0.92108546349E+03  0.00000000000E+00 0. -1.
         21    1    1    2  504  502 -0.90271044251E+02 -0.17190709298E+02 -0.79787438833E+01  0.92239049596E+02  0.00000000000E+00 0.  1.
         21    1    1    2  505  501  0.28390822375E+02 -0.23906121712E+02  0.10619119705E+03  0.11249049640E+03  0.00000000000E+00 0.  1.
          1    1    1    2  501    0  0.72004350814E+02  0.10633107972E+03  0.12167884154E+04  0.12235460649E+04  0.00000000000E+00 0. -1.
<scales pt_clust_3="66.43618" pt_clust_4="79.65221" pt_clust_5="37.11525" pt_clust_6="14000.00000"></scales>
<clustering>
<clus scale="   37.115">  2  5  1 -1</clus>
<clus scale="   66.436">  1  3  2 -1</clus>
<clus scale="   79.652">  2  4  1 -1</clus>
<clus scale="   37.115">  2  3  1 -1</clus>
</clustering>
</event>
<event>
 6    0  0.1631680E+002  0.1911115E+03  0.7546771E-02  0.1157463E+00
         -1   -1    0    0    0  501 -0.00000000000E+00  0.00000000000E+00  0.17526846802E+03  0.17526846802E+03  0.00000000000E+00 0.  1.
         21   -1    0    0  505  502  0.00000000000E+00 -0.00000000000E+00 -0.58775823871E+03  0.58775823871E+03  0.00000000000E+00 0. -1.
         21    1    1    2  503  501  0.21559129389E+02  0.22877528058E+02 -0.11189768733E+02  0.33367473299E+02  0.00000000000E+00 0. -1.
         21    1    1    2  504  502 -0.12292095968E+02 -0.32790003993E+02 -0.67193269730E+02  0.75770808905E+02  0.00000000000E+00 0. -1.
         21    1    1    2  505  503  0.18830003295E+03  0.82017224560E+02 -0.38602331281E+03  0.43726162141E+03  0.00000000000E+00 0. -1.
         -1    1    1    2    0  504 -0.19756706637E+03 -0.72104748625E+02  0.51916580570E+02  0.21662680311E+03  0.00000000000E+00 0.  1.
<scales pt_clust_3="31.43529" pt_clust_4="34.26248" pt_clust_5="14000.00000" pt_clust_6="191.11148"></scales>
<clustering>
<clus scale="   31.435">  1  3  2 -1</clus>
<clus scale="   34.262">  2  4  1 -1</clus>
<clus scale="  191.111">  1  6  2 -1</clus>
<clus scale="   34.262">  2  3  1 -1</clus>
</clustering>
</event>
<event>
 6    0  0.1631680E+002  0.1086583E+03  0.7546771E-02  0.1263075E+00
         21   -1    0    0  504  502  0.00000000000E+00  0.00000000000E+00  0.22090697868E+04  0.22090697868E+04  0.00000000000E+00 0. -1.
          2   -1    0    0  503    0 -0.00000000000E+00 -0.00000000000E+00 -0.14757807792E+03  0.14757807792E+03  0.00000000000E+00 0. -1.
         21    1    1    2  503  505  0.38517676770E+02 -0.93085713660E+02 -0.18755248050E+02  0.10247107319E+03  0.00000000000E+00 0.  1.
         21    1    1    2  504  501 -0.12239173635E+03  0.19850858432E+00  0.49827014393E+03  0.51308177990E+03  0.00000000000E+00 0.  1.
         21    1    1    2  505  502  0.68628047242E+02 -0.32593103776E+02  0.16098610784E+04  0.16116528196E+04  0.00000000000E+00 0. -1.
          2    1    1    2  501    0  0.15246012335E+02  0.12548030885E+03 -0.27884265428E+02  0.12944219196E+03  0.00000000000E+00 0. -1.
<scales pt_clust_3="108.65829" pt_clust_4="69.95653" pt_clust_5="75.97446" pt_clust_6="14000.00000"></scales>
<clustering>
<clus scale="   75.974">  1  5  2 -1</clus>
<clus scale="   69.957">  1  4  2 -1</clus>
<clus scale="  108.658">  2  3  1 -1</clus>
<clus scale="   75.974">  1  3  2 -1</clus>
</clustering>
</event>
<event>
 6    0  0.1631680E+002  0.2078263E+03  0.7546771E-02  0.1143299E+00
         21   -1    0    0  504  502  0.00000000000E+00  0.00000000000E+00  0.44345753544E+03  0.44345753544E+03  0.00000000000E+00 0.  1.
          2   -1    0    0  503    0 -0.00000000000E+00 -0.00000000000E+00 -0.18347433225E+04  0.18347433225E+04  0.00000000000E+00 0. -1.
         21    1    1    2  503  505  0.19952370286E+02  0.46233412656E+02 -0.17867321903E+03  0.18563336102E+03  0.00000000000E+00 0. -1.
         21    1    1    2  504  501 -0.63589168558E+01  0.40332334704E+02 -0.20664677092E+02  0.45762014002E+02  0.00000000000E+00 0.  1.
         21    1    1    2  505  502  0.33857642163E+02 -0.24714989777E+03  0.38622089661E+03  0.45977819965E+03  0.00000000000E+00 0.  1.
          2    1    1    2  501    0 -0.47451095594E+02  0.16058415041E+03 -0.15781687875E+04  0.15870272833E+04  0.00000000000E+00 0. -1.
<scales pt_clust_3="50.63402" pt_clust_4="40.83054" pt_clust_5="14000.00000" pt_clust_6="207.82627"></scales>
<clustering>
<clus scale="   40.831">  1  4  2 -1</clus>
<clus scale="   50.634">  2  3  1 -1</clus>
<clus scale="  207.826">  2  6  1 -1</clus>
<clus scale="   40.831">  1  3  2 -1</clus>
</clustering>
</event>
<event>
 6    0  0.1631680E+002  0.1498111E+03  0.7546771E-02  0.1200705E+00
         21   -1    0    0  504  502  0.00000000000E+00  0.00000000000E+00  0.86592292002E+03  0.86592292002E+03  0.00000000000E+00 0.  1.
         -2   -1    0    0    0  501 -0.00000000000E+00 -0.00000000000E+00 -0.49496786955E+02  0.49496786955E+02  0.00000000000E+00 0.  1.
         21    1    1    2  503  505 -0.50615412673E+02 -0.53513887218E+02  0.12635715681E+03  0.14625931493E+03  0.00000000000E+00 0.  1.
         21    1    1    2  504  503 -0.61575539134E+02 -0.24405396039E+02  0.36627457465E+03  0.37221530652E+03  0.00000000000E+00 0.  1.
         21    1    1    2  505  501  0.12396672431E+01 -0.54135175594E+02  0.52205652392E+02  0.75216914010E+02  0.00000000000E+00 0.  1.
         -2    1    1    2    0  502  0.11095128456E+03  0.13205445885E+03  0.27158874921E+03  0.32172817151E+03  0.00000000000E+00 0.  1.
<scales pt_clust_3="48.05083" pt_clust_4="66.23572" pt_clust_5="48.05083" pt_clust_6="138.93383"></scales>
<clustering>
<clus scale="   48.051">  3  5 -1 -1</clus>
<clus scale="   66.236">  1  4  2 -1</clus>
<clus scale="  138.934">  1  6  2 -1</clus>
<clus scale="   66.236">  1  3  2 -1</clus>
</clustering>
</event>
<event>
 6    0  0.1631680E+002  0.6867813E+02  0.7546771E-02  0.1364647E+00
          2   -1    0    0  505    0 -0.00000000000E+00  0.00000000000E+00  0.25996563572E+04  0.25996563572E+04  0.00000000000E+00 0.  1.
         21   -1    0    0  503  502  0.00000000000E+00 -0.00000000000E+00 -0.40946111186E+02  0.40946111186E+02  0.00000000000E+00 0. -1.
         21    1    1    2  503  501 -0.78425164593E+02 -0.50022202997E+02  0.35841035042E+02  0.99686042287E+02  0.00000000000E+00 0. -1.
         21    1    1    2  504  502  0.12340416392E+02  0.64442367977E+02  0.17641114977E+03  0.18821795459E+03  0.00000000000E+00 0.  1.
         21    1    1    2  505  504 -0.14512442739E+02 -0.45106279675E+02  0.24900879231E+03  0.25347695381E+03  0.00000000000E+00 0.  1.
          2    1    1    2  501    0  0.80597190941E+02  0.30686114695E+02  0.20974492689E+04  0.20992215177E+04  0.00000000000E+00 0.  1.
<scales pt_clust_3="68.67813" pt_clust_4="61.96377" pt_clust_5="47.38341" pt_clust_6="14000.00000"></scales>
<clustering>
<clus scale="   47.383">  1  5  2 -1</clus>
<clus scale="   61.964">  2  4  1 -1</clus>
<clus scale="   68.678">  2  3  1 -1</clus>
<clus scale="   61.964">  2  3  1 -1</clus>
</clustering>
</event>
<event>
 6    0  0.1631680E+002  0.7063894E+02  0.7546771E-02  0.1357934E+00
          1   -1    0    0  505    0 -0.00000000000E+00  0.00000000000E+00  0.23417625733E+02  0.23417625733E+02  0.00000000000E+00 0.  1.
         21   -1    0    0  504  502  0.00000000000E+00 -0.00000000000E+00 -0.11279474222E+04  0.11279474222E+04  0.00000000000E+00 0.  1.
         21    1    1    2  503  502 -0.15473698190E+01 -0.66338705773E+02 -0.28564899193E+03  0.29325511901E+03  0.00000000000E+00 0.  1.
         21    1    1    2  504  501 -0.53296694462E+02 -0.40601372824E+02 -0.57407661241E+03  0.57797315339E+03  0.00000000000E+00 0.  1.
         21    1    1    2  505  503 -0.80464403107E+01  0.42088061107E+02 -0.53256389026E+02  0.68354905175E+02  0.00000000000E+00 0.  1.
          1    1    1    2  501    0  0.62890504591E+02  0.64852017490E+02 -0.19154780310E+03  0.21178187036E+03  0.00000000000E+00 0.  1.
<scales pt_clust_3="56.35903" pt_clust_4="70.63894" pt_clust_5="42.85032" pt_clust_6="14000.00000"></scales>
<clustering>
<clus scale="   42.850">  1  5  2 -1</clus>
<clus scale="   56.359">  1  3  2 -1</clus>
<clus scale="   70.639">  2  4  1 -1</clus>
<clus scale="   70.639">  2  3  1 -1</clus>
</clustering>
</event>
<event>
 6    0  0.1631680E+002  0.8720156E+02  0.7546771E-02  0.1309774E+00
          2   -1    0    0  504    0 -0.00000000000E+00  0.00000000000E+00  0.64649609288E+03  0.64649609288E+03  0.00000000000E+00 0.  1.
         21   -1    0    0  503  502  0.00000000000E+00 -0.00000000000E+00 -0.18135151742E+03  0.18135151742E+03  0.00000000000E+00 0. -1.
         21    1    1    2  503  501 -0.57850465685E+02  0.14994581850E+02  0.77754433478E+02  0.98067659248E+02  0.00000000000E+00 0. -1.
         21    1    1    2  504  505 -0.43114823549E+02  0.37570728435E+02 -0.72520227516E+02  0.92356001666E+02  0.00000000000E+00 0. -1.
         21    1    1    2  505  502  0.18545138832E+01 -0.41099464404E+02 -0.79152330009E+02  0.89205922124E+02  0.00000000000E+00 0. -1.
          2    1    1    2  501    0  0.99110775351E+02 -0.11465845880E+02  0.53906269951E+03  0.54821802727E+03  0.00000000000E+00 0.  1.
<scales pt_clust_3="14000.00000" pt_clust_4="41.62937" pt_clust_5="41.14128" pt_clust_6="87.20156"></scales>
<clustering>
<clus scale="   41.141">  2  5  1 -1</clus>
<clus scale="   41.629">  2  4  1 -1</clus>
<clus scale="   87.202">  1  6  2 -1</clus>
<clus scale="   41.141">  2  3  1 -1</clus>
</clustering>
</event>
<event>
 6    0  0.1631680E+002  0.1184912E+03  0.7546771E-02  0.1245607E+00
         21   -1    0    0  504  502  0.00000000000E+00  0.00000000000E+00  0.71931465747E+03  0.71931465747E+03  0.00000000000E+00 0.  1.
          2   -1    0    0  503    0 -0.00000000000E+00 -0.00000000000E+00 -0.84249984762E+03  0.84249984762E+03  0.00000000000E+00 0.  1.
         21    1    1    2  503  502  0.59601859500E+02 -0.75251396602E+02  0.63022428510E+03  0.63749337556E+03  0.00000000000E+00 0.  1.
         21    1    1    2  504  505  0.38521779072E+02  0.71244323441E+01  0.62863122067E+02  0.74070622484E+02  0.00000000000E+00 0.  1.
         21    1    1    2  505  501 -0.11276154146E+03  0.38629887332E+02 -0.19805304289E+03  0.23115458296E+03  0.00000000000E+00 0.  1.
          2    1    1    2  501    0  0.14637902884E+02  0.29497076926E+02 -0.61821955443E+03  0.61909592409E+03  0.00000000000E+00 0.  1.
<scales pt_clust_3="118.49120" pt_clust_4="39.67517" pt_clust_5="14000.00000" pt_clust_6="32.92941"></scales>
<clustering>
<clus scale="   32.929">  2  6  1 -1</clus>
<clus scale="   39.675">  1  4  2 -1</clus>
<clus scale="  118.491">  1  3  2 -1</clus>
<clus scale="   39.675">  1  3  2 -1</clus>
</clustering>
</event>
<event>
 6    0  0.1631680E+002  0.1248132E+03  0.7546771E-02  0.1235362E+00
         21   -1    0    0  504  502  0.00000000000E+00  0.00000000000E+00  0.16564851038E+03  0.16564851038E+03  0.00000000000E+00 0. -1.
          2   -1    0    0  503    0 -0.00000000000E+00 -0.00000000000E+00 -0.71714309522E+03  0.71714309522E+03  0.00000000000E+00 0.  1.
         21    1    1    2  503  505 -0.23567353965E+02  0.32575199219E+02 -0.24768032689E+03  0.25092251415E+03  0.00000000000E+00 0.  1.
         21    1    1    2  504  501 -0.66927172018E+02  0.42192676044E+02  0.12305961696E+03  0.14629811206E+03  0.00000000000E+00 0. -1.
         21    1    1    2  505  502 -0.39558997520E+02  0.22760365594E+02 -0.24941701697E+02  0.52009970297E+02  0.00000000000E+00 0. -1.
          2    1    1    2  501    0  0.13005352350E+03 -0.97528240857E+02 -0.40193217321E+03  0.43356100909E+03  0.00000000000E+00 0.  1.
<scales pt_clust_3="40.20651" pt_clust_4="14000.00000" pt_clust_5="48.67423" pt_clust_6="124.81317"></scales>
<clustering>
<clus scale="   40.207">  2  3  1 -1</clus>
<clus scale="   48.674">  1  5  2 -1</clus>
<clus scale="  124.813">  2  6  1 -1</clus>
<clus scale="   48.674">  1  3  2 -1</clus>
</clustering>
</event>
<event>
 6    0  0.1631680E+002  0.9868257E+02  0.7546771E-02  0.1283091E+00
          2   -1    0    0  505    0 -0.00000000000E+00  0.00000000000E+00  0.99926297176E+03  0.99926297176E+03  0.00000000000E+00 0. -1.
         21   -1    0    0  504  502  0.00000000000E+00 -0.00000000000E+00 -0.33003012001E+03  0.33003012001E+03  0.00000000000E+00 0.  1.
         21    1    1    2  503  502  0.48463736842E+02 -0.25071735400E+02 -0.20907032536E+03  0.21607342884E+03  0.00000000000E+00 0.  1.
         21    1    1    2  504  501  0.69260207521E+02  0.10799225565E+02  0.23663234227E+03  0.24679640400E+03  0.00000000000E+00 0. -1.
         21    1    1    2  505  503 -0.12577563227E+03 -0.41848527456E+02 -0.71767214679E+02  0.15073600110E+03  0.00000000000E+00 0.  1.
          2    1    1    2  501    0  0.80516879113E+01  0.56121037291E+02  0.71343804953E+03  0.71568725783E+03  0.00000000000E+00 0. -1.
<scales pt_clust_3="54.56488" pt_clust_4="14000.00000" pt_clust_5="98.68257" pt_clust_6="56.52612"></scales>
<clustering>
<clus scale="   54.565">  2  3  1 -1</clus>
<clus scale="   56.526">  1  6  2 -1</clus>
<clus scale="   98.683">  2  5  1 -1</clus>
<clus scale="   54.565">  2  3  1 -1</clus>
</clustering>
</event>
<event>
 6    0  0.1631680E+002  0.8439569E+02  0.7546771E-02  0.1317020E+00
         21   -1    0    0  501  502  0.00000000000E+00  0.00000000000E+00  0.18551792805E+03  0.18551792805E+03  0.00000000000E+00 0. -1.
          2   -1    0    0  503    0 -0.00000000000E+00 -0.00000000000E+00 -0.20227226682E+04  0.20227226682E+04  0.00000000000E+00 0. -1.
         21    1    1    2  503  505 -0.47625478772E+02 -0.68855393538E+02 -0.19025306632E+04  0.19043718586E+04  0.00000000000E+00 0. -1.
         21    1    1    2  504  502  0.29899114151E+02  0.25077564266E+02  0.10496811360E+03  0.11198725878E+03  0.00000000000E+00 0. -1.
         21    1    1    2  505  504 -0.31108640251E+02 -0.61294455569E+02  0.19813622269E+01  0.68765424292E+02  0.00000000000E+00 0. -1.
          2    1    1    2  501    0  0.48835004872E+02  0.10507228484E+03 -0.41623552747E+02  0.12311605454E+03  0.00000000000E+00 0. -1.
<scales pt_clust_3="84.39569" pt_clust_4="39.02360" pt_clust_5="52.72685" pt_clust_6="14000.00000"></scales>
<clustering>
<clus scale="   39.024">  1  4  2 -1</clus>
<clus scale="   52.727">  1  5  2 -1</clus>
<clus scale="   84.396">  2  3  1 -1</clus>
<clus scale="   39.024">  1  3  2 -1</clus>
</clustering>
</event>
<event>
 6    0  0.1631680E+002  0.9708214E+02  0.7546771E-02  0.1286554E+00
          2   -1    0    0  503    0 -0.00000000000E+00  0.00000000000E+00  0.44335108345E+03  0.44335108345E+03  0.00000000000E+00 0.  1.
         21   -1    0    0  505  502  0.00000000000E+00 -0.00000000000E+00 -0.14121147046E+04  0.14121147046E+04  0.00000000000E+00 0. -1.
         21    1    1    2  503  504  0.14356985819E+02 -0.42709272808E+02  0.23341784929E+03  0.23772693872E+03  0.00000000000E+00 0.  1.
         21    1    1    2  504  502 -0.38519131737E+02 -0.48200534926E+02 -0.11745975198E+04  0.11762169650E+04  0.00000000000E+00 0. -1.
         21    1    1    2  505  501 -0.31366792969E+02 -0.19564754674E+02 -0.21436182571E+03  0.21752619991E+03  0.00000000000E+00 0. -1.
          2    1    1    2  501    0  0.55528938887E+02  0.11047456241E+03  0.18677787514E+03  0.22399568441E+03  0.00000000000E+00 0.  1.
<scales pt_clust_3="45.07324" pt_clust_4="14000.00000" pt_clust_5="36.96830" pt_clust_6="97.08214"></scales>
<clustering>
<clus scale="   36.968">  2  5  1 -1</clus>
<clus scale="   45.073">  1  3  2 -1</clus>
<clus scale="   97.082">  1  6  2 -1</clus>
<clus scale="   36.968">  2  3  1 -1</clus>
</clustering>
</event>
<event>
 6    0  0.1631680E+002  0.8131226E+02  0.7546771E-02  0.1325368E+00
         21   -1    0    0  505  502  0.00000000000E+00  0.00000000000E+00  0.38731949659E+02  0.38731949659E+02  0.00000000000E+00 0. -1.
          2   -1    0    0  504    0 -0.00000000000E+00 -0.00000000000E+00 -0.50082314198E+03  0.50082314198E+03  0.00000000000E+00 0. -1.
         21    1    1    2  503  502  0.41634914439E+02 -0.75187378181E+02 -0.13791284702E+03  0.16250095788E+03  0.00000000000E+00 0. -1.
         21    1    1    2  504  503 -0.16009639765E+02 -0.36447979685E+02 -0.14582032334E+03  0.15115664222E+03  0.00000000000E+00 0. -1.
         21    1    1    2  505  501  0.20749899419E+02  0.43688963785E+02 -0.31966506839E+02  0.57975352021E+02  0.00000000000E+00 0.  1.
          2    1    1    2  501    0 -0.46375174094E+02  0.67946394081E+02 -0.14639151512E+03  0.16792213951E+03  0.00000000000E+00 0. -1.
<scales pt_clust_3="14000.00000" pt_clust_4="39.80909" pt_clust_5="43.28751" pt_clust_6="81.31226"></scales>
<clustering>
<clus scale="   39.809">  2  4  1 -1</clus>
<clus scale="   43.288">  1  5  2 -1</clus>
<clus scale="   81.312">  2  6  1 -1</clus>
<clus scale="   43.288">  1  3  2 -1</clus>
</clustering>
</event>
<event>
 6    0  0.1631680E+002  0.1096898E+03  0.7546771E-02  0.1261145E+00
         21   -1    0    0  505  502  0.00000000000E+00  0.00000000000E+00  0.61578201086E+02  0.61578201086E+02  0.00000000000E+00 0. -1.
          1   -1    0    0  503    0 -0.00000000000E+00 -0.00000000000E+00 -0.15230941526E+04  0.15230941526E+04  0.00000000000E+00 0. -1.
         21    1    1    2  503  504 -0.22162488990E+02 -0.78294710091E+02 -0.96216933342E+03  0.96560398907E+03  0.00000000000E+00 0. -1.
         21    1    1    2  504  502  0.82753609258E+02  0.32546950222E+02 -0.14765465287E+01  0.88936179385E+02  0.00000000000E+00 0. -1.
         21    1    1    2  505  501 -0.39561921547E+01  0.55591052274E+02 -0.39835683624E+02  0.68504731508E+02  0.00000000000E+00 0. -1.
          1    1    1    2  501    0 -0.56634928113E+02 -0.98432924044E+01 -0.45803438791E+03  0.46162745368E+03  0.00000000000E+00 0. -1.
<scales pt_clust_3="14000.00000" pt_clust_4="109.68983" pt_clust_5="55.73165" pt_clust_6="57.30899"></scales>
<clustering>
<clus scale="   55.732">  1  5  2 -1</clus>
<clus scale="   57.309">  2  6  1 -1</clus>
<clus scale="  109.690">  1  4  2 -1</clus>
<clus scale="   55.732">  1  3  2 -1</clus>
</clustering>
</event>
<event>
 6    0  0.1631680E+002  0.1040327E+03  0.7546771E-02  0.1272037E+00
          2   -1    0    0  505    0 -0.00000000000E+00  0.00000000000E+00  0.23046883892E+04  0.23046883892E+04  0.00000000000E+00 0.  1.
         21   -1    0    0  501  502  0.00000000000E+00 -0.00000000000E+00 -0.54788407724E+03  0.54788407724E+03  0.00000000000E+00 0. -1.
         21    1    1    2  503  504 -0.10712641808E+02 -0.12903191910E+03  0.10735540206E+04  0.10813335434E+04  0.00000000000E+00 0.  1.
         21    1    1    2  504  502  0.39655485315E+02  0.49134101490E+02 -0.53704703537E+03  0.54074599920E+03  0.00000000000E+00 0. -1.
         21    1    1    2  505  503 -0.30118777726E+02  0.60716937944E+01  0.94400702962E+03  0.94450689686E+03  0.00000000000E+00 0.  1.
          2    1    1    2  501    0  0.11759342194E+01  0.73826123819E+02  0.27629029712E+03  0.28598602704E+03  0.00000000000E+00 0.  1.
<scales pt_clust_3="14000.00000" pt_clust_4="63.12118" pt_clust_5="30.72468" pt_clust_6="104.03270"></scales>
<clustering>
<clus scale="   30.725">  1  5  2 -1</clus>
<clus scale="   63.121">  2  4  1 -1</clus>
<clus scale="  104.033">  2  6  1 -1</clus>
<clus scale="   63.121">  2  3  1 -1</clus>
</clustering>
</event>
<event>
 6    0  0.1631680E+002  0.1669214E+03  0.7546771E-02  0.1181097E+00
          2   -1    0    0  503    0 -0.00000000000E+00  0.00000000000E+00  0.74654672994E+03  0.74654672994E+03  0.00000000000E+00 0. -1.
         21   -1    0    0  505  502  0.00000000000E+00 -0.00000000000E+00 -0.31620277829E+04  0.31620277829E+04  0.00000000000E+00 0. -1.
         21    1    1    2  503  504 -0.13151510791E+02  0.41533298516E+02  0.32074135861E+02  0.54099235789E+02  0.00000000000E+00 0.  1.
         21    1    1    2  504  502 -0.11684910972E+03  0.11754133349E+03 -0.28089437553E+04  0.28138291881E+04  0.00000000000E+00 0. -1.
         21    1    1    2  505  501  0.88299951770E+02 -0.16400695208E+03 -0.31338790617E+03  0.36456431744E+03  0.00000000000E+00 0.  1.
          2    1    1    2  501    0  0.41700668738E+02  0.49323200742E+01  0.67477647270E+03  0.67608177143E+03  0.00000000000E+00 0. -1.
<scales pt_clust_3="46.13990" pt_clust_4="166.92137" pt_clust_5="14000.00000" pt_clust_6="41.99135"></scales>
<clustering>
<clus scale="   41.991">  1  6  2 -1</clus>
<clus scale="   46.140">  1  3  2 -1</clus>
<clus scale="  166.921">  2  4  1 -1</clus>
<clus scale="  166.921">  2  3  1 -1</clus>
</clustering>
</event>
<event>
 6    0  0.1631680E+002  0.1443279E+03  0.7546771E-02  0.1207621E+00
          1   -1    0    0  505    0 -0.00000000000E+00  0.00000000000E+00  0.32856926038E+04  0.32856926038E+04  0.00000000000E+00 0.  1.
         21   -1    0    0  501  502  0.00000000000E+00 -0.00000000000E+00 -0.13954378810E+02  0.13954378810E+02  0.00000000000E+00 0.  1.
         21    1    1    2  503  504 -0.49705725484E+02 -0.25421344343E+02  0.21328522347E+03  0.22047106487E+03  0.00000000000E+00 0.  1.
         21    1    1    2  504  502 -0.30537448500E+02 -0.15525727950E+02  0.35132102880E+02  0.49069834339E+02  0.00000000000E+00 0.  1.
         21    1    1    2  505  503 -0.51005664871E+02 -0.16835835398E+02  0.54524301580E+03  0.54788225878E+03  0.00000000000E+00 0.  1.
          1    1    1    2  501    0  0.13124883885E+03  0.57782907691E+02  0.24780778828E+04  0.24822238246E+04  0.00000000000E+00 0.  1.
<scales pt_clust_3="50.15442" pt_clust_4="34.25761" pt_clust_5="50.15442" pt_clust_6="133.25633"></scales>
<clustering>
<clus scale="   34.258">  2  4  1 -1</clus>
<clus scale="   50.154">  3  5 -1 -1</clus>
<clus scale="  133.256">  1  6  2 -1</clus>
<clus scale="   34.258">  2  3  1 -1</clus>
</clustering>
</event>
<event>
 6    0  0.1631680E+002  0.1187522E+03  0.7546771E-02  0.1245170E+00
          2   -1    0    0  504    0 -0.00000000000E+00  0.00000000000E+00  0.11017404083E+04  0.11017404083E+04  0.00000000000E+00 0. -1.
         21   -1    0    0  501  502  0.00000000000E+00 -0.00000000000E+00 -0.65694574740E+02  0.65694574740E+02  0.00000000000E+00 0. -1.
         21    1    1    2  503  505 -0.21024164590E+02 -0.99297878228E+02  0.37491261002E+03  0.38840899741E+03  0.00000000000E+00 0. -1.
         21    1    1    2  504  503 -0.10930854090E+02 -0.34408571945E+02  0.54131249136E+03  0.54251511195E+03  0.00000000000E+00 0.  1.
         21    1    1    2  505  502 -0.19835557204E+02  0.11979803368E+03  0.13420838169E+03  0.18098869555E+03  0.00000000000E+00 0. -1.
          2    1    1    2  501    0  0.51790575884E+02  0.13908416493E+02 -0.14387649546E+02  0.55522178084E+02  0.00000000000E+00 0. -1.
<scales pt_clust_3="14000.00000" pt_clust_4="36.10309" pt_clust_5="118.75225" pt_clust_6="52.92170"></scales>
<clustering>
<clus scale="   36.103">  1  4  2 -1</clus>
<clus scale="   52.922">  2  6  1 -1</clus>
<clus scale="  118.752">  2  5  1 -1</clus>
<clus scale="   52.922">  2  3  1 -1</clus>
</clustering>
</event>
<event>
 6    0  0.1631680E+002  0.1108093E+03  0.7546771E-02  0.1259078E+00
          2   -1    0    0  504    0 -0.00000000000E+00  0.00000000000E+00  0.17329542074E+04  0.17329542074E+04  0.00000000000E+00 0. -1.
         21   -1    0    0  505  502  0.00000000000E+00 -0.00000000000E+00 -0.22657984391E+02  0.22657984391E+02  0.00000000000E+00 0. -1.
         21    1    1    2  503  502  0.34098720320E+02  0.38100955172E+01  0.24042966167E+03  0.24286552198E+03  0.00000000000E+00 0. -1.
         21    1    1    2  504  503  0.48669378175E+02  0.47867452846E+02  0.25619085697E+03  0.26512969771E+03  0.00000000000E+00 0.  1.
         21    1    1    2  505  501 -0.48460287888E+02 -0.95559426036E+02  0.16054816983E+03  0.19301740399E+03  0.00000000000E+00 0. -1.
          2    1    1    2  501    0 -0.34307810607E+02  0.43881877672E+02  0.10531275345E+04  0.10545995681E+04  0.00000000000E+00 0. -1.
<scales pt_clust_3="30.95208" pt_clust_4="30.95208" pt_clust_5="101.84613" pt_clust_6="55.70139"></scales>
<clustering>
<clus scale="   30.952">  3  4 -1 -1</clus>
<clus scale="   55.701">  1  6  2 -1</clus>
<clus scale="  101.846">  2  5  1 -1</clus>
<clus scale="  101.846">  2  3  1 -1</clus>
</clustering>
</event>
<event>
 6    0  0.1631680E+002  0.8335391E+02  0.7546771E-02  0.1319794E+00
         21   -1    0    0  505  502  0.00000000000E+00  0.00000000000E+00  0.11918042271E+04  0.11918042271E+04  0.00000000000E+00 0.  1.
          2   -1    0    0  504    0 -0.00000000000E+00 -0.00000000000E+00 -0.30368680059E+04  0.30368680059E+04  0.00000000000E+00 0.  1.
         21    1    1    2  503  502 -0.66743718792E+01 -0.10702944622E+03  0.33490754958E+03  0.35165738492E+03  0.00000000000E+00 0.  1.
         21    1    1    2  504  503 -0.79165036703E+02  0.11938323025E+02 -0.34598842889E+03  0.35513042606E+03  0.00000000000E+00 0. -1.
         21    1    1    2  505  501  0.17714280137E+02  0.24710571787E+02  0.84278084930E+03  0.84332909829E+03  0.00000000000E+00 0.  1.
          2    1    1    2  501    0  0.68125128445E+02  0.70380551403E+02 -0.26767637488E+04  0.26785553237E+04  0.00000000000E+00 0.  1.
<scales pt_clust_3="14000.00000" pt_clust_4="79.87965" pt_clust_5="30.40408" pt_clust_6="83.35391"></scales>
<clustering>
<clus scale="   30.404">  1  5  2 -1</clus>
<clus scale="   79.880">  2  4  1 -1</clus>
<clus scale="   83.354">  2  6  1 -1</clus>
<clus scale="   30.404">  1  3  2 -1</clus>
</clustering>
</event>
<event>
 6    0  0.1631680E+002  0.2198045E+03  0.7546771E-02  0.1134029E+00
          2   -1    0    0  504    0 -0.00000000000E+00  0.00000000000E+00  0.65859138654E+03  0.65859138654E+03  0.00000000000E+00 0.  1.
         21   -1    0    0  505  502  0.00000000000E+00 -0.00000000000E+00 -0.19848369176E+03  0.19848369176E+03  0.00000000000E+00 0.  1.
         21    1    1    2  503  502 -0.38616162939E+02  0.29040535738E+02 -0.28964409556E+02  0.56333806697E+02  0.00000000000E+00 0.  1.
         21    1    1    2  504  503 -0.23744645355E+03  0.11834787935E+03  0.11383862147E+03  0.28869754171E+03  0.00000000000E+00 0.  1.
         21    1    1    2  505  501  0.11613801994E+03 -0.17953758006E+02  0.51143348746E+02  0.12816403248E+03  0.00000000000E+00 0.  1.
          2    1    1    2  501    0  0.15992459655E+03 -0.12943465709E+03  0.32409013413E+03  0.38387969741E+03  0.00000000000E+00 0.  1.
<scales pt_clust_3="48.31729" pt_clust_4="219.80453" pt_clust_5="107.13849" pt_clust_6="14000.00000"></scales>
<clustering>
<clus scale="   48.317">  2  3  1 -1</clus>
<clus scale="  107.138">  2  5  1 -1</clus>
<clus scale="  219.805">  2  4  1 -1</clus>
<clus scale="   48.317">  2  3  1 -1</clus>
</clustering>
</event>
<event>
 6    0  0.1631680E+002  0.3951259E+03  0.7546771E-02  0.1045481E+00
         21   -1    0    0  505  502  0.00000000000E+00  0.00000000000E+00  0.21941130954E+04  0.21941130954E+04  0.00000000000E+00 0.  1.
          2   -1    0    0  503    0 -0.00000000000E+00 -0.00000000000E+00 -0.31652414530E+03  0.31652414530E+03  0.00000000000E+00 0. -1.
         21    1    1    2  503  504  0.21425180881E+03  0.26469709335E+03  0.14853679729E+04  0.15239049851E+04  0.00000000000E+00 0.  1.
         21    1    1    2  504  502 -0.25315861172E+02  0.37466044927E+02  0.55596507535E+03  0.55780082678E+03  0.00000000000E+00 0.  1.
         21    1    1    2  505  501 -0.28204370011E+02 -0.12788374599E+03  0.15285894303E+02  0.13184611311E+03  0.00000000000E+00 0.  1.
          2    1    1    2  501    0 -0.16073157763E+03 -0.17427939228E+03 -0.17902999242E+03  0.29708531571E+03  0.00000000000E+00 0. -1.
<scales pt_clust_3="354.89973" pt_clust_4="45.21722" pt_clust_5="128.50721" pt_clust_6="128.50721"></scales>
<clustering>
<clus scale="   45.217">  1  4  2 -1</clus>
<clus scale="  128.507">  5  6 -1 -1</clus>
<clus scale="  354.900">  1  3  2 -1</clus>
<clus scale="   45.217">  1  3  2 -1</clus>
</clustering>
</event>
<event>
 6    0  0.1631680E+002  0.1765598E+03  0.7546771E-02  0.1171175E+00
         21   -1    0    0  501  502  0.00000000000E+00  0.00000000000E+00  0.20991855040E+03  0.20991855040E+03  0.00000000000E+00 0.  1.
          1   -1    0    0  504    0 -0.00000000000E+00 -0.00000000000E+00 -0.45096392761E+04  0.45096392761E+04  0.00000000000E+00 0.  1.
         21    1    1    2  503  505 -0.64737608966E+02 -0.14057040740E+03 -0.51537289724E+03  0.53810800093E+03  0.00000000000E+00 0.  1.
         21    1    1    2  504  503  0.36997828417E+02  0.10447267915E+03 -0.43574919200E+03  0.44962288456E+03  0.00000000000E+00 0.  1.
         21    1    1    2  505  502  0.17050463596E+03  0.63299656296E+02  0.14660328129E+03  0.23360479331E+03  0.00000000000E+00 0.  1.
          1    1    1    2  501    0 -0.14276485541E+03 -0.27201928042E+02 -0.34952019178E+04  0.34982221477E+04  0.00000000000E+00 0.  1.
<scales pt_clust_3="176.55981" pt_clust_4="110.83041" pt_clust_5="14000.00000" pt_clust_6="127.40674"></scales>
<clustering>
<clus scale="  110.830">  2  4  1 -1</clus>
<clus scale="  127.407">  2  6  1 -1</clus>
<clus scale="  176.560">  2  3  1 -1</clus>
<clus scale="  176.560">  1  3  2 -1</clus>
</clustering>
</event>
<event>
 6    0  0.1631680E+002  0.2495436E+03  0.7546771E-02  0.1113594E+00
         21   -1    0    0  505  502  0.00000000000E+00  0.00000000000E+00  0.51795316939E+03  0.51795316939E+03  0.00000000000E+00 0. -1.
          1   -1    0    0  504    0 -0.00000000000E+00 -0.00000000000E+00 -0.55913417007E+03  0.55913417007E+03  0.00000000000E+00 0. -1.
         21    1    1    2  503  501  0.33654982612E+02  0.27959155395E+03 -0.61074013117E+02  0.28815643316E+03  0.00000000000E+00 0. -1.
         21    1    1    2  504  502 -0.44885937379E+02  0.13277667059E+02 -0.85587415061E+02  0.97551265670E+02  0.00000000000E+00 0.  1.
         21    1    1    2  505  503  0.40674272160E+02 -0.24118745221E+03  0.35709459497E+03  0.43283060575E+03  0.00000000000E+00 0. -1.
          1    1    1    2  501    0 -0.29443317393E+02 -0.51681768795E+02 -0.25161416747E+03  0.25854903488E+03  0.00000000000E+00 0. -1.
<scales pt_clust_3="249.54357" pt_clust_4="46.80859" pt_clust_5="14000.00000" pt_clust_6="69.88059"></scales>
<clustering>
<clus scale="   46.809">  2  4  1 -1</clus>
<clus scale="   69.881">  2  6  1 -1</clus>
<clus scale="  249.544">  2  3  1 -1</clus>
<clus scale="  249.544">  1  3  2 -1</clus>
</clustering>
</event>
<event>
 6    0  0.1631680E+002  0.3016720E+03  0.7546771E-02  0.1084408E+00
         21   -1    0    0  501  502  0.00000000000E+00  0.00000000000E+00  0.10533868653E+03  0.10533868653E+03  0.00000000000E+00 0.  1.
          1   -1    0    0  505    0 -0.00000000000E+00 -0.00000000000E+00 -0.24529776316E+04  0.24529776316E+04  0.00000000000E+00 0. -1.
         21    1    1    2  503  502  0.51900080219E+02 -0.98480717890E+02 -0.39183876400E+02  0.11801460203E+03  0.00000000000E+00 0.  1.
         21    1    1    2  504  503 -0.83518626992E+02 -0.22032085236E+03 -0.46849157877E+03  0.52440537603E+03  0.00000000000E+00 0.  1.
         21    1    1    2  505  504  0.55008472451E+02 -0.80811224993E+02 -0.71876586824E+03  0.72538318114E+03  0.00000000000E+00 0. -1.
          1    1    1    2  501    0 -0.23389925678E+02  0.39961279524E+03 -0.11211976217E+04  0.11905131589E+04  0.00000000000E+00 0. -1.
<scales pt_clust_3="115.73170" pt_clust_4="301.67204" pt_clust_5="97.75677" pt_clust_6="14000.00000"></scales>
<clustering>
<clus scale="   97.757">  2  5  1 -1</clus>
<clus scale="  115.732">  1  3  2 -1</clus>
<clus scale="  301.672">  1  4  2 -1</clus>
<clus scale="  115.732">  1  3  2 -1</clus>
</clustering>
</event>
<event>
 6    0  0.1631680E+002  0.7381986E+02  0.7546771E-02  0.1347565E+00
         21   -1    0    0  504  502  0.00000000000E+00  0.00000000000E+00  0.41036420292E+04  0.41036420292E+04  0.00000000000E+00 0. -1.
          2   -1    0    0  505    0 -0.00000000000E+00 -0.00000000000E+00 -0.40486651679E+03  0.40486651679E+03  0.00000000000E+00 0.  1.
         21    1    1    2  503  502 -0.47506212906E+02  0.30311723253E+02  0.37240656622E+04  0.37244920053E+04  0.00000000000E+00 0. -1.
         21    1    1    2  504  501 -0.24971149251E+02 -0.46004382096E+02  0.35977621149E+03  0.36356413990E+03  0.00000000000E+00 0. -1.
         21    1    1    2  505  503  0.78169338338E+01  0.69383486677E+02 -0.91531870316E+02  0.11512278646E+03  0.00000000000E+00 0.  1.
          2    1    1    2  501    0  0.64660428323E+02 -0.53690827834E+02 -0.29353449100E+03  0.30532961434E+03  0.00000000000E+00 0.  1.
<scales pt_clust_3="14000.00000" pt_clust_4="52.34464" pt_clust_5="69.66955" pt_clust_6="73.81986"></scales>
<clustering>
<clus scale="   52.345">  1  4  2 -1</clus>
<clus scale="   69.670">  2  5  1 -1</clus>
<clus scale="   73.820">  2  6  1 -1</clus>
<clus scale="   52.345">  1  3  2 -1</clus>
</clustering>
</event>
<event>
 6    0  0.1631680E+002  0.1165861E+03  0.7546771E-02  0.1248838E+00
         21   -1    0    0  505  502  0.00000000000E+00  0.00000000000E+00  0.31531473218E+03  0.31531473218E+03  0.00000000000E+00 0. -1.
          4   -1    0    0  503    0 -0.00000000000E+00 -0.00000000000E+00 -0.28279024507E+03  0.28279024507E+03  0.00000000000E+00 0. -1.
         21    1    1    2  503  504  0.27151952116E+02  0.21207473299E+02 -0.64438098711E+02  0.73070199075E+02  0.00000000000E+00 0.  1.
         21    1    1    2  504  502  0.12097684308E+03  0.78111500603E+02  0.20157072130E+03  0.24772476415E+03  0.00000000000E+00 0. -1.
         21    1    1    2  505  501 -0.22250431923E+02 -0.31720569089E+02  0.52304164617E+02  0.65092256532E+02  0.00000000000E+00 0. -1.
          4    1    1    2  501    0 -0.12587836327E+03 -0.67598404813E+02 -0.15691230009E+03  0.21221775749E+03  0.00000000000E+00 0. -1.
<scales pt_clust_3="34.45265" pt_clust_4="116.58607" pt_clust_5="37.76303" pt_clust_6="14000.00000"></scales>
<clustering>
<clus scale="   34.453">  2  3  1 -1</clus>
<clus scale="   37.763">  1  5  2 -1</clus>
<clus scale="  116.586">  1  4  2 -1</clus>
<clus scale="   37.763">  1  3  2 -1</clus>
</clustering>
</event>
<event>
 6    0  0.1631680E+002  0.1277076E+03  0.7546771E-02  0.1230897E+00
         21   -1    0    0  503  502  0.00000000000E+00  0.00000000000E+00  0.19294776112E+03  0.19294776112E+03  0.00000000000E+00 0.  1.
          1   -1    0    0  504    0 -0.00000000000E+00 -0.00000000000E+00 -0.29613270118E+04  0.29613270118E+04  0.00000000000E+00 0. -1.
         21    1    1    2  503  501 -0.14395157299E+03  0.37454173155E+02  0.14494837797E+03  0.20768943818E+03  0.00000000000E+00 0.  1.
         21    1    1    2  504  505  0.23564380291E+02 -0.61143831301E+02 -0.40558432520E+03  0.41084363567E+03  0.00000000000E+00 0. -1.
         21    1    1    2  505  502  0.29821178946E+02  0.21243582495E+02 -0.12256842461E+02  0.38611173229E+02  0.00000000000E+00 0. -1.
          1    1    1    2  501    0  0.90566013752E+02  0.24460756500E+01 -0.24954864609E+04  0.24971305258E+04  0.00000000000E+00 0. -1.
<scales pt_clust_3="14000.00000" pt_clust_4="65.39643" pt_clust_5="36.61410" pt_clust_6="127.70757"></scales>
<clustering>
<clus scale="   36.614">  1  5  2 -1</clus>
<clus scale="   65.396">  2  4  1 -1</clus>
<clus scale="  127.708">  2  6  1 -1</clus>
<clus scale="   36.614">  1  3  2 -1</clus>
</clustering>
</event>
<event>
 6    0  0.1631680E+002  0.1226338E+03  0.7546771E-02  0.1238814E+00
         21   -1    0    0  503  502  0.00000000000E+00  0.00000000000E+00  0.14979575527E+03  0.14979575527E+03  0.00000000000E+00 0. -1.
          1   -1    0    0  505    0 -0.00000000000E+00 -0.00000000000E+00 -0.93625302654E+03  0.93625302654E+03  0.00000000000E+00 0.  1.
         21    1    1    2  503  501 -0.94627983468E+02  0.92723327437E+02  0.56819173421E+02  0.14415439353E+03  0.00000000000E+00 0. -1.
         21    1    1    2  504  502 -0.38539022871E+02 -0.98954635325E+02 -0.27434011484E+02  0.10968090591E+03  0.00000000000E+00 0. -1.
         21    1    1    2  505  504  0.44835504968E+02 -0.39642625812E+02 -0.21463819790E+03  0.22282575319E+03  0.00000000000E+00 0.  1.
          1    1    1    2  501    0  0.88331501370E+02  0.45873933700E+02 -0.60120423531E+03  0.60938772918E+03  0.00000000000E+00 0.  1.
<scales pt_clust_3="122.63379" pt_clust_4="108.30241" pt_clust_5="59.84781" pt_clust_6="14000.00000"></scales>
<clustering>
<clus scale="   59.848">  2  5  1 -1</clus>
<clus scale="  108.302">  1  4  2 -1</clus>
<clus scale="  122.634">  1  3  2 -1</clus>
<clus scale="  108.302">  1  3  2 -1</clus>
</clustering>
</event>
<event>
 6    0  0.1631680E+002  0.8543307E+02  0.7546771E-02  0.1314304E+00
          1   -1    0    0  504    0 -0.00000000000E+00  0.00000000000E+00  0.30248448771E+04  0.30248448771E+04  0.00000000000E+00 0. -1.
         21   -1    0    0  505  502  0.00000000000E+00 -0.00000000000E+00 -0.55483005163E+02  0.55483005163E+02  0.00000000000E+00 0.  1.
         21    1    1    2  503  502 -0.16075652344E+02  0.39257506063E+02  0.14674241979E+03  0.15275115759E+03  0.00000000000E+00 0.  1.
         21    1    1    2  504  503 -0.21989248131E+02 -0.25176188778E+02  0.40589294460E+03  0.40726704996E+03  0.00000000000E+00 0. -1.
         21    1    1    2  505  501 -0.47867011080E+02 -0.70591424870E+02 -0.14837912838E+02  0.86571148036E+02  0.00000000000E+00 0.  1.
          1    1    1    2  501    0  0.85931911556E+02  0.56510107585E+02  0.24315644204E+04  0.24337385267E+04  0.00000000000E+00 0. -1.
<scales pt_clust_3="41.60065" pt_clust_4="33.42705" pt_clust_5="14000.00000" pt_clust_6="85.43307"></scales>
<clustering>
<clus scale="   33.427">  1  4  2 -1</clus>
<clus scale="   41.601">  1  3  2 -1</clus>
<clus scale="   85.433">  1  6  2 -1</clus>
<clus scale="   85.433">  2  3  1 -1</clus>
</clustering>
</event>
<event>
 6    0  0.1631680E+002  0.1854741E+03  0.7546771E-02  0.1162608E+00
         21   -1    0    0  503  502  0.00000000000E+00  0.00000000000E+00  0.39964412360E+03  0.39964412360E+03  0.00000000000E+00 0. -1.
         -4   -1    0    0    0  501 -0.00000000000E+00 -0.00000000000E+00 -0.90826481589E+03  0.90826481589E+03  0.00000000000E+00 0.  1.
         21    1    1    2  503  504  0.66023488695E+02 -0.57019861985E+02  0.94434266448E+02  0.12856203328E+03  0.00000000000E+00 0. -1.
         21    1    1    2  504  501 -0.93134744143E+01  0.71291705617E+02 -0.73683601378E+02  0.10294911951E+03  0.00000000000E+00 0. -1.
         21    1    1    2  505  502  0.11603161823E+02  0.21781912478E+03  0.20735805221E+03  0.30096040653E+03  0.00000000000E+00 0. -1.
         -4    1    1    2    0  505 -0.68313176103E+02 -0.23209096841E+03 -0.73672940956E+03  0.77543738017E+03  0.00000000000E+00 0.  1.
<scales pt_clust_3="86.12675" pt_clust_4="71.89748" pt_clust_5="14000.00000" pt_clust_6="185.47405"></scales>
<clustering>
<clus scale="   71.897">  2  4  1 -1</clus>
<clus scale="   86.127">  1  3  2 -1</clus>
<clus scale="  185.474">  2  6  1 -1</clus>
<clus scale="   86.127">  1  3  2 -1</clus>
</clustering>
</event>
<event>
 6    0  0.1631680E+002  0.1058466E+03  0.7546771E-02  0.1268460E+00
          1   -1    0    0  503    0 -0.00000000000E+00  0.00000000000E+00  0.18145853563E+03  0.18145853563E+03  0.00000000000E+00 0. -1.
         21   -1    0    0  505  502  0.00000000000E+00 -0.00000000000E+00 -0.17115485939E+04  0.17115485939E+04  0.00000000000E+00 0. -1.
         21    1    1    2  503  504 -0.13035827851E+02 -0.95120200664E+02  0.83891754355E+02  0.12749749735E+03  0.00000000000E+00 0.  1.
         21    1    1    2  504  502  0.35041221227E+02 -0.97883980087E+01 -0.29925810089E+03  0.30146162421E+03  0.00000000000E+00 0. -1.
         21    1    1    2  505  501 -0.41573393981E+02 -0.26204384651E+02 -0.13297285854E+04  0.13306363620E+04  0.00000000000E+00 0. -1.
          1    1    1    2  501    0  0.19568000604E+02  0.13111298332E+03  0.15004873741E+02  0.13341164597E+03  0.00000000000E+00 0. -1.
<scales pt_clust_3="105.84663" pt_clust_4="36.38269" pt_clust_5="36.44643" pt_clust_6="14000.00000"></scales>
<clustering>
<clus scale="   36.383">  2  4  1 -1</clus>
<clus scale="   36.446">  2  5  1 -1</clus>
<clus scale="  105.847">  1  3  2 -1</clus>
<clus scale="   36.383">  2  3  1 -1</clus>
</clustering>
</event>
<event>
 6    0  0.1631680E+002  0.1741498E+03  0.7546771E-02  0.1173588E+00
          1   -1    0    0  503    0 -0.00000000000E+00  0.00000000000E+00  0.87052457298E+03  0.87052457298E+03  0.00000000000E+00 0. -1.
         21   -1    0    0  501  502  0.00000000000E+00 -0.00000000000E+00 -0.10209714447E+03  0.10209714447E+03  0.00000000000E+00 0.  1.
         21    1    1    2  503  505  0.58478608443E+02  0.32727913867E+02  0.28603675402E+03  0.29378204275E+03  0.00000000000E+00 0.  1.
         21    1    1    2  504  502 -0.31369724413E+02 -0.44516235552E+00  0.25597587128E+02  0.40490668629E+02  0.00000000000E+00 0.  1.
         21    1    1    2  505  504  0.10526245590E+03  0.13793529757E+03  0.54429804185E+02  0.18184865829E+03  0.00000000000E+00 0.  1.
          1    1    1    2  501    0 -0.13237133993E+03 -0.17021804908E+03  0.40236328318E+03  0.45650034778E+03  0.00000000000E+00 0. -1.
<scales pt_clust_3="65.88782" pt_clust_4="31.37288" pt_clust_5="174.14983" pt_clust_6="14000.00000"></scales>
<clustering>
<clus scale="   31.373">  2  4  1 -1</clus>
<clus scale="   65.888">  1  3  2 -1</clus>
<clus scale="  174.150">  2  5  1 -1</clus>
<clus scale="   31.373">  2  3  1 -1</clus>
</clustering>
</event>
<event>
 6    0  0.1631680E+002  0.9545028E+02  0.7546771E-02  0.1290165E+00
          2   -1    0    0  504    0 -0.00000000000E+00  0.00000000000E+00  0.22833212849E+04  0.22833212849E+04  0.00000000000E+00 0.  1.
         21   -1    0    0  505  502  0.00000000000E+00 -0.00000000000E+00 -0.23600991680E+02  0.23600991680E+02  0.00000000000E+00 0. -1.
         21    1    1    2  503  501 -0.77021055418E+02  0.52627579726E+02  0.51697324565E+03  0.52532203632E+03  0.00000000000E+00 0. -1.
         21    1    1    2  504  502  0.38508518030E+02  0.28570405877E+02  0.30334629926E+03  0.30711260366E+03  0.00000000000E+00 0.  1.
         21    1    1    2  505  503 -0.34667033084E+02 -0.34634549889E+02  0.20796079274E+02  0.53233750028E+02  0.00000000000E+00 0. -1.
          2    1    1    2  501    0  0.73179570473E+02 -0.46563435715E+02  0.14186046690E+04  0.14212538865E+04  0.00000000000E+00 0.  1.
<scales pt_clust_3="14000.00000" pt_clust_4="47.94970" pt_clust_5="48.11617" pt_clust_6="95.45028"></scales>
<clustering>
<clus scale="   47.950">  1  4  2 -1</clus>
<clus scale="   48.116">  2  5  1 -1</clus>
<clus scale="   95.450">  1  6  2 -1</clus>
<clus scale="   48.116">  2  3  1 -1</clus>
</clustering>
</event>
<event>
 6    0  0.1631680E+002  0.1627994E+03  0.7546771E-02  0.1185572E+00
         21   -1    0    0  505  502  0.00000000000E+00  0.00000000000E+00  0.47746933062E+02  0.47746933062E+02  0.00000000000E+00 0. -1.
          2   -1    0    0  503    0 -0.00000000000E+00 -0.00000000000E+00 -0.27413153697E+04  0.27413153697E+04  0.00000000000E+00 0. -1.
         21    1    1    2  503  504  0.26863045752E+02  0.73210410976E+02 -0.38945544875E+03  0.39718627124E+03  0.00000000000E+00 0. -1.
         21    1    1    2  504  502  0.68391968902E+02 -0.44204042055E+02 -0.66814638639E+03  0.67309067175E+03  0.00000000000E+00 0. -1.
         21    1    1    2  505  501 -0.10360131940E+03 -0.13685146437E+03 -0.14726836870E+03  0.22616261649E+03  0.00000000000E+00 0. -1.
          2    1    1    2  501    0  0.83463047412E+01  0.10784509545E+03 -0.14886982328E+04  0.14926227432E+04  0.00000000000E+00 0. -1.
<scales pt_clust_3="77.98325" pt_clust_4="79.55133" pt_clust_5="162.79944" pt_clust_6="14000.00000"></scales>
<clustering>
<clus scale="   77.983">  2  3  1 -1</clus>
<clus scale="   79.551">  2  4  1 -1</clus>
<clus scale="  162.799">  1  5  2 -1</clus>
<clus scale="  162.799">  1  3  2 -1</clus>
</clustering>
</event>
<event>
 6    0  0.1631680E+002  0.7847190E+02  0.7546771E-02  0.1333445E+00
         21   -1    0    0  503  502  0.00000000000E+00  0.00000000000E+00  0.11171638383E+03  0.11171638383E+03  0.00000000000E+00 0.  1.
          2   -1    0    0  505    0 -0.00000000000E+00 -0.00000000000E+00 -0.37371632659E+04  0.37371632659E+04  0.00000000000E+00 0. -1.
         21    1    1    2  503  501 -0.32203925628E+02 -0.68972197143E+02 -0.24168659477E+03  0.25339034491E+03  0.00000000000E+00 0. -1.
         21    1    1    2  504  502  0.29781016189E+02 -0.43065956431E+01  0.99311397304E+02  0.10376998278E+03  0.00000000000E+00 0.  1.
         21    1    1    2  505  504  0.58986979892E+02  0.77108866094E+02 -0.57815584263E+03  0.58625030439E+03  0.00000000000E+00 0. -1.
          2    1    1    2  501    0 -0.56564070454E+02 -0.38300733073E+01 -0.29049158420E+04  0.29054690177E+04  0.00000000000E+00 0. -1.
<scales pt_clust_3="14000.00000" pt_clust_4="30.09079" pt_clust_5="78.47190" pt_clust_6="55.89413"></scales>
<clustering>
<clus scale="   30.091">  1  4  2 -1</clus>
<clus scale="   55.894">  2  6  1 -1</clus>
<clus scale="   78.472">  2  5  1 -1</clus>
<clus scale="   30.091">  1  3  2 -1</clus>
</clustering>
</event>
<event>
 6    0  0.1631680E+002  0.7662762E+02  0.7546771E-02  0.1338904E+00
          2   -1    0    0  503    0 -0.00000000000E+00  0.00000000000E+00  0.17768278748E+04  0.17768278748E+04  0.00000000000E+00 0.  1.
         21   -1    0    0  505  502  0.00000000000E+00 -0.00000000000E+00 -0.22264173223E+02  0.22264173223E+02  0.00000000000E+00 0.  1.
         21    1    1    2  503  502  0.26962981128E+02 -0.27522542200E+02  0.32834049418E+03  0.33059336473E+03  0.00000000000E+00 0.  1.
         21    1    1    2  504  501 -0.53695890440E+02 -0.53991889505E+02  0.10439678033E+03  0.12921710616E+03  0.00000000000E+00 0.  1.
         21    1    1    2  505  504 -0.33299391014E+02  0.67149282914E+02  0.16985087998E+03  0.18565343269E+03  0.00000000000E+00 0.  1.
          2    1    1    2  501    0  0.60032300325E+02  0.14365148791E+02  0.11519755471E+04  0.11536281444E+04  0.00000000000E+00 0.  1.
<scales pt_clust_3="38.52911" pt_clust_4="76.62762" pt_clust_5="70.46839" pt_clust_6="14000.00000"></scales>
<clustering>
<clus scale="   38.529">  1  3  2 -1</clus>
<clus scale="   70.468">  2  5  1 -1</clus>
<clus scale="   76.628">  2  4  1 -1</clus>
<clus scale="   70.468">  2  3  1 -1</clus>
</clustering>
</event>
<event>
 6    0  0.1631680E+002  0.1908313E+03  0.7546771E-02  0.1157714E+00
          4   -1    0    0  504    0 -0.00000000000E+00  0.00000000000E+00  0.20055784229E+04  0.20055784229E+04  0.00000000000E+00 0. -1.
         21   -1    0    0  503  502  0.00000000000E+00 -0.00000000000E+00 -0.38693021014E+03  0.38693021014E+03  0.00000000000E+00 0. -1.
         21    1    1    2  503  501 -0.38847379888E+02 -0.34165427726E+01  0.29687063778E+02  0.49011360361E+02  0.00000000000E+00 0. -1.
         21    1    1    2  504  505  0.10041982355E+03  0.14561408533E+03  0.70708531161E+02  0.19049225493E+03  0.00000000000E+00 0.  1.
         21    1    1    2  505  502  0.38964502779E+02 -0.20779217730E+03 -0.27994428856E+03  0.35080568143E+03  0.00000000000E+00 0. -1.
          4    1    1    2  501    0 -0.10053694644E+03  0.65594634741E+02  0.17981969064E+04  0.18021993363E+04  0.00000000000E+00 0. -1.
<scales pt_clust_3="38.99733" pt_clust_4="190.83133" pt_clust_5="14000.00000" pt_clust_6="120.20580"></scales>
<clustering>
<clus scale="   38.997">  2  3  1 -1</clus>
<clus scale="  120.206">  1  6  2 -1</clus>
<clus scale="  190.831">  1  4  2 -1</clus>
<clus scale="   38.997">  2  3  1 -1</clus>
</clustering>
</event>
<event>
 6    0  0.1631680E+002  0.1762487E+03  0.7546771E-02  0.1171484E+00
          2   -1    0    0  504    0 -0.00000000000E+00  0.00000000000E+00  0.48735138893E+04  0.48735138893E+04  0.00000000000E+00 0.  1.
         21   -1    0    0  505  502  0.00000000000E+00 -0.00000000000E+00 -0.15911075670E+03  0.15911075670E+03  0.00000000000E+00 0.  1.
         21    1    1    2  503  502  0.61289039894E+01  0.57847885774E+02 -0.10940296693E+03  0.12390702372E+03  0.00000000000E+00 0.  1.
         21    1    1    2  504  503 -0.48142204560E+02 -0.10820570601E+02  0.75474988339E+03  0.75636111950E+03  0.00000000000E+00 0. -1.
         21    1    1    2  505  501  0.10297360721E+03  0.86258881646E+02  0.71609455315E+02  0.15222375812E+03  0.00000000000E+00 0.  1.
          2    1    1    2  501    0 -0.60960306643E+02 -0.13328619682E+03  0.39974467609E+04  0.40001327447E+04  0.00000000000E+00 0.  1.
<scales pt_clust_3="58.14383" pt_clust_4="49.34325" pt_clust_5="14000.00000" pt_clust_6="176.24869"></scales>
<clustering>
<clus scale="   49.343">  1  4  2 -1</clus>
<clus scale="   58.144">  2  3  1 -1</clus>
<clus scale="  176.249">  1  6  2 -1</clus>
<clus scale="   58.144">  2  3  1 -1</clus>
</clustering>
</event>
<event>
 6    0  0.1631680E+002  0.1025730E+03  0.7546771E-02  0.1274976E+00
         21   -1    0    0  501  502  0.00000000000E+00  0.00000000000E+00  0.42011264136E+02  0.42011264136E+02  0.00000000000E+00 0.  1.
          2   -1    0    0  503    0 -0.00000000000E+00 -0.00000000000E+00 -0.58172412445E+04  0.58172412445E+04  0.00000000000E+00 0.  1.
         21    1    1    2  503  504 -0.23070731017E+02 -0.27846704435E+02 -0.31673548752E+03  0.31879314081E+03  0.00000000000E+00 0.  1.
         21    1    1    2  504  505 -0.78912968451E+02 -0.85716562437E+02 -0.28530588878E+04  0.28554368498E+04  0.00000000000E+00 0.  1.
         21    1    1    2  505  502  0.89409693471E+02  0.49877135198E+02 -0.27149584776E+02  0.10591941208E+03  0.00000000000E+00 0.  1.
          2    1    1    2  501    0  0.12574005997E+02  0.63686131675E+02 -0.25782860202E+04  0.25791031060E+04  0.00000000000E+00 0.  1.
<scales pt_clust_3="36.16210" pt_clust_4="102.57304" pt_clust_5="14000.00000" pt_clust_6="50.65931"></scales>
<clustering>
<clus scale="   36.162">  2  3  1 -1</clus>
<clus scale="   50.659">  2  6  1 -1</clus>
<clus scale="  102.573">  2  4  1 -1</clus>
<clus scale="  102.573">  1  3  2 -1</clus>
</clustering>
</event>
<event>
 6    0  0.2102405E+002  0.1062539E+03  0.7546771E-02  0.1267669E+00
          3   -1    0    0  503    0 -0.00000000000E+00  0.00000000000E+00  0.22546818806E+04  0.22546818806E+04  0.00000000000E+00 0. -1.
         21   -1    0    0  505  502  0.00000000000E+00 -0.00000000000E+00 -0.14035875492E+03  0.14035875492E+03  0.00000000000E+00 0. -1.
         21    1    1    2  503  504  0.35740504923E+02  0.21756265912E+01  0.14218635621E+03  0.14662563533E+03  0.00000000000E+00 0. -1.
         21    1    1    2  504  502  0.50308612452E+02 -0.80602848936E+02  0.25728892586E+03  0.27427243229E+03  0.00000000000E+00 0. -1.
         21    1    1    2  505  501 -0.32911334280E+02  0.10225756838E+03 -0.10684967650E+03  0.15151442038E+03  0.00000000000E+00 0. -1.
          3    1    1    2  501    0 -0.53137783095E+02 -0.23830346032E+02  0.18216975201E+04  0.18226281475E+04  0.00000000000E+00 0. -1.
<scales pt_clust_3="35.80666" pt_clust_4="14000.00000" pt_clust_5="106.25386" pt_clust_6="31.27521"></scales>
<clustering>
<clus scale="   35.807">  1  3  2 -1</clus>
<clus scale="   31.275">  1  6  2 -1</clus>
<clus scale="  106.254">  2  5  1 -1</clus>
<clus scale="  106.254">  2  3  1 -1</clus>
</clustering>
</event>
<event>
 6    0  0.1631680E+002  0.8460152E+02  0.7546771E-02  0.1316478E+00
         21   -1    0    0  504  502  0.00000000000E+00  0.00000000000E+00  0.60689234915E+02  0.60689234915E+02  0.00000000000E+00 0. -1.
          1   -1    0    0  505    0 -0.00000000000E+00 -0.00000000000E+00 -0.15529051311E+04  0.15529051311E+04  0.00000000000E+00 0. -1.
         21    1    1    2  503  502 -0.20640130443E+02 -0.24299741355E+02 -0.13424574738E+02  0.34593519936E+02  0.00000000000E+00 0.  1.
         21    1    1    2  504  501  0.67312607376E+02 -0.45204324426E+02  0.63317521138E+01  0.81329632628E+02  0.00000000000E+00 0. -1.
         21    1    1    2  505  503 -0.10171001505E+03  0.74629998143E+02 -0.12396057870E+04  0.12460084554E+04  0.00000000000E+00 0. -1.
          1    1    1    2  501    0  0.55037538122E+02 -0.51259323614E+01 -0.24551728654E+03  0.25166275802E+03  0.00000000000E+00 0. -1.
<scales pt_clust_3="31.88248" pt_clust_4="14000.00000" pt_clust_5="84.60152" pt_clust_6="54.17726"></scales>
<clustering>
<clus scale="   31.882">  1  3  2 -1</clus>
<clus scale="   54.177">  2  6  1 -1</clus>
<clus scale="   84.602">  2  5  1 -1</clus>
<clus scale="   31.882">  1  3  2 -1</clus>
</clustering>
</event>
<event>
 6    0  0.1631680E+002  0.2522100E+03  0.7546771E-02  0.1111916E+00
         21   -1    0    0  503  502  0.00000000000E+00  0.00000000000E+00  0.12480825717E+04  0.12480825717E+04  0.00000000000E+00 0. -1.
         -4   -1    0    0    0  501 -0.00000000000E+00 -0.00000000000E+00 -0.55083074049E+03  0.55083074049E+03  0.00000000000E+00 0. -1.
         21    1    1    2  503  504 -0.23885047132E+03 -0.93748345123E+02  0.98001261730E+03  0.10130464105E+04  0.00000000000E+00 0. -1.
         21    1    1    2  504  505  0.56305783977E+02 -0.11791476157E+02  0.37577562419E+01  0.57649813106E+02  0.00000000000E+00 0. -1.
         21    1    1    2  505  501 -0.32303564541E+01 -0.54665979249E+02 -0.43700632752E+03  0.44042403975E+03  0.00000000000E+00 0. -1.
         -4    1    1    2    0  502  0.18577504380E+03  0.16020580053E+03  0.15048778515E+03  0.28779304874E+03  0.00000000000E+00 0. -1.
<scales pt_clust_3="252.21001" pt_clust_4="60.86886" pt_clust_5="54.76134" pt_clust_6="14000.00000"></scales>
<clustering>
<clus scale="   54.761">  2  5  1 -1</clus>
<clus scale="   60.869">  2  4  1 -1</clus>
<clus scale="  252.210">  1  3  2 -1</clus>
<clus scale="  252.210">  1  3  2 -1</clus>
</clustering>
</event>
<event>
 6    0  0.1631680E+002  0.1393302E+03  0.7546771E-02  0.1214233E+00
          2   -1    0    0  504    0 -0.00000000000E+00  0.00000000000E+00  0.18099772882E+04  0.18099772882E+04  0.00000000000E+00 0. -1.
         21   -1    0    0  503  502  0.00000000000E+00 -0.00000000000E+00 -0.18515994029E+03  0.18515994029E+03  0.00000000000E+00 0.  1.
         21    1    1    2  503  505 -0.40362705190E+02 -0.79993366827E+01  0.87184850085E+01  0.42061256976E+02  0.00000000000E+00 0. -1.
         21    1    1    2  504  502 -0.71301773225E+02  0.21197642879E+02  0.13309042339E+03  0.15246751696E+03  0.00000000000E+00 0. -1.
         21    1    1    2  505  501 -0.23559051519E+02 -0.11763584403E+03 -0.13096917951E+03  0.17761234949E+03  0.00000000000E+00 0.  1.
          2    1    1    2  501    0  0.13522352993E+03  0.10443753784E+03  0.16139776190E+04  0.16229961051E+04  0.00000000000E+00 0. -1.
<scales pt_clust_3="41.14775" pt_clust_4="76.48763" pt_clust_5="14000.00000" pt_clust_6="139.33017"></scales>
<clustering>
<clus scale="   41.148">  2  3  1 -1</clus>
<clus scale="   76.488">  1  4  2 -1</clus>
<clus scale="  139.330">  1  6  2 -1</clus>
<clus scale="   41.148">  2  3  1 -1</clus>
</clustering>
</event>
<event>
 6    0  0.1631680E+002  0.8900645E+02  0.7546771E-02  0.1305276E+00
         21   -1    0    0  501  502  0.00000000000E+00  0.00000000000E+00  0.27313669109E+03  0.27313669109E+03  0.00000000000E+00 0. -1.
          3   -1    0    0  505    0 -0.00000000000E+00 -0.00000000000E+00 -0.11004213229E+03  0.11004213229E+03  0.00000000000E+00 0.  1.
         21    1    1    2  503  504  0.98995553262E+02 -0.55018067116E+02  0.97129766815E+02  0.14920220801E+03  0.00000000000E+00 0.  1.
         21    1    1    2  504  502 -0.13950301137E+02  0.85133147720E+02  0.69129598942E+02  0.11054937898E+03  0.00000000000E+00 0. -1.
         21    1    1    2  505  503 -0.37266156112E+02 -0.56260900209E+00 -0.41220211720E+02  0.55571474468E+02  0.00000000000E+00 0.  1.
          3    1    1    2  501    0 -0.47779096013E+02 -0.29552471602E+02  0.38055404767E+02  0.67855761919E+02  0.00000000000E+00 0.  1.
<scales pt_clust_3="89.00645" pt_clust_4="14000.00000" pt_clust_5="37.27040" pt_clust_6="64.07893"></scales>
<clustering>
<clus scale="   37.270">  2  5  1 -1</clus>
<clus scale="   64.079">  1  6  2 -1</clus>
<clus scale="   89.006">  2  3  1 -1</clus>
<clus scale="   64.079">  1  3  2 -1</clus>
</clustering>
</event>
<event>
 6    0  0.1631680E+002  0.1340285E+03  0.7546771E-02  0.1221598E+00
         21   -1    0    0  505  502  0.00000000000E+00  0.00000000000E+00  0.18919171513E+03  0.18919171513E+03  0.00000000000E+00 0. -1.
          1   -1    0    0  504    0 -0.00000000000E+00 -0.00000000000E+00 -0.69450229466E+03  0.69450229466E+03  0.00000000000E+00 0. -1.
         21    1    1    2  503  501 -0.38160661339E+02 -0.84716652568E+02 -0.11163031850E+03  0.14523937243E+03  0.00000000000E+00 0. -1.
         21    1    1    2  504  502 -0.73182825056E+02  0.21743479653E+02 -0.44810861724E+01  0.76476041502E+02  0.00000000000E+00 0.  1.
         21    1    1    2  505  503 -0.22006933417E+02 -0.51550777634E+02  0.11504576482E+03  0.12797388716E+03  0.00000000000E+00 0. -1.
          1    1    1    2  501    0  0.13335041981E+03  0.11452395055E+03 -0.50424493967E+03  0.53400470869E+03  0.00000000000E+00 0. -1.
<scales pt_clust_3="14000.00000" pt_clust_4="85.07694" pt_clust_5="56.05165" pt_clust_6="134.02846"></scales>
<clustering>
<clus scale="   56.052">  1  5  2 -1</clus>
<clus scale="   85.077">  1  4  2 -1</clus>
<clus scale="  134.028">  2  6  1 -1</clus>
<clus scale="   56.052">  1  3  2 -1</clus>
</clustering>
</event>
<event>
 6    0  0.1631680E+002  0.9943604E+02  0.7546771E-02  0.1281486E+00
         21   -1    0    0  505  502  0.00000000000E+00  0.00000000000E+00  0.16280077965E+03  0.16280077965E+03  0.00000000000E+00 0.  1.
          1   -1    0    0  503    0 -0.00000000000E+00 -0.00000000000E+00 -0.14691480902E+04  0.14691480902E+04  0.00000000000E+00 0. -1.
         21    1    1    2  503  504  0.35569237359E+02  0.15396167071E+02 -0.10598490923E+04  0.10605575473E+04  0.00000000000E+00 0. -1.
         21    1    1    2  504  502  0.62152871706E+02 -0.10526983562E+03 -0.33089877156E+03  0.35275872034E+03  0.00000000000E+00 0. -1.
         21    1    1    2  505  501 -0.92877293161E+02  0.35826678122E+02  0.11833024468E+03  0.15463437281E+03  0.00000000000E+00 0.  1.
          1    1    1    2  501    0 -0.48448159037E+01  0.54046990430E+02 -0.33929691372E+02  0.63998229447E+02  0.00000000000E+00 0. -1.
<scales pt_clust_3="38.75839" pt_clust_4="14000.00000" pt_clust_5="99.43604" pt_clust_6="55.89348"></scales>
<clustering>
<clus scale="   38.758">  2  3  1 -1</clus>
<clus scale="   55.893">  2  6  1 -1</clus>
<clus scale="   99.436">  1  5  2 -1</clus>
<clus scale="   99.436">  1  3  2 -1</clus>
</clustering>
</event>
<event>
 6    0  0.1631680E+002  0.7197043E+02  0.7546771E-02  0.1353518E+00
         21   -1    0    0  504  502  0.00000000000E+00  0.00000000000E+00  0.14294824763E+03  0.14294824763E+03  0.00000000000E+00 0. -1.
          4   -1    0    0  503    0 -0.00000000000E+00 -0.00000000000E+00 -0.99007397305E+03  0.99007397305E+03  0.00000000000E+00 0. -1.
         21    1    1    2  503  505  0.44750611311E+02 -0.37489368517E+02 -0.62595031672E+03  0.62866673919E+03  0.00000000000E+00 0. -1.
         21    1    1    2  504  501  0.60698672716E+02 -0.84455000103E+02  0.70778539415E+02  0.12580372631E+03  0.00000000000E+00 0. -1.
         21    1    1    2  505  502 -0.59391551752E+01  0.55613298173E+02  0.71887543656E+01  0.56389632799E+02  0.00000000000E+00 0.  1.
          4    1    1    2  501    0 -0.99510128853E+02  0.66331070447E+02 -0.29914270248E+03  0.32216212238E+03  0.00000000000E+00 0. -1.
<scales pt_clust_3="57.88862" pt_clust_4="14000.00000" pt_clust_5="55.92953" pt_clust_6="71.97043"></scales>
<clustering>
<clus scale="   55.930">  1  5  2 -1</clus>
<clus scale="   57.889">  2  3  1 -1</clus>
<clus scale="   71.970">  2  6  1 -1</clus>
<clus scale="   55.930">  1  3  2 -1</clus>
</clustering>
</event>
<event>
 6    0  0.1631680E+002  0.1061984E+03  0.7546771E-02  0.1267776E+00
          1   -1    0    0  505    0 -0.00000000000E+00  0.00000000000E+00  0.19418455257E+04  0.19418455257E+04  0.00000000000E+00 0.  1.
         21   -1    0    0  504  502  0.00000000000E+00 -0.00000000000E+00 -0.20047163508E+03  0.20047163508E+03  0.00000000000E+00 0. -1.
         21    1    1    2  503  502 -0.67867398949E+02  0.10120915725E+03 -0.15219212943E+03  0.19496594988E+03  0.00000000000E+00 0. -1.
         21    1    1    2  504  501 -0.34611321741E+02 -0.91654127636E+02  0.12096407671E+03  0.15566223228E+03  0.00000000000E+00 0.  1.
         21    1    1    2  505  503 -0.51873754291E+02 -0.63829793490E+01  0.10840636564E+03  0.12034770011E+03  0.00000000000E+00 0. -1.
          1    1    1    2  501    0  0.15435247498E+03 -0.31720502613E+01  0.16641955777E+04  0.16713412785E+04  0.00000000000E+00 0.  1.
<scales pt_clust_3="14000.00000" pt_clust_4="99.87193" pt_clust_5="52.26499" pt_clust_6="106.19841"></scales>
<clustering>
<clus scale="   52.265">  1  5  2 -1</clus>
<clus scale="   99.872">  2  4  1 -1</clus>
<clus scale="  106.198">  1  6  2 -1</clus>
<clus scale="   99.872">  2  3  1 -1</clus>
</clustering>
</event>
<event>
 6    0  0.1631680E+002  0.1294193E+03  0.7546771E-02  0.1228320E+00
         21   -1    0    0  503  502  0.00000000000E+00  0.00000000000E+00  0.27074990619E+03  0.27074990619E+03  0.00000000000E+00 0.  1.
          2   -1    0    0  502    0 -0.00000000000E+00 -0.00000000000E+00 -0.38221270831E+03  0.38221270831E+03  0.00000000000E+00 0.  1.
         21    1    1    2  503  505 -0.29623537829E+02  0.31799481793E+02  0.94415488791E+02  0.10393770038E+03  0.00000000000E+00 0.  1.
         21    1    1    2  504  501 -0.10522775348E+03  0.15903098050E+02 -0.12154906104E+02  0.10711456657E+03  0.00000000000E+00 0.  1.
         21    1    1    2  505  504  0.32735323509E+02  0.52612753718E+02  0.98580343155E+02  0.11643791185E+03  0.00000000000E+00 0.  1.
          2    1    1    2  501    0  0.10211596780E+03 -0.10031533356E+03 -0.29230372796E+03  0.32547243571E+03  0.00000000000E+00 0.  1.
<scales pt_clust_3="43.45988" pt_clust_4="14000.00000" pt_clust_5="73.91018" pt_clust_6="129.41929"></scales>
<clustering>
<clus scale="   43.460">  1  3  2 -1</clus>
<clus scale="   73.910">  1  5  2 -1</clus>
<clus scale="  129.419">  2  6  1 -1</clus>
<clus scale="   43.460">  1  3  2 -1</clus>
</clustering>
</event>
<event>
 6    0  0.1631680E+002  0.9774426E+02  0.7546771E-02  0.1285112E+00
          2   -1    0    0  505    0 -0.00000000000E+00  0.00000000000E+00  0.17727999170E+04  0.17727999170E+04  0.00000000000E+00 0.  1.
         21   -1    0    0  504  502  0.00000000000E+00 -0.00000000000E+00 -0.15507050811E+03  0.15507050811E+03  0.00000000000E+00 0.  1.
         21    1    1    2  503  501  0.86758603988E+02 -0.96418281448E+02  0.60128636306E+02  0.14296500714E+03  0.00000000000E+00 0.  1.
         21    1    1    2  504  503  0.42401022789E+02  0.52200154553E+02 -0.92767500926E+02  0.11457971940E+03  0.00000000000E+00 0.  1.
         21    1    1    2  505  502 -0.31840789524E+02  0.34822207679E+02  0.57156330243E+02  0.74116584595E+02  0.00000000000E+00 0. -1.
          2    1    1    2  501    0 -0.97318837253E+02  0.93959192157E+01  0.15932119433E+04  0.15962091140E+04  0.00000000000E+00 0.  1.
<scales pt_clust_3="97.74426" pt_clust_4="79.35854" pt_clust_5="47.18498" pt_clust_6="14000.00000"></scales>
<clustering>
<clus scale="   47.185">  2  5  1 -1</clus>
<clus scale="   79.359">  2  4  1 -1</clus>
<clus scale="   97.744">  2  3  1 -1</clus>
<clus scale="   47.185">  2  3  1 -1</clus>
</clustering>
</event>
<event>
 6    0  0.1631680E+002  0.1734925E+03  0.7546771E-02  0.1174254E+00
          2   -1    0    0  504    0 -0.00000000000E+00  0.00000000000E+00  0.12221701174E+04  0.12221701174E+04  0.00000000000E+00 0. -1.
         21   -1    0    0  505  502  0.00000000000E+00 -0.00000000000E+00 -0.44136013916E+03  0.44136013916E+03  0.00000000000E+00 0.  1.
         21    1    1    2  503  502 -0.29462514774E+02  0.13436840717E+03 -0.80321579860E+02  0.15929364336E+03  0.00000000000E+00 0.  1.
         21    1    1    2  504  503  0.61079708518E+02 -0.43905419305E+01  0.29410679022E+03  0.30041439997E+03  0.00000000000E+00 0. -1.
         21    1    1    2  505  501  0.12407316096E+03 -0.17353937437E+03 -0.27408160072E+03  0.34731943162E+03  0.00000000000E+00 0.  1.
          2    1    1    2  501    0 -0.15569035470E+03  0.43561509125E+02  0.84110636858E+03  0.85650278160E+03  0.00000000000E+00 0. -1.
<scales pt_clust_3="14000.00000" pt_clust_4="61.23731" pt_clust_5="173.49246" pt_clust_6="107.19250"></scales>
<clustering>
<clus scale="   61.237">  1  4  2 -1</clus>
<clus scale="  107.192">  1  6  2 -1</clus>
<clus scale="  173.492">  2  5  1 -1</clus>
<clus scale="  173.492">  2  3  1 -1</clus>
</clustering>
</event>
<event>
 6    0  0.1631680E+002  0.9251103E+02  0.7546771E-02  0.1296882E+00
         21   -1    0    0  503  502  0.00000000000E+00  0.00000000000E+00  0.34371396153E+03  0.34371396153E+03  0.00000000000E+00 0. -1.
         -2   -1    0    0    0  501 -0.00000000000E+00 -0.00000000000E+00 -0.14773985373E+03  0.14773985373E+03  0.00000000000E+00 0. -1.
         21    1    1    2  503  501  0.42921397312E+02 -0.44024754560E+02 -0.43953697942E+02  0.75580109315E+02  0.00000000000E+00 0. -1.
         21    1    1    2  504  505 -0.12676224440E+03 -0.48241417934E+01  0.22400874406E+03  0.25743320757E+03  0.00000000000E+00 0. -1.
         21    1    1    2  505  502  0.33617983612E+02 -0.10712667086E+02  0.59496327249E+02  0.69171836859E+02  0.00000000000E+00 0. -1.
         -2    1    1    2    0  504  0.50222863472E+02  0.59561563440E+02 -0.43577265559E+02  0.89268661513E+02  0.00000000000E+00 0. -1.
<scales pt_clust_3="63.25461" pt_clust_4="92.51103" pt_clust_5="35.28357" pt_clust_6="14000.00000"></scales>
<clustering>
<clus scale="   35.284">  1  5  2 -1</clus>
<clus scale="   63.255">  2  3  1 -1</clus>
<clus scale="   92.511">  1  4  2 -1</clus>
<clus scale="   35.284">  1  3  2 -1</clus>
</clustering>
</event>
<event>
 6    0  0.1631680E+002  0.7336834E+02  0.7546771E-02  0.1348999E+00
          1   -1    0    0  505    0 -0.00000000000E+00  0.00000000000E+00  0.44905041708E+03  0.44905041708E+03  0.00000000000E+00 0.  1.
         21   -1    0    0  503  502  0.00000000000E+00 -0.00000000000E+00 -0.69425459064E+03  0.69425459064E+03  0.00000000000E+00 0.  1.
         21    1    1    2  503  504  0.51110172195E+02 -0.47363433868E+02 -0.39196138168E+03  0.39810710782E+03  0.00000000000E+00 0.  1.
         21    1    1    2  504  501 -0.12064989123E+03  0.58436005093E+02 -0.26928562531E+03  0.30080876141E+03  0.00000000000E+00 0.  1.
         21    1    1    2  505  502 -0.28514528285E+01  0.32036991532E+02  0.16672755648E+02  0.36228171229E+02  0.00000000000E+00 0. -1.
          1    1    1    2  501    0  0.72391171864E+02 -0.43109562757E+02  0.39937007778E+03  0.40816096726E+03  0.00000000000E+00 0.  1.
<scales pt_clust_3="69.50837" pt_clust_4="14000.00000" pt_clust_5="32.16364" pt_clust_6="73.36834"></scales>
<clustering>
<clus scale="   32.164">  1  5  2 -1</clus>
<clus scale="   69.508">  2  3  1 -1</clus>
<clus scale="   73.368">  1  6  2 -1</clus>
<clus scale="   69.508">  2  3  1 -1</clus>
</clustering>
</event>
<event>
 6    0  0.1631680E+002  0.8099069E+02  0.7546771E-02  0.1326263E+00
         21   -1    0    0  505  502  0.00000000000E+00  0.00000000000E+00  0.97130882104E+02  0.97130882104E+02  0.00000000000E+00 0.  1.
          2   -1    0    0  503    0 -0.00000000000E+00 -0.00000000000E+00 -0.65800178881E+03  0.65800178881E+03  0.00000000000E+00 0.  1.
         21    1    1    2  503  502  0.25970118935E+02  0.54909116560E+02 -0.77107485580E+01  0.61228374160E+02  0.00000000000E+00 0.  1.
         21    1    1    2  504  501  0.49451288954E+02 -0.39672694001E+02 -0.11113868724E+03  0.12794983560E+03  0.00000000000E+00 0.  1.
         21    1    1    2  505  504  0.14084833053E+02 -0.37260615984E+02  0.50817899037E+02  0.64569302986E+02  0.00000000000E+00 0.  1.
          2    1    1    2  501    0 -0.89506240942E+02  0.22024193425E+02 -0.49283936994E+03  0.50138515816E+03  0.00000000000E+00 0.  1.
<scales pt_clust_3="46.25940" pt_clust_4="80.99069" pt_clust_5="39.83386" pt_clust_6="14000.00000"></scales>
<clustering>
<clus scale="   39.834">  1  5  2 -1</clus>
<clus scale="   46.259">  1  3  2 -1</clus>
<clus scale="   80.991">  1  4  2 -1</clus>
<clus scale="   39.834">  1  3  2 -1</clus>
</clustering>
</event>
<event>
 6    0  0.1631680E+002  0.1547556E+03  0.7546771E-02  0.1194748E+00
          2   -1    0    0  503    0 -0.00000000000E+00  0.00000000000E+00  0.70453842556E+03  0.70453842556E+03  0.00000000000E+00 0.  1.
         21   -1    0    0  504  502  0.00000000000E+00 -0.00000000000E+00 -0.64927339112E+03  0.64927339112E+03  0.00000000000E+00 0. -1.
         21    1    1    2  503  505  0.44770759528E+01  0.50389923635E+02  0.12240087835E+03  0.13244305808E+03  0.00000000000E+00 0.  1.
         21    1    1    2  504  501 -0.14290700294E+03  0.12948726834E+03 -0.36286101715E+03  0.41092272012E+03  0.00000000000E+00 0. -1.
         21    1    1    2  505  502  0.13403953717E+03  0.21811375038E+02 -0.21894992336E+03  0.25764588595E+03  0.00000000000E+00 0. -1.
          2    1    1    2  501    0  0.43903898104E+01 -0.20168856701E+03  0.51467509659E+03  0.55280015253E+03  0.00000000000E+00 0.  1.
<scales pt_clust_3="50.58842" pt_clust_4="14000.00000" pt_clust_5="136.23194" pt_clust_6="154.75561"></scales>
<clustering>
<clus scale="   50.588">  1  3  2 -1</clus>
<clus scale="  136.232">  2  5  1 -1</clus>
<clus scale="  154.756">  1  6  2 -1</clus>
<clus scale="  136.232">  2  3  1 -1</clus>
</clustering>
</event>
<event>
 6    0  0.1631680E+002  0.9738843E+02  0.7546771E-02  0.1285886E+00
          4   -1    0    0  503    0 -0.00000000000E+00  0.00000000000E+00  0.93320615107E+03  0.93320615107E+03  0.00000000000E+00 0.  1.
         21   -1    0    0  504  502  0.00000000000E+00 -0.00000000000E+00 -0.43035479571E+03  0.43035479571E+03  0.00000000000E+00 0.  1.
         21    1    1    2  503  505 -0.35951945320E+02  0.46222954741E+02  0.98473132479E+02  0.11456902608E+03  0.00000000000E+00 0. -1.
         21    1    1    2  504  501 -0.62305674750E+02 -0.87312051087E+02 -0.39085085673E+03  0.40530208928E+03  0.00000000000E+00 0.  1.
         21    1    1    2  505  502  0.48347502257E+02 -0.10803903885E+02  0.45600181957E+01  0.49749362605E+02  0.00000000000E+00 0. -1.
          4    1    1    2  501    0  0.49910117813E+02  0.51893000231E+02  0.79066906141E+03  0.79394046881E+03  0.00000000000E+00 0.  1.
<scales pt_clust_3="57.80773" pt_clust_4="97.38843" pt_clust_5="49.53994" pt_clust_6="14000.00000"></scales>
<clustering>
<clus scale="   49.540">  2  5  1 -1</clus>
<clus scale="   57.808">  1  3  2 -1</clus>
<clus scale="   97.388">  2  4  1 -1</clus>
<clus scale="   49.540">  2  3  1 -1</clus>
</clustering>
</event>
<event>
 6    0  0.1631680E+002  0.1234418E+03  0.7546771E-02  0.1237525E+00
         21   -1    0    0  504  502  0.00000000000E+00  0.00000000000E+00  0.36220288426E+03  0.36220288426E+03  0.00000000000E+00 0. -1.
         -1   -1    0    0    0  501 -0.00000000000E+00 -0.00000000000E+00 -0.32444754901E+03  0.32444754901E+03  0.00000000000E+00 0. -1.
         21    1    1    2  503  502  0.57677013237E+02  0.42984848356E+02  0.21816255008E+03  0.22971554867E+03  0.00000000000E+00 0. -1.
         21    1    1    2  504  505  0.54534400896E+02  0.36064121320E+02  0.59325508840E+02  0.88284413838E+02  0.00000000000E+00 0. -1.
         21    1    1    2  505  501  0.45834121933E+02 -0.74331538998E+02 -0.74288821630E+01  0.87642071594E+02  0.00000000000E+00 0. -1.
         -1    1    1    2    0  503 -0.15804553607E+03 -0.47174306774E+01 -0.23230384151E+03  0.28100839917E+03  0.00000000000E+00 0. -1.
<scales pt_clust_3="123.44181" pt_clust_4="65.38059" pt_clust_5="87.51129" pt_clust_6="14000.00000"></scales>
<clustering>
<clus scale="   65.381">  1  4  2 -1</clus>
<clus scale="   87.511">  2  5  1 -1</clus>
<clus scale="  123.442">  1  3  2 -1</clus>
<clus scale="   65.381">  1  3  2 -1</clus>
</clustering>
</event>
<event>
 6    0  0.1631680E+002  0.2172480E+03  0.7546771E-02  0.1135952E+00
         21   -1    0    0  504  502  0.00000000000E+00  0.00000000000E+00  0.27629762015E+03  0.27629762015E+03  0.00000000000E+00 0.  1.
          1   -1    0    0  505    0 -0.00000000000E+00 -0.00000000000E+00 -0.18574296567E+04  0.18574296567E+04  0.00000000000E+00 0.  1.
         21    1    1    2  503  502  0.13993801912E+03 -0.65380035433E+02 -0.18791408369E+03  0.24324658492E+03  0.00000000000E+00 0.  1.
         21    1    1    2  504  501  0.76897262044E+02  0.20249855457E+03  0.18036751131E+03  0.28187105678E+03  0.00000000000E+00 0.  1.
         21    1    1    2  505  503  0.26857308012E+02  0.20746476772E+02 -0.77442972879E+02  0.84552618767E+02  0.00000000000E+00 0.  1.
          1    1    1    2  501    0 -0.24369258917E+03 -0.15786499591E+03 -0.14961424913E+04  0.15240570164E+04  0.00000000000E+00 0.  1.
<scales pt_clust_3="156.38779" pt_clust_4="14000.00000" pt_clust_5="33.93717" pt_clust_6="217.24802"></scales>
<clustering>
<clus scale="   33.937">  2  5  1 -1</clus>
<clus scale="  156.388">  2  3  1 -1</clus>
<clus scale="  217.248">  2  6  1 -1</clus>
<clus scale="  217.248">  1  3  2 -1</clus>
</clustering>
</event>
<event>
 6    0  0.1631680E+002  0.6098318E+02  0.7546771E-02  0.1393752E+00
          1   -1    0    0  504    0 -0.00000000000E+00  0.00000000000E+00  0.29594215989E+04  0.29594215989E+04  0.00000000000E+00 0.  1.
         21   -1    0    0  503  502  0.00000000000E+00 -0.00000000000E+00 -0.49668910036E+03  0.49668910036E+03  0.00000000000E+00 0.  1.
         21    1    1    2  503  501 -0.42222302847E+02 -0.22194468507E+02 -0.28112497435E+02  0.55368129841E+02  0.00000000000E+00 0.  1.
         21    1    1    2  504  505  0.10847910731E+02 -0.46866894263E+02  0.53010174583E+03  0.53228004272E+03  0.00000000000E+00 0. -1.
         21    1    1    2  505  502  0.82169744399E+02  0.68357511280E+02 -0.44729499582E+03  0.45988849685E+03  0.00000000000E+00 0.  1.
          1    1    1    2  501    0 -0.50795352283E+02  0.70385149132E+00  0.24080382460E+04  0.24085740299E+04  0.00000000000E+00 0.  1.
<scales pt_clust_3="47.70029" pt_clust_4="48.13505" pt_clust_5="14000.00000" pt_clust_6="60.98318"></scales>
<clustering>
<clus scale="   47.700">  2  3  1 -1</clus>
<clus scale="   48.135">  1  4  2 -1</clus>
<clus scale="   60.983">  1  6  2 -1</clus>
<clus scale="   47.700">  2  3  1 -1</clus>
</clustering>
</event>
<event>
 6    0  0.1631680E+002  0.1329604E+03  0.7546771E-02  0.1223128E+00
         21   -1    0    0  504  502  0.00000000000E+00  0.00000000000E+00  0.63370237799E+03  0.63370237799E+03  0.00000000000E+00 0.  1.
          2   -1    0    0  503    0 -0.00000000000E+00 -0.00000000000E+00 -0.14363945818E+04  0.14363945818E+04  0.00000000000E+00 0.  1.
         21    1    1    2  503  502 -0.26847308206E+02 -0.33760398699E+02  0.13493597050E+02  0.45195349757E+02  0.00000000000E+00 0. -1.
         21    1    1    2  504  505 -0.11194490733E+02  0.30119183842E+02  0.58854644322E+03  0.58942293618E+03  0.00000000000E+00 0.  1.
         21    1    1    2  505  501 -0.10218331296E+03  0.34006220907E+02 -0.25471129985E+03  0.27654239960E+03  0.00000000000E+00 0. -1.
          2    1    1    2  501    0  0.14022511189E+03 -0.30365006049E+02 -0.11500209442E+04  0.11589362742E+04  0.00000000000E+00 0.  1.
<scales pt_clust_3="36.94675" pt_clust_4="32.13226" pt_clust_5="132.96037" pt_clust_6="14000.00000"></scales>
<clustering>
<clus scale="   32.132">  1  4  2 -1</clus>
<clus scale="   36.947">  1  3  2 -1</clus>
<clus scale="  132.960">  1  5  2 -1</clus>
<clus scale="   32.132">  1  3  2 -1</clus>
</clustering>
</event>
<event>
 6    0  0.1631680E+002  0.1683968E+03  0.7546771E-02  0.1179530E+00
         21   -1    0    0  505  502  0.00000000000E+00  0.00000000000E+00  0.34211917514E+03  0.34211917514E+03  0.00000000000E+00 0.  1.
          1   -1    0    0  504    0 -0.00000000000E+00 -0.00000000000E+00 -0.35543012130E+03  0.35543012130E+03  0.00000000000E+00 0.  1.
         21    1    1    2  503  501 -0.19227957975E+02  0.11472708319E+03  0.11265512375E+03  0.16193577397E+03  0.00000000000E+00 0.  1.
         21    1    1    2  504  502  0.29525339113E+02  0.42554968051E+02 -0.72596299473E+01  0.52300795238E+02  0.00000000000E+00 0.  1.
         21    1    1    2  505  503  0.29524148539E+02  0.18486816270E+02  0.15319525188E+03  0.15710576986E+03  0.00000000000E+00 0.  1.
          1    1    1    2  501    0 -0.39821529677E+02 -0.17576886751E+03 -0.27190169184E+03  0.32620695737E+03  0.00000000000E+00 0.  1.
<scales pt_clust_3="14000.00000" pt_clust_4="55.67578" pt_clust_5="34.83443" pt_clust_6="168.39683"></scales>
<clustering>
<clus scale="   34.834">  1  5  2 -1</clus>
<clus scale="   55.676">  1  4  2 -1</clus>
<clus scale="  168.397">  2  6  1 -1</clus>
<clus scale="   34.834">  1  3  2 -1</clus>
</clustering>
</event>
<event>
 6    0  0.1631680E+002  0.8115463E+02  0.7546771E-02  0.1325806E+00
         21   -1    0    0  505  502  0.00000000000E+00  0.00000000000E+00  0.16583767533E+03  0.16583767533E+03  0.00000000000E+00 0. -1.
          2   -1    0    0  504    0 -0.00000000000E+00 -0.00000000000E+00 -0.23616838754E+04  0.23616838754E+04  0.00000000000E+00 0. -1.
         21    1    1    2  503  502 -0.90452817921E+02 -0.43485916228E+02 -0.69606445324E+02  0.12213842315E+03  0.00000000000E+00 0. -1.
         21    1    1    2  504  503  0.34035142006E+02  0.74460963536E+02 -0.20177353885E+04  0.20193956828E+04  0.00000000000E+00 0. -1.
         21    1    1    2  505  501  0.17925812149E+02  0.62960850509E+02  0.11958310853E+03  0.13632873242E+03  0.00000000000E+00 0. -1.
          2    1    1    2  501    0  0.38491863765E+02 -0.93935897817E+02 -0.22808747482E+03  0.24965871233E+03  0.00000000000E+00 0. -1.
<scales pt_clust_3="78.02382" pt_clust_4="14000.00000" pt_clust_5="65.46299" pt_clust_6="81.15463"></scales>
<clustering>
<clus scale="   65.463">  1  5  2 -1</clus>
<clus scale="   78.024">  1  3  2 -1</clus>
<clus scale="   81.155">  1  6  2 -1</clus>
<clus scale="   65.463">  1  3  2 -1</clus>
</clustering>
</event>
<event>
 6    0  0.1631680E+002  0.1135721E+03  0.7546771E-02  0.1254094E+00
         21   -1    0    0  503  502  0.00000000000E+00  0.00000000000E+00  0.12772573976E+03  0.12772573976E+03  0.00000000000E+00 0. -1.
          2   -1    0    0  505    0 -0.00000000000E+00 -0.00000000000E+00 -0.19099953439E+04  0.19099953439E+04  0.00000000000E+00 0. -1.
         21    1    1    2  503  501 -0.59289995985E+02  0.23113502112E+02  0.68212650753E+00  0.63639633094E+02  0.00000000000E+00 0. -1.
         21    1    1    2  504  502  0.59789745578E+01  0.29568750918E+02  0.80499165082E+02  0.85966125575E+02  0.00000000000E+00 0. -1.
         21    1    1    2  505  504 -0.61416156786E+02 -0.98128937095E+02 -0.14965042198E+04  0.15009750540E+04  0.00000000000E+00 0. -1.
          2    1    1    2  501    0  0.11472717821E+03  0.45446684065E+02 -0.36694667591E+03  0.38714027106E+03  0.00000000000E+00 0. -1.
<scales pt_clust_3="70.71468" pt_clust_4="30.16719" pt_clust_5="14000.00000" pt_clust_6="113.57213"></scales>
<clustering>
<clus scale="   30.167">  1  4  2 -1</clus>
<clus scale="   70.715">  1  3  2 -1</clus>
<clus scale="  113.572">  1  6  2 -1</clus>
<clus scale="   30.167">  1  3  2 -1</clus>
</clustering>
</event>
<event>
 6    0  0.1631680E+002  0.6800348E+02  0.7546771E-02  0.1367017E+00
          1   -1    0    0  505    0 -0.00000000000E+00  0.00000000000E+00  0.52929050166E+03  0.52929050166E+03  0.00000000000E+00 0. -1.
         21   -1    0    0  501  502  0.00000000000E+00 -0.00000000000E+00 -0.10291676257E+03  0.10291676257E+03  0.00000000000E+00 0. -1.
         21    1    1    2  503  502  0.44961191107E+02  0.43320512671E+02 -0.35772872319E+02  0.71957445187E+02  0.00000000000E+00 0. -1.
         21    1    1    2  504  503 -0.51715582400E+02 -0.62274567430E+02  0.11070046370E+01  0.80955843957E+02  0.00000000000E+00 0. -1.
         21    1    1    2  505  504  0.16153402254E+02 -0.51518773342E+02  0.27244220223E+03  0.27774065235E+03  0.00000000000E+00 0. -1.
          1    1    1    2  501    0 -0.93990109612E+01  0.70472828100E+02  0.18859740454E+03  0.20155332274E+03  0.00000000000E+00 0. -1.
<scales pt_clust_3="14000.00000" pt_clust_4="68.00348" pt_clust_5="53.99182" pt_clust_6="31.08157"></scales>
<clustering>
<clus scale="   53.992">  1  5  2 -1</clus>
<clus scale="   31.082">  1  6  2 -1</clus>
<clus scale="   68.003">  1  4  2 -1</clus>
<clus scale="   68.003">  2  3  1 -1</clus>
</clustering>
</event>
<event>
 6    0  0.1631680E+002  0.1224005E+03  0.7546771E-02  0.1239189E+00
         21   -1    0    0  503  502  0.00000000000E+00  0.00000000000E+00  0.94765007109E+02  0.94765007109E+02  0.00000000000E+00 0. -1.
          2   -1    0    0  505    0 -0.00000000000E+00 -0.00000000000E+00 -0.21096691660E+04  0.21096691660E+04  0.00000000000E+00 0. -1.
         21    1    1    2  503  504 -0.12367821514E+03 -0.31374748311E+02 -0.41841837636E+01  0.12766433772E+03  0.00000000000E+00 0. -1.
         21    1    1    2  504  501  0.11863285222E+03  0.13260229322E+01 -0.13214082939E+04  0.13267235549E+04  0.00000000000E+00 0. -1.
         21    1    1    2  505  502  0.24018329214E+02  0.11780063216E+03 -0.10727691656E+03  0.16112791782E+03  0.00000000000E+00 0. -1.
          2    1    1    2  501    0 -0.18972966299E+02 -0.87751906778E+02 -0.58203476468E+03  0.58891836267E+03  0.00000000000E+00 0. -1.
<scales pt_clust_3="122.40054" pt_clust_4="14000.00000" pt_clust_5="112.31990" pt_clust_6="89.77957"></scales>
<clustering>
<clus scale="   89.780">  2  6  1 -1</clus>
<clus scale="  112.320">  1  5  2 -1</clus>
<clus scale="  122.401">  1  3  2 -1</clus>
<clus scale="  112.320">  1  3  2 -1</clus>
</clustering>
</event>
<event>
 6    0  0.1631680E+002  0.1479829E+03  0.7546771E-02  0.1202974E+00
          2   -1    0    0  505    0 -0.00000000000E+00  0.00000000000E+00  0.59494342420E+03  0.59494342420E+03  0.00000000000E+00 0.  1.
         21   -1    0    0  501  502  0.00000000000E+00 -0.00000000000E+00 -0.98641098278E+02  0.98641098278E+02  0.00000000000E+00 0.  1.
         21    1    1    2  503  504 -0.11091448382E+03 -0.64087845549E+02  0.76696389568E+02  0.14930375361E+03  0.00000000000E+00 0.  1.
         21    1    1    2  504  502 -0.24914854978E+02 -0.18706541582E+02 -0.34601583673E+02  0.46561296043E+02  0.00000000000E+00 0.  1.
         21    1    1    2  505  503  0.22362041221E+02 -0.33327505726E+02  0.11140533892E+03  0.11841424351E+03  0.00000000000E+00 0. -1.
          2    1    1    2  501    0  0.11346729758E+03  0.11612189286E+03  0.34280218110E+03  0.37930522932E+03  0.00000000000E+00 0.  1.
<scales pt_clust_3="147.98288" pt_clust_4="31.15581" pt_clust_5="40.27807" pt_clust_6="14000.00000"></scales>
<clustering>
<clus scale="   31.156">  2  4  1 -1</clus>
<clus scale="   40.278">  1  5  2 -1</clus>
<clus scale="  147.983">  2  3  1 -1</clus>
<clus scale="   31.156">  2  3  1 -1</clus>
</clustering>
</event>
<event>
 6    0  0.1631680E+002  0.9465041E+02  0.7546771E-02  0.1291965E+00
         21   -1    0    0  504  502  0.00000000000E+00  0.00000000000E+00  0.12034343240E+04  0.12034343240E+04  0.00000000000E+00 0. -1.
          1   -1    0    0  505    0 -0.00000000000E+00 -0.00000000000E+00 -0.12101073547E+03  0.12101073547E+03  0.00000000000E+00 0.  1.
         21    1    1    2  503  502  0.50182391198E+02  0.81811543416E+02  0.11158991725E+04  0.11200189124E+04  0.00000000000E+00 0. -1.
         21    1    1    2  504  501 -0.27928202505E+02 -0.74828863898E+02  0.38355347035E+02  0.88602911993E+02  0.00000000000E+00 0. -1.
         21    1    1    2  505  503  0.38727416339E+01  0.38190923054E+02 -0.25931260203E+02  0.46324669316E+02  0.00000000000E+00 0. -1.
          1    1    1    2  501    0 -0.26126930327E+02 -0.45173602572E+02 -0.45899670802E+02  0.69498565721E+02  0.00000000000E+00 0.  1.
<scales pt_clust_3="94.65041" pt_clust_4="14000.00000" pt_clust_5="38.38678" pt_clust_6="30.35027"></scales>
<clustering>
<clus scale="   38.387">  2  5  1 -1</clus>
<clus scale="   30.350">  2  6  1 -1</clus>
<clus scale="   94.650">  1  3  2 -1</clus>
<clus scale="   94.650">  1  3  2 -1</clus>
</clustering>
</event>
<event>
 6    0  0.1631680E+002  0.1238541E+03  0.7546771E-02  0.1236871E+00
         21   -1    0    0  501  502  0.00000000000E+00  0.00000000000E+00  0.28201634489E+03  0.28201634489E+03  0.00000000000E+00 0. -1.
          1   -1    0    0  504    0 -0.00000000000E+00 -0.00000000000E+00 -0.17152188786E+03  0.17152188786E+03  0.00000000000E+00 0. -1.
         21    1    1    2  503  502 -0.92341060819E+01 -0.84324393005E+02  0.12709864694E+03  0.15280686511E+03  0.00000000000E+00 0. -1.
         21    1    1    2  504  505 -0.53945880816E+01  0.80611919226E+02 -0.72809900445E+01  0.81119639532E+02  0.00000000000E+00 0. -1.
         21    1    1    2  505  503  0.13169615442E+01  0.78654273012E+02  0.73123499154E+02  0.10740239839E+03  0.00000000000E+00 0. -1.
          1    1    1    2  501    0  0.13311732619E+02 -0.74941799233E+02 -0.82446699022E+02  0.11220932972E+03  0.00000000000E+00 0. -1.
<scales pt_clust_3="97.55438" pt_clust_4="75.29728" pt_clust_5="75.29728" pt_clust_6="76.11488"></scales>
<clustering>
<clus scale="   75.297">  4  5 -1 -1</clus>
<clus scale="   76.115">  2  6  1 -1</clus>
<clus scale="   97.554">  1  3  2 -1</clus>
<clus scale="   97.554">  1  3  2 -1</clus>
</clustering>
</event>
<event>
 6    0  0.1631680E+002  0.1316601E+03  0.7546771E-02  0.1225013E+00
         -1   -1    0    0    0  501 -0.00000000000E+00  0.00000000000E+00  0.48449397992E+03  0.48449397992E+03  0.00000000000E+00 0.  1.
         21   -1    0    0  505  502  0.00000000000E+00 -0.00000000000E+00 -0.13950805280E+04  0.13950805280E+04  0.00000000000E+00 0. -1.
         21    1    1    2  503  502  0.11006515358E+03  0.71740113764E+02 -0.12515449811E+04  0.12584219569E+04  0.00000000000E+00 0. -1.
         21    1    1    2  504  501  0.41841234085E+01 -0.32071814234E+02  0.48057404400E+02  0.57927733208E+02  0.00000000000E+00 0. -1.
         21    1    1    2  505  504 -0.16199308070E+03  0.38414646480E+01 -0.82829973010E+02  0.18198164598E+03  0.00000000000E+00 0. -1.
         -1    1    1    2    0  503  0.47743803707E+02 -0.43509764177E+02  0.37573100169E+03  0.38124317174E+03  0.00000000000E+00 0.  1.
<scales pt_clust_3="14000.00000" pt_clust_4="32.34360" pt_clust_5="131.66015" pt_clust_6="88.18079"></scales>
<clustering>
<clus scale="   32.344">  1  4  2 -1</clus>
<clus scale="   88.181">  1  6  2 -1</clus>
<clus scale="  131.660">  1  5  2 -1</clus>
<clus scale="  131.660">  2  3  1 -1</clus>
</clustering>
</event>
<event>
 6    0  0.1631680E+002  0.2545630E+03  0.7546771E-02  0.1110455E+00
         21   -1    0    0  504  502  0.00000000000E+00  0.00000000000E+00  0.46207583223E+03  0.46207583223E+03  0.00000000000E+00 0. -1.
          2   -1    0    0  503    0 -0.00000000000E+00 -0.00000000000E+00 -0.14198340269E+04  0.14198340269E+04  0.00000000000E+00 0.  1.
         21    1    1    2  503  505 -0.21497302949E+02  0.49498661802E+02 -0.39284361906E+03  0.39653292498E+03  0.00000000000E+00 0.  1.
         21    1    1    2  504  501 -0.99726557674E+01 -0.50205892943E+02  0.39500327025E+03  0.39830599927E+03  0.00000000000E+00 0. -1.
         21    1    1    2  505  502  0.51118862007E+02 -0.24632785517E+03 -0.37225104784E+03  0.44928987625E+03  0.00000000000E+00 0.  1.
          2    1    1    2  501    0 -0.19648903291E+02  0.24703508631E+03 -0.58766679800E+03  0.63778105863E+03  0.00000000000E+00 0.  1.
<scales pt_clust_3="52.78523" pt_clust_4="51.18677" pt_clust_5="14000.00000" pt_clust_6="254.56305"></scales>
<clustering>
<clus scale="   51.187">  1  4  2 -1</clus>
<clus scale="   52.785">  2  3  1 -1</clus>
<clus scale="  254.563">  2  6  1 -1</clus>
<clus scale="   51.187">  1  3  2 -1</clus>
</clustering>
</event>
<event>
 6    0  0.1631680E+002  0.1497196E+03  0.7546771E-02  0.1200818E+00
         21   -1    0    0  505  502  0.00000000000E+00  0.00000000000E+00  0.32928488359E+03  0.32928488359E+03  0.00000000000E+00 0.  1.
          2   -1    0    0  503    0 -0.00000000000E+00 -0.00000000000E+00 -0.15862095211E+03  0.15862095211E+03  0.00000000000E+00 0.  1.
         21    1    1    2  503  504  0.41385465805E+02 -0.88662720773E+02 -0.53597065031E+01  0.97992659361E+02  0.00000000000E+00 0.  1.
         21    1    1    2  504  502 -0.18301692898E+02 -0.28629227115E+02  0.68942572841E+01  0.34671535756E+02  0.00000000000E+00 0.  1.
         21    1    1    2  505  501  0.61558612338E+02 -0.23526103237E+02  0.17890078538E+03  0.19065264566E+03  0.00000000000E+00 0.  1.
          2    1    1    2  501    0 -0.84642385245E+02  0.14081805113E+03 -0.97714046761E+01  0.16458899493E+03  0.00000000000E+00 0.  1.
<scales pt_clust_3="33.88936" pt_clust_4="33.88936" pt_clust_5="65.90099" pt_clust_6="138.23457"></scales>
<clustering>
<clus scale="   33.889">  3  4 -1 -1</clus>
<clus scale="   65.901">  1  5  2 -1</clus>
<clus scale="  138.235">  1  6  2 -1</clus>
<clus scale="   65.901">  1  3  2 -1</clus>
</clustering>
</event>
<event>
 6    0  0.1631680E+002  0.1236239E+03  0.7546771E-02  0.1237236E+00
         21   -1    0    0  503  502  0.00000000000E+00  0.00000000000E+00  0.12423819054E+03  0.12423819054E+03  0.00000000000E+00 0.  1.
          1   -1    0    0  505    0 -0.00000000000E+00 -0.00000000000E+00 -0.45212797353E+03  0.45212797353E+03  0.00000000000E+00 0. -1.
         21    1    1    2  503  504 -0.29098227114E+02  0.36251912336E+02  0.33597947456E+02  0.57356168304E+02  0.00000000000E+00 0.  1.
         21    1    1    2  504  501  0.12058875398E+02  0.74344686790E+02  0.37988079047E+02  0.84354271258E+02  0.00000000000E+00 0.  1.
         21    1    1    2  505  502  0.22827623832E+02  0.20547132875E+02 -0.31627080126E+02  0.44085794498E+02  0.00000000000E+00 0.  1.
          1    1    1    2  501    0 -0.57882721163E+01 -0.13114373200E+03 -0.36784872937E+03  0.39056993002E+03  0.00000000000E+00 0. -1.
<scales pt_clust_3="38.45173" pt_clust_4="38.45173" pt_clust_5="30.71295" pt_clust_6="113.34691"></scales>
<clustering>
<clus scale="   30.713">  2  5  1 -1</clus>
<clus scale="   38.452">  3  4 -1 -1</clus>
<clus scale="  113.347">  2  6  1 -1</clus>
<clus scale="  123.624">  1  3  2 -1</clus>
</clustering>
</event>
<event>
 6    0  0.1631680E+002  0.8779619E+02  0.7546771E-02  0.1308278E+00
          2   -1    0    0  504    0 -0.00000000000E+00  0.00000000000E+00  0.26932388912E+04  0.26932388912E+04  0.00000000000E+00 0.  1.
         21   -1    0    0  503  502  0.00000000000E+00 -0.00000000000E+00 -0.16129421664E+02  0.16129421664E+02  0.00000000000E+00 0. -1.
         21    1    1    2  503  501 -0.21862407245E+01 -0.56964342919E+02  0.32916852792E+03  0.33406831006E+03  0.00000000000E+00 0.  1.
         21    1    1    2  504  505  0.76877480038E+02  0.96587390912E+02  0.10609533621E+04  0.10681110932E+04  0.00000000000E+00 0.  1.
         21    1    1    2  505  502 -0.56766374512E+02  0.35943510673E+02  0.11928150450E+03  0.13690301148E+03  0.00000000000E+00 0. -1.
          2    1    1    2  501    0 -0.17924864802E+02 -0.75566558665E+02  0.11677060750E+04  0.11702858980E+04  0.00000000000E+00 0.  1.
<scales pt_clust_3="57.00628" pt_clust_4="87.79619" pt_clust_5="58.17928" pt_clust_6="14000.00000"></scales>
<clustering>
<clus scale="   57.006">  2  3  1 -1</clus>
<clus scale="   58.179">  2  5  1 -1</clus>
<clus scale="   87.796">  2  4  1 -1</clus>
<clus scale="   57.006">  2  3  1 -1</clus>
</clustering>
</event>
<event>
 6    0  0.1631680E+002  0.1075151E+03  0.7546771E-02  0.1265242E+00
          2   -1    0    0  503    0 -0.00000000000E+00  0.00000000000E+00  0.10199005917E+04  0.10199005917E+04  0.00000000000E+00 0.  1.
         21   -1    0    0  505  502  0.00000000000E+00 -0.00000000000E+00 -0.25847918060E+03  0.25847918060E+03  0.00000000000E+00 0. -1.
         21    1    1    2  503  502 -0.21170054534E+02  0.10596548185E+03 -0.21535115722E+03  0.24094185081E+03  0.00000000000E+00 0. -1.
         21    1    1    2  504  501 -0.67404080634E+01 -0.52717602130E+02  0.21193048721E+02  0.57216466067E+02  0.00000000000E+00 0.  1.
         21    1    1    2  505  504  0.65146296748E+02 -0.85238578062E+02  0.23914260267E+03  0.26210463480E+03  0.00000000000E+00 0.  1.
          2    1    1    2  501    0 -0.37235834151E+02  0.31990698337E+02  0.71643691695E+03  0.71811682064E+03  0.00000000000E+00 0.  1.
<scales pt_clust_3="107.51513" pt_clust_4="49.93086" pt_clust_5="14000.00000" pt_clust_6="49.09086"></scales>
<clustering>
<clus scale="   49.091">  1  6  2 -1</clus>
<clus scale="   49.931">  1  4  2 -1</clus>
<clus scale="  107.515">  2  3  1 -1</clus>
<clus scale="  107.515">  2  3  1 -1</clus>
</clustering>
</event>
<event>
 6    0  0.1631680E+002  0.1439987E+03  0.7546771E-02  0.1208047E+00
         21   -1    0    0  505  502  0.00000000000E+00  0.00000000000E+00  0.68477205370E+03  0.68477205370E+03  0.00000000000E+00 0. -1.
          2   -1    0    0  504    0 -0.00000000000E+00 -0.00000000000E+00 -0.16421111127E+04  0.16421111127E+04  0.00000000000E+00 0. -1.
         21    1    1    2  503  501 -0.15791566035E+03 -0.69273114130E+01 -0.51049566662E+03  0.53440730634E+03  0.00000000000E+00 0. -1.
         21    1    1    2  504  502 -0.60642573854E+01  0.77293771845E+02  0.24409054949E+03  0.25610798257E+03  0.00000000000E+00 0. -1.
         21    1    1    2  505  503  0.31161723069E+02 -0.19693806211E+02  0.41736474345E+03  0.41898953216E+03  0.00000000000E+00 0. -1.
          2    1    1    2  501    0  0.13281819466E+03 -0.50672654222E+02 -0.11082986853E+04  0.11173783453E+04  0.00000000000E+00 0. -1.
<scales pt_clust_3="14000.00000" pt_clust_4="63.21738" pt_clust_5="36.86325" pt_clust_6="143.99873"></scales>
<clustering>
<clus scale="   36.863">  1  5  2 -1</clus>
<clus scale="   63.217">  1  4  2 -1</clus>
<clus scale="  143.999">  2  6  1 -1</clus>
<clus scale="   36.863">  1  3  2 -1</clus>
</clustering>
</event>
<event>
 6    0  0.1631680E+002  0.1749213E+03  0.7546771E-02  0.1172811E+00
          1   -1    0    0  503    0 -0.00000000000E+00  0.00000000000E+00  0.26035376474E+03  0.26035376474E+03  0.00000000000E+00 0.  1.
         21   -1    0    0  501  502  0.00000000000E+00 -0.00000000000E+00 -0.22482413161E+03  0.22482413161E+03  0.00000000000E+00 0. -1.
         21    1    1    2  503  505  0.13715861849E+02  0.31557150743E+02  0.21002448443E+02  0.40312299238E+02  0.00000000000E+00 0. -1.
         21    1    1    2  504  502  0.94815661925E+02 -0.63508049565E+02 -0.70855865820E+02  0.13432734579E+03  0.00000000000E+00 0. -1.
         21    1    1    2  505  504  0.18652097683E+02 -0.56928652491E+02 -0.69190993368E+02  0.91521395235E+02  0.00000000000E+00 0. -1.
          1    1    1    2  501    0 -0.12718362146E+03  0.88879551312E+02  0.15457404388E+03  0.21901685608E+03  0.00000000000E+00 0.  1.
<scales pt_clust_3="34.40899" pt_clust_4="45.58051" pt_clust_5="45.58051" pt_clust_6="163.04256"></scales>
<clustering>
<clus scale="   34.409">  1  3  2 -1</clus>
<clus scale="   45.581">  4  5 -1 -1</clus>
<clus scale="  163.043">  1  6  2 -1</clus>
<clus scale="  174.921">  2  3  1 -1</clus>
</clustering>
</event>
<event>
 6    0  0.1631680E+002  0.1560599E+03  0.7546771E-02  0.1193218E+00
         -4   -1    0    0    0  501 -0.00000000000E+00  0.00000000000E+00  0.33720357598E+03  0.33720357598E+03  0.00000000000E+00 0.  1.
         21   -1    0    0  503  502  0.00000000000E+00 -0.00000000000E+00 -0.13157979448E+04  0.13157979448E+04  0.00000000000E+00 0. -1.
         21    1    1    2  503  504 -0.21587008769E+02 -0.17750565871E+03 -0.24964720208E+03  0.30707976705E+03  0.00000000000E+00 0.  1.
         21    1    1    2  504  501  0.17971228649E+02  0.26883040778E+02  0.21935923404E+02  0.39074898288E+02  0.00000000000E+00 0. -1.
         21    1    1    2  505  502  0.40025402832E+02  0.21919900353E+02 -0.10122318642E+04  0.10132600168E+04  0.00000000000E+00 0. -1.
         -4    1    1    2    0  505 -0.36409622713E+02  0.12870271758E+03  0.26134877400E+03  0.29358683862E+03  0.00000000000E+00 0.  1.
<scales pt_clust_3="156.05986" pt_clust_4="32.33671" pt_clust_5="45.68265" pt_clust_6="14000.00000"></scales>
<clustering>
<clus scale="   32.337">  1  4  2 -1</clus>
<clus scale="   45.683">  2  5  1 -1</clus>
<clus scale="  156.060">  2  3  1 -1</clus>
<clus scale="   45.683">  2  3  1 -1</clus>
</clustering>
</event>
<event>
 6    0  0.1631680E+002  0.1192580E+03  0.7546771E-02  0.1244326E+00
         21   -1    0    0  503  502  0.00000000000E+00  0.00000000000E+00  0.18783155100E+04  0.18783155100E+04  0.00000000000E+00 0.  1.
          1   -1    0    0  504    0 -0.00000000000E+00 -0.00000000000E+00 -0.20747915524E+03  0.20747915524E+03  0.00000000000E+00 0.  1.
         21    1    1    2  503  505 -0.30616471260E+02  0.12954860756E+02  0.13550173715E+04  0.13554251266E+04  0.00000000000E+00 0.  1.
         21    1    1    2  504  502 -0.57095283643E+01 -0.39269905959E+02  0.40967832776E+03  0.41159574399E+03  0.00000000000E+00 0. -1.
         21    1    1    2  505  501 -0.12813353838E+02  0.13278697051E+03  0.41475696625E+02  0.13970252319E+03  0.00000000000E+00 0. -1.
          1    1    1    2  501    0  0.49139353462E+02 -0.10647192531E+03 -0.13533504109E+03  0.17907127152E+03  0.00000000000E+00 0.  1.
<scales pt_clust_3="33.24450" pt_clust_4="41.61153" pt_clust_5="119.25800" pt_clust_6="14000.00000"></scales>
<clustering>
<clus scale="   33.244">  1  3  2 -1</clus>
<clus scale="   41.612">  1  4  2 -1</clus>
<clus scale="  119.258">  1  5  2 -1</clus>
<clus scale="   33.244">  1  3  2 -1</clus>
</clustering>
</event>
<event>
 6    0  0.1631680E+002  0.1211667E+03  0.7546771E-02  0.1241185E+00
          1   -1    0    0  505    0 -0.00000000000E+00  0.00000000000E+00  0.14077629849E+03  0.14077629849E+03  0.00000000000E+00 0.  1.
         21   -1    0    0  503  502  0.00000000000E+00 -0.00000000000E+00 -0.30913658469E+03  0.30913658469E+03  0.00000000000E+00 0.  1.
         21    1    1    2  503  501 -0.11904572645E+02 -0.34595307131E+02 -0.38755333137E+02  0.53296622519E+02  0.00000000000E+00 0.  1.
         21    1    1    2  504  502  0.85993517861E+02  0.11510227829E+03 -0.17405088457E+03  0.22569255637E+03  0.00000000000E+00 0.  1.
         21    1    1    2  505  504  0.29810082288E+02 -0.41202904916E+01  0.27668387569E+02  0.40879792935E+02  0.00000000000E+00 0.  1.
          1    1    1    2  501    0 -0.10389902750E+03 -0.76386680665E+02  0.16777543945E+02  0.13004391135E+03  0.00000000000E+00 0.  1.
<scales pt_clust_3="36.24615" pt_clust_4="14000.00000" pt_clust_5="30.09348" pt_clust_6="121.16669"></scales>
<clustering>
<clus scale="   30.093">  1  5  2 -1</clus>
<clus scale="   36.246">  2  3  1 -1</clus>
<clus scale="  121.167">  1  6  2 -1</clus>
<clus scale="   36.246">  2  3  1 -1</clus>
</clustering>
</event>
<event>
 6    0  0.1631680E+002  0.8339669E+02  0.7546771E-02  0.1319679E+00
         21   -1    0    0  501  502  0.00000000000E+00  0.00000000000E+00  0.11376216793E+03  0.11376216793E+03  0.00000000000E+00 0. -1.
          1   -1    0    0  503    0 -0.00000000000E+00 -0.00000000000E+00 -0.24756739997E+04  0.24756739997E+04  0.00000000000E+00 0.  1.
         21    1    1    2  503  504  0.29388217462E+02 -0.25823729519E+02 -0.58549062613E+03  0.58679622154E+03  0.00000000000E+00 0. -1.
         21    1    1    2  504  505  0.37782387363E+02  0.83074097374E+02 -0.65565826333E+03  0.66197928421E+03  0.00000000000E+00 0. -1.
         21    1    1    2  505  502  0.23243882863E+02 -0.30316007799E+02  0.10476209304E+03  0.11150979579E+03  0.00000000000E+00 0. -1.
          1    1    1    2  501    0 -0.90414487688E+02 -0.26934360056E+02 -0.12255250353E+04  0.12291508661E+04  0.00000000000E+00 0.  1.
<scales pt_clust_3="43.47832" pt_clust_4="14000.00000" pt_clust_5="38.20129" pt_clust_6="83.39669"></scales>
<clustering>
<clus scale="   38.201">  1  5  2 -1</clus>
<clus scale="   43.478">  2  3  1 -1</clus>
<clus scale="   83.397">  2  6  1 -1</clus>
<clus scale="   38.201">  1  3  2 -1</clus>
</clustering>
</event>
<event>
 6    0  0.1631680E+002  0.8151436E+02  0.7546771E-02  0.1324808E+00
          4   -1    0    0  503    0 -0.00000000000E+00  0.00000000000E+00  0.16968546338E+03  0.16968546338E+03  0.00000000000E+00 0.  1.
         21   -1    0    0  505  502  0.00000000000E+00 -0.00000000000E+00 -0.36675751348E+03  0.36675751348E+03  0.00000000000E+00 0.  1.
         21    1    1    2  503  502  0.49010785524E+02  0.70417925205E+02 -0.22114722858E+03  0.23720631947E+03  0.00000000000E+00 0.  1.
         21    1    1    2  504  501  0.74149368900E+02 -0.31800292399E+02 -0.32009163911E+02  0.86798468185E+02  0.00000000000E+00 0.  1.
         21    1    1    2  505  504 -0.39937098273E+02 -0.28386714792E+02 -0.54741168955E+02  0.73466815459E+02  0.00000000000E+00 0. -1.
          4    1    1    2  501    0 -0.83223056152E+02 -0.10230918014E+02  0.11082551134E+03  0.13897137375E+03  0.00000000000E+00 0.  1.
<scales pt_clust_3="52.39973" pt_clust_4="81.51436" pt_clust_5="48.99773" pt_clust_6="14000.00000"></scales>
<clustering>
<clus scale="   48.998">  2  5  1 -1</clus>
<clus scale="   52.400">  2  3  1 -1</clus>
<clus scale="   81.514">  2  4  1 -1</clus>
<clus scale="   48.998">  2  3  1 -1</clus>
</clustering>
</event>
<event>
 6    0  0.1631680E+002  0.9590905E+02  0.7546771E-02  0.1289142E+00
          4   -1    0    0  504    0 -0.00000000000E+00  0.00000000000E+00  0.46587004271E+03  0.46587004271E+03  0.00000000000E+00 0.  1.
         21   -1    0    0  505  502  0.00000000000E+00 -0.00000000000E+00 -0.66756291494E+03  0.66756291494E+03  0.00000000000E+00 0. -1.
         21    1    1    2  503  502  0.55246646576E+02 -0.53371015295E+02 -0.51237147775E+03  0.51809766303E+03  0.00000000000E+00 0. -1.
         21    1    1    2  504  503 -0.32658235786E+02  0.11838186733E+03  0.21622815265E+03  0.24866732973E+03  0.00000000000E+00 0.  1.
         21    1    1    2  505  501  0.26264351511E+02  0.14750003251E+02 -0.12475582090E+03  0.12834092724E+03  0.00000000000E+00 0. -1.
          4    1    1    2  501    0 -0.48852762302E+02 -0.79760855285E+02  0.21920627376E+03  0.23832703765E+03  0.00000000000E+00 0.  1.
<scales pt_clust_3="89.37533" pt_clust_4="14000.00000" pt_clust_5="30.12273" pt_clust_6="95.90905"></scales>
<clustering>
<clus scale="   30.123">  2  5  1 -1</clus>
<clus scale="   89.375">  2  3  1 -1</clus>
<clus scale="   95.909">  1  6  2 -1</clus>
<clus scale="   30.123">  2  3  1 -1</clus>
</clustering>
</event>
<event>
 6    0  0.1631680E+002  0.1517739E+03  0.7546771E-02  0.1198310E+00
         21   -1    0    0  504  502  0.00000000000E+00  0.00000000000E+00  0.11655920488E+03  0.11655920488E+03  0.00000000000E+00 0.  1.
          2   -1    0    0  505    0 -0.00000000000E+00 -0.00000000000E+00 -0.17877137231E+04  0.17877137231E+04  0.00000000000E+00 0.  1.
         21    1    1    2  503  502 -0.18715824151E+03  0.11539622683E+03 -0.95274079804E+02  0.23962814278E+03  0.00000000000E+00 0.  1.
         21    1    1    2  504  501  0.96735917486E+02 -0.60534654673E+02 -0.57445770769E+02  0.12775875206E+03  0.00000000000E+00 0.  1.
         21    1    1    2  505  503 -0.11029774468E+02 -0.82212491733E+02 -0.23598186101E+03  0.25013593993E+03  0.00000000000E+00 0. -1.
          2    1    1    2  501    0  0.10145209849E+03  0.27350919571E+02 -0.12824528067E+04  0.12867500932E+04  0.00000000000E+00 0.  1.
<scales pt_clust_3="14000.00000" pt_clust_4="151.77390" pt_clust_5="82.94908" pt_clust_6="100.98587"></scales>
<clustering>
<clus scale="   82.949">  2  5  1 -1</clus>
<clus scale="  100.986">  2  6  1 -1</clus>
<clus scale="  151.774">  1  4  2 -1</clus>
<clus scale="  151.774">  1  3  2 -1</clus>
</clustering>
</event>
<event>
 6    0  0.1631680E+002  0.1215799E+03  0.7546771E-02  0.1240513E+00
         -3   -1    0    0    0  501 -0.00000000000E+00  0.00000000000E+00  0.85395878527E+03  0.85395878527E+03  0.00000000000E+00 0.  1.
         21   -1    0    0  505  502  0.00000000000E+00 -0.00000000000E+00 -0.11841583167E+04  0.11841583167E+04  0.00000000000E+00 0.  1.
         21    1    1    2  503  504 -0.56108145430E+02 -0.53320630285E+02 -0.25386328073E+03  0.26540116598E+03  0.00000000000E+00 0.  1.
         21    1    1    2  504  502 -0.46616822704E+02 -0.45488399067E+02 -0.86716903512E+03  0.86961167086E+03  0.00000000000E+00 0.  1.
         21    1    1    2  505  501  0.17669615760E+02  0.26691856607E+02  0.79094304883E+03  0.79159053622E+03  0.00000000000E+00 0.  1.
         -3    1    1    2    0  503  0.85055352374E+02  0.72117172746E+02 -0.11026437222E+00  0.11151372889E+03  0.00000000000E+00 0.  1.
<scales pt_clust_3="121.57993" pt_clust_4="64.52372" pt_clust_5="32.01048" pt_clust_6="14000.00000"></scales>
<clustering>
<clus scale="   32.010">  1  5  2 -1</clus>
<clus scale="   64.524">  2  4  1 -1</clus>
<clus scale="  121.580">  2  3  1 -1</clus>
<clus scale="   64.524">  2  3  1 -1</clus>
</clustering>
</event>
<event>
 6    0  0.1631680E+002  0.8028465E+02  0.7546771E-02  0.1328246E+00
         21   -1    0    0  505  502  0.00000000000E+00  0.00000000000E+00  0.27581169708E+02  0.27581169708E+02  0.00000000000E+00 0.  1.
          2   -1    0    0  504    0 -0.00000000000E+00 -0.00000000000E+00 -0.95429344554E+03  0.95429344554E+03  0.00000000000E+00 0.  1.
         21    1    1    2  503  502  0.10040694745E+03 -0.26800851761E+02 -0.20711003329E+03  0.23172053565E+03  0.00000000000E+00 0.  1.
         21    1    1    2  504  503  0.32050418769E+02 -0.11742352280E+02 -0.20205769209E+03  0.20492052877E+03  0.00000000000E+00 0. -1.
         21    1    1    2  505  501 -0.53337394227E+02 -0.88086318543E+01 -0.70836227576E+02  0.89108028568E+02  0.00000000000E+00 0.  1.
          2    1    1    2  501    0 -0.79119971989E+02  0.47351835895E+02 -0.44670832288E+03  0.45612552226E+03  0.00000000000E+00 0.  1.
<scales pt_clust_3="14000.00000" pt_clust_4="34.13374" pt_clust_5="50.92691" pt_clust_6="80.28465"></scales>
<clustering>
<clus scale="   34.134">  2  4  1 -1</clus>
<clus scale="   50.927">  1  5  2 -1</clus>
<clus scale="   80.285">  2  6  1 -1</clus>
<clus scale="   50.927">  1  3  2 -1</clus>
</clustering>
</event>
<event>
 6    0  0.1631680E+002  0.6955330E+02  0.7546771E-02  0.1361619E+00
          4   -1    0    0  504    0 -0.00000000000E+00  0.00000000000E+00  0.12481615475E+04  0.12481615475E+04  0.00000000000E+00 0. -1.
         21   -1    0    0  503  502  0.00000000000E+00 -0.00000000000E+00 -0.11911991325E+03  0.11911991325E+03  0.00000000000E+00 0. -1.
         21    1    1    2  503  501 -0.50719129813E+02 -0.25069765375E+02  0.80013536629E+02  0.97995353506E+02  0.00000000000E+00 0.  1.
         21    1    1    2  504  505  0.40919621115E+02  0.80109032294E+02  0.21068643352E+03  0.22908654635E+03  0.00000000000E+00 0.  1.
         21    1    1    2  505  502 -0.44122010620E+02 -0.10368126488E+02 -0.94461349588E+02  0.10477211668E+03  0.00000000000E+00 0. -1.
          4    1    1    2  501    0  0.53921519317E+02 -0.44671140431E+02  0.93280301368E+03  0.93542744420E+03  0.00000000000E+00 0. -1.
<scales pt_clust_3="14000.00000" pt_clust_4="69.55330" pt_clust_5="45.32383" pt_clust_6="68.22404"></scales>
<clustering>
<clus scale="   45.324">  2  5  1 -1</clus>
<clus scale="   68.224">  1  6  2 -1</clus>
<clus scale="   69.553">  2  4  1 -1</clus>
<clus scale="   45.324">  2  3  1 -1</clus>
</clustering>
</event>
<event>
 6    0  0.1631680E+002  0.1699134E+03  0.7546771E-02  0.1177938E+00
         21   -1    0    0  503  502  0.00000000000E+00  0.00000000000E+00  0.96415379822E+02  0.96415379822E+02  0.00000000000E+00 0. -1.
          2   -1    0    0  505    0 -0.00000000000E+00 -0.00000000000E+00 -0.28000159110E+04  0.28000159110E+04  0.00000000000E+00 0. -1.
         21    1    1    2  503  501 -0.67988462509E+02  0.11434382727E+03 -0.13000789599E+03  0.18600805060E+03  0.00000000000E+00 0. -1.
         21    1    1    2  504  502  0.21680782689E+03 -0.17336713436E+03 -0.24669787313E+03  0.37137802531E+03  0.00000000000E+00 0. -1.
         21    1    1    2  505  504 -0.11008294711E+02 -0.40400353216E+02 -0.15639830399E+03  0.16190676509E+03  0.00000000000E+00 0. -1.
          2    1    1    2  501    0 -0.13781106967E+03  0.99423660313E+02 -0.21704964581E+04  0.21771384498E+04  0.00000000000E+00 0. -1.
<scales pt_clust_3="131.30114" pt_clust_4="14000.00000" pt_clust_5="41.87327" pt_clust_6="169.91338"></scales>
<clustering>
<clus scale="   41.873">  2  5  1 -1</clus>
<clus scale="  131.301">  1  3  2 -1</clus>
<clus scale="  169.913">  2  6  1 -1</clus>
<clus scale="  131.301">  1  3  2 -1</clus>
</clustering>
</event>
<event>
 6    0  0.1631680E+002  0.8138521E+02  0.7546771E-02  0.1325166E+00
         21   -1    0    0  504  502  0.00000000000E+00  0.00000000000E+00  0.81122306048E+03  0.81122306048E+03  0.00000000000E+00 0. -1.
          2   -1    0    0  503    0 -0.00000000000E+00 -0.00000000000E+00 -0.10030617904E+04  0.10030617904E+04  0.00000000000E+00 0. -1.
         21    1    1    2  503  505 -0.29044082664E+02  0.37212363033E+02 -0.56347070474E+02  0.73507217681E+02  0.00000000000E+00 0.  1.
         21    1    1    2  504  501  0.87136167859E+02 -0.97269030559E+01  0.67684230103E+03  0.68249749073E+03  0.00000000000E+00 0. -1.
         21    1    1    2  505  502 -0.57558203144E+02  0.31786157423E+02  0.11316758742E+03  0.13088242584E+03  0.00000000000E+00 0. -1.
          2    1    1    2  501    0 -0.53388205206E+00 -0.59271617400E+02 -0.92550154788E+03  0.92739771661E+03  0.00000000000E+00 0. -1.
<scales pt_clust_3="47.20507" pt_clust_4="81.38521" pt_clust_5="14000.00000" pt_clust_6="36.88985"></scales>
<clustering>
<clus scale="   47.205">  2  3  1 -1</clus>
<clus scale="   36.890">  2  6  1 -1</clus>
<clus scale="   81.385">  1  4  2 -1</clus>
<clus scale="   81.385">  1  3  2 -1</clus>
</clustering>
</event>
<event>
 6    0  0.1631680E+002  0.8687820E+02  0.7546771E-02  0.1310593E+00
          2   -1    0    0  504    0 -0.00000000000E+00  0.00000000000E+00  0.17640622351E+04  0.17640622351E+04  0.00000000000E+00 0. -1.
         21   -1    0    0  505  502  0.00000000000E+00 -0.00000000000E+00 -0.24929535095E+03  0.24929535095E+03  0.00000000000E+00 0.  1.
         21    1    1    2  503  502  0.16329850109E+02  0.53450039545E+02 -0.54261648356E+02  0.77896708623E+02  0.00000000000E+00 0.  1.
         21    1    1    2  504  503  0.32541456287E+02  0.32652398650E+01  0.79439735915E+02  0.85908554934E+02  0.00000000000E+00 0. -1.
         21    1    1    2  505  501 -0.12218939973E+02 -0.13898738376E+03 -0.15152017272E+03  0.20597368297E+03  0.00000000000E+00 0.  1.
          2    1    1    2  501    0 -0.36652366422E+02  0.82272104345E+02  0.16411089693E+04  0.16435786395E+04  0.00000000000E+00 0. -1.
<scales pt_clust_3="55.97809" pt_clust_4="32.70486" pt_clust_5="86.87820" pt_clust_6="14000.00000"></scales>
<clustering>
<clus scale="   32.705">  1  4  2 -1</clus>
<clus scale="   55.978">  2  3  1 -1</clus>
<clus scale="   86.878">  2  5  1 -1</clus>
<clus scale="   55.978">  2  3  1 -1</clus>
</clustering>
</event>
<event>
 6    0  0.1631680E+002  0.1093931E+03  0.7546771E-02  0.1261698E+00
         21   -1    0    0  503  502  0.00000000000E+00  0.00000000000E+00  0.38471149814E+03  0.38471149814E+03  0.00000000000E+00 0. -1.
          2   -1    0    0  505    0 -0.00000000000E+00 -0.00000000000E+00 -0.12964280466E+04  0.12964280466E+04  0.00000000000E+00 0. -1.
         21    1    1    2  503  501 -0.13220654132E+03  0.10103597336E+03  0.33078535095E+03  0.37027798460E+03  0.00000000000E+00 0. -1.
         21    1    1    2  504  502  0.56593206103E+02 -0.19812112834E+02  0.76256232005E+00  0.59965759340E+02  0.00000000000E+00 0.  1.
         21    1    1    2  505  504  0.25007087702E+02 -0.50471139908E+02 -0.26903151862E+03  0.27486478205E+03  0.00000000000E+00 0.  1.
          2    1    1    2  501    0  0.50606247513E+02 -0.30752720614E+02 -0.97423294307E+03  0.97603101870E+03  0.00000000000E+00 0. -1.
<scales pt_clust_3="109.39310" pt_clust_4="61.13533" pt_clust_5="56.32664" pt_clust_6="14000.00000"></scales>
<clustering>
<clus scale="   56.327">  2  5  1 -1</clus>
<clus scale="   61.135">  1  4  2 -1</clus>
<clus scale="  109.393">  1  3  2 -1</clus>
<clus scale="   61.135">  1  3  2 -1</clus>
</clustering>
</event>
<event>
 6    0  0.1631680E+002  0.8892093E+02  0.7546771E-02  0.1305486E+00
          2   -1    0    0  505    0 -0.00000000000E+00  0.00000000000E+00  0.18736861644E+04  0.18736861644E+04  0.00000000000E+00 0.  1.
         21   -1    0    0  503  502  0.00000000000E+00 -0.00000000000E+00 -0.29549467062E+03  0.29549467062E+03  0.00000000000E+00 0. -1.
         21    1    1    2  503  504 -0.13193205096E+01 -0.38155306823E+02 -0.15195327593E+03  0.15667599086E+03  0.00000000000E+00 0. -1.
         21    1    1    2  504  501  0.89469692758E+02  0.33531997450E+02 -0.11459574943E+03  0.14920256889E+03  0.00000000000E+00 0. -1.
         21    1    1    2  505  502  0.52372836441E+02  0.71352110142E+02  0.37273869335E+03  0.38310334264E+03  0.00000000000E+00 0.  1.
          2    1    1    2  501    0 -0.14052320869E+03 -0.66728800769E+02  0.14720018258E+04  0.14801989327E+04  0.00000000000E+00 0.  1.
<scales pt_clust_3="38.17811" pt_clust_4="14000.00000" pt_clust_5="87.35594" pt_clust_6="88.92093"></scales>
<clustering>
<clus scale="   38.178">  2  3  1 -1</clus>
<clus scale="   87.356">  1  5  2 -1</clus>
<clus scale="   88.921">  1  6  2 -1</clus>
<clus scale="   38.178">  2  3  1 -1</clus>
</clustering>
</event>
<event>
 6    0  0.1631680E+002  0.8636476E+02  0.7546771E-02  0.1311902E+00
         21   -1    0    0  503  502  0.00000000000E+00  0.00000000000E+00  0.24384572199E+04  0.24384572199E+04  0.00000000000E+00 0. -1.
          2   -1    0    0  505    0 -0.00000000000E+00 -0.00000000000E+00 -0.41951391275E+03  0.41951391275E+03  0.00000000000E+00 0.  1.
         21    1    1    2  503  501  0.11295513868E+03  0.29993600633E+02  0.45194945611E+03  0.46681558491E+03  0.00000000000E+00 0. -1.
         21    1    1    2  504  502 -0.30743955577E+02  0.21120704381E+02  0.19396539147E+04  0.19400125216E+04  0.00000000000E+00 0. -1.
         21    1    1    2  505  504 -0.44829806950E+02 -0.22313048280E+02  0.21263271081E+02  0.54403220601E+02  0.00000000000E+00 0.  1.
          2    1    1    2  501    0 -0.37381376157E+02 -0.28801256735E+02 -0.39392333475E+03  0.39673980559E+03  0.00000000000E+00 0.  1.
<scales pt_clust_3="86.36476" pt_clust_4="37.29980" pt_clust_5="14000.00000" pt_clust_6="47.22231"></scales>
<clustering>
<clus scale="   37.300">  1  4  2 -1</clus>
<clus scale="   47.222">  2  6  1 -1</clus>
<clus scale="   86.365">  1  3  2 -1</clus>
<clus scale="   37.300">  1  3  2 -1</clus>
</clustering>
</event>
<event>
 6    0  0.1631680E+002  0.9739098E+02  0.7546771E-02  0.1285880E+00
          1   -1    0    0  505    0 -0.00000000000E+00  0.00000000000E+00  0.14188713387E+04  0.14188713387E+04  0.00000000000E+00 0. -1.
         21   -1    0    0  504  502  0.00000000000E+00 -0.00000000000E+00 -0.16712074435E+03  0.16712074435E+03  0.00000000000E+00 0. -1.
         21    1    1    2  503  502  0.76491620053E+02  0.47625479390E+02  0.44294145542E+03  0.45201359178E+03  0.00000000000E+00 0. -1.
         21    1    1    2  504  501  0.34666019820E+02 -0.30762061322E+02 -0.15410619749E+03  0.16092469497E+03  0.00000000000E+00 0. -1.
         21    1    1    2  505  503 -0.19079367529E+02  0.28489939085E+02  0.16205601926E+03  0.16564375109E+03  0.00000000000E+00 0.  1.
          1    1    1    2  501    0 -0.92078272343E+02 -0.45353357153E+02  0.80085931713E+03  0.80741004519E+03  0.00000000000E+00 0. -1.
<scales pt_clust_3="14000.00000" pt_clust_4="46.25680" pt_clust_5="34.28847" pt_clust_6="97.39098"></scales>
<clustering>
<clus scale="   34.288">  1  5  2 -1</clus>
<clus scale="   46.257">  2  4  1 -1</clus>
<clus scale="   97.391">  1  6  2 -1</clus>
<clus scale="   46.257">  2  3  1 -1</clus>
</clustering>
</event>
<event>
 6    0  0.1631680E+002  0.2036596E+03  0.7546771E-02  0.1146688E+00
         21   -1    0    0  505  502  0.00000000000E+00  0.00000000000E+00  0.15344990745E+03  0.15344990745E+03  0.00000000000E+00 0.  1.
          2   -1    0    0  503    0 -0.00000000000E+00 -0.00000000000E+00 -0.51796065706E+03  0.51796065706E+03  0.00000000000E+00 0.  1.
         21    1    1    2  503  502 -0.18078697866E+02 -0.21337163602E+03  0.80126353629E+01  0.21428601611E+03  0.00000000000E+00 0.  1.
         21    1    1    2  504  501 -0.21239147845E+02  0.37916497054E+02 -0.69874910159E+02  0.82287697864E+02  0.00000000000E+00 0.  1.
         21    1    1    2  505  504  0.76204891044E+02  0.16624357052E+03 -0.25707998168E+03  0.31549045491E+03  0.00000000000E+00 0.  1.
          2    1    1    2  501    0 -0.36887045333E+02  0.92115684446E+01 -0.45568493141E+02  0.59346395625E+02  0.00000000000E+00 0.  1.
<scales pt_clust_3="203.65960" pt_clust_4="31.48753" pt_clust_5="14000.00000" pt_clust_6="82.05509"></scales>
<clustering>
<clus scale="   31.488">  4  6 -1 -1</clus>
<clus scale="   82.055">  2  4  1 -1</clus>
<clus scale="  203.660">  1  3  2 -1</clus>
<clus scale="  203.660">  1  3  2 -1</clus>
</clustering>
</event>
<event>
 6    0  0.1631680E+002  0.1057261E+03  0.7546771E-02  0.1268696E+00
         21   -1    0    0  504  502  0.00000000000E+00  0.00000000000E+00  0.11946001148E+03  0.11946001148E+03  0.00000000000E+00 0.  1.
          2   -1    0    0  505    0 -0.00000000000E+00 -0.00000000000E+00 -0.33281512843E+04  0.33281512843E+04  0.00000000000E+00 0.  1.
         21    1    1    2  503  501  0.96053103581E+02 -0.78601387634E+01  0.74065716790E+02  0.12154715502E+03  0.00000000000E+00 0.  1.
         21    1    1    2  504  503  0.13193165316E+01 -0.34141100610E+02  0.37198416136E+01  0.34368482199E+02  0.00000000000E+00 0.  1.
         21    1    1    2  505  502  0.16601399826E+02  0.29385461020E+02 -0.18207500033E+03  0.18517671976E+03  0.00000000000E+00 0.  1.
          2    1    1    2  501    0 -0.11397381994E+03  0.12615778354E+02 -0.31044018309E+04  0.31065189388E+04  0.00000000000E+00 0.  1.
<scales pt_clust_3="105.72609" pt_clust_4="34.02672" pt_clust_5="33.75073" pt_clust_6="14000.00000"></scales>
<clustering>
<clus scale="   33.751">  2  5  1 -1</clus>
<clus scale="   34.027">  1  4  2 -1</clus>
<clus scale="  105.726">  1  3  2 -1</clus>
<clus scale="   34.027">  1  3  2 -1</clus>
</clustering>
</event>
<event>
 6    0  0.1631680E+002  0.1135876E+03  0.7546771E-02  0.1254067E+00
         -3   -1    0    0    0  501 -0.00000000000E+00  0.00000000000E+00  0.22071680460E+03  0.22071680460E+03  0.00000000000E+00 0.  1.
         21   -1    0    0  504  502  0.00000000000E+00 -0.00000000000E+00 -0.12985417080E+04  0.12985417080E+04  0.00000000000E+00 0.  1.
         21    1    1    2  503  501 -0.38231630793E+02  0.10776277328E+02 -0.11988087477E+02  0.41490962721E+02  0.00000000000E+00 0.  1.
         21    1    1    2  504  503  0.78141356650E+01  0.73076606645E+02 -0.12872684480E+03  0.14822905156E+03  0.00000000000E+00 0.  1.
         21    1    1    2  505  502 -0.15758637112E+02 -0.12771088767E+03 -0.11243885643E+04  0.11317279042E+04  0.00000000000E+00 0.  1.
         -3    1    1    2    0  505  0.46176132240E+02  0.43858003696E+02  0.18727859322E+03  0.19781059414E+03  0.00000000000E+00 0.  1.
<scales pt_clust_3="39.72135" pt_clust_4="113.58759" pt_clust_5="14000.00000" pt_clust_6="54.93245"></scales>
<clustering>
<clus scale="   39.721">  1  3  2 -1</clus>
<clus scale="   54.932">  1  6  2 -1</clus>
<clus scale="  113.588">  1  4  2 -1</clus>
<clus scale="  113.588">  2  3  1 -1</clus>
</clustering>
</event>
<event>
 6    0  0.1631680E+002  0.2084481E+03  0.7546771E-02  0.1142801E+00
         21   -1    0    0  501  502  0.00000000000E+00  0.00000000000E+00  0.13801633407E+03  0.13801633407E+03  0.00000000000E+00 0. -1.
          1   -1    0    0  505    0 -0.00000000000E+00 -0.00000000000E+00 -0.13313331763E+04  0.13313331763E+04  0.00000000000E+00 0. -1.
         21    1    1    2  503  502 -0.50757421785E+02  0.48837933637E+02 -0.24780636330E+02  0.74669535723E+02  0.00000000000E+00 0. -1.
         21    1    1    2  504  503 -0.88772665314E+02  0.10324941972E+03  0.28090746529E+02  0.13903279764E+03  0.00000000000E+00 0. -1.
         21    1    1    2  505  504 -0.54831345170E+02 -0.92958466397E+02 -0.82575301043E+03  0.83277595254E+03  0.00000000000E+00 0. -1.
          1    1    1    2  501    0  0.19436143227E+03 -0.59128886963E+02 -0.37087394200E+03  0.42287122446E+03  0.00000000000E+00 0. -1.
<scales pt_clust_3="39.77633" pt_clust_4="39.77633" pt_clust_5="107.92476" pt_clust_6="200.97785"></scales>
<clustering>
<clus scale="   39.776">  3  4 -1 -1</clus>
<clus scale="  107.925">  2  5  1 -1</clus>
<clus scale="  200.978">  2  6  1 -1</clus>
<clus scale="  208.448">  1  3  2 -1</clus>
</clustering>
</event>
<event>
 6    0  0.1631680E+002  0.1158561E+03  0.7546771E-02  0.1250094E+00
          2   -1    0    0  503    0 -0.00000000000E+00  0.00000000000E+00  0.12246864582E+04  0.12246864582E+04  0.00000000000E+00 0. -1.
         21   -1    0    0  501  502  0.00000000000E+00 -0.00000000000E+00 -0.13688680710E+03  0.13688680710E+03  0.00000000000E+00 0. -1.
         21    1    1    2  503  504 -0.80963444771E+02  0.29317343455E+02 -0.81466580678E+02  0.11853855822E+03  0.00000000000E+00 0. -1.
         21    1    1    2  504  505  0.24606128913E+02 -0.88247385548E+02  0.10957700246E+03  0.14282920606E+03  0.00000000000E+00 0. -1.
         21    1    1    2  505  502 -0.35832583600E+02 -0.15006988598E+02  0.52927488539E+01  0.39207103243E+02  0.00000000000E+00 0. -1.
          2    1    1    2  501    0  0.92189899459E+02  0.73937030691E+02  0.10543964804E+04  0.10609983977E+04  0.00000000000E+00 0. -1.
<scales pt_clust_3="115.85612" pt_clust_4="92.43804" pt_clust_5="38.84821" pt_clust_6="14000.00000"></scales>
<clustering>
<clus scale="   38.848">  2  5  1 -1</clus>
<clus scale="   92.438">  2  4  1 -1</clus>
<clus scale="  115.856">  2  3  1 -1</clus>
<clus scale="   38.848">  2  3  1 -1</clus>
</clustering>
</event>
<event>
 6    0  0.1631680E+002  0.9863917E+02  0.7546771E-02  0.1283184E+00
         21   -1    0    0  505  502  0.00000000000E+00  0.00000000000E+00  0.26428395386E+03  0.26428395386E+03  0.00000000000E+00 0.  1.
          2   -1    0    0  504    0 -0.00000000000E+00 -0.00000000000E+00 -0.12627142849E+04  0.12627142849E+04  0.00000000000E+00 0.  1.
         21    1    1    2  503  502  0.50150977042E+01  0.68691160332E+02  0.19309157292E+03  0.20500727364E+03  0.00000000000E+00 0.  1.
         21    1    1    2  504  503  0.34397568625E+02 -0.21188462516E+01 -0.78346128159E+02  0.85590875882E+02  0.00000000000E+00 0.  1.
         21    1    1    2  505  501 -0.92337477423E+02 -0.15089227453E+02  0.24191204676E+02  0.96639065112E+02  0.00000000000E+00 0.  1.
          2    1    1    2  501    0  0.52924811094E+02 -0.51483086627E+02 -0.11373669805E+04  0.11397610241E+04  0.00000000000E+00 0.  1.
<scales pt_clust_3="68.87619" pt_clust_4="34.46277" pt_clust_5="14000.00000" pt_clust_6="98.63917"></scales>
<clustering>
<clus scale="   34.463">  2  4  1 -1</clus>
<clus scale="   68.876">  1  3  2 -1</clus>
<clus scale="   98.639">  2  6  1 -1</clus>
<clus scale="   68.876">  1  3  2 -1</clus>
</clustering>
</event>
<event>
 6    0  0.1631680E+002  0.8293522E+02  0.7546771E-02  0.1320922E+00
         21   -1    0    0  503  502  0.00000000000E+00  0.00000000000E+00  0.10661207395E+03  0.10661207395E+03  0.00000000000E+00 0.  1.
          2   -1    0    0  505    0 -0.00000000000E+00 -0.00000000000E+00 -0.11369624199E+04  0.11369624199E+04  0.00000000000E+00 0.  1.
         21    1    1    2  503  501  0.41194177089E+02  0.20237023590E+02 -0.43432453664E+02  0.63189203042E+02  0.00000000000E+00 0.  1.
         21    1    1    2  504  502  0.16179603508E+02 -0.76694216306E+02  0.70214944401E+02  0.10523269835E+03  0.00000000000E+00 0.  1.
         21    1    1    2  505  504  0.26794168131E+02 -0.43605532852E+02 -0.14654812549E+03  0.15522797115E+03  0.00000000000E+00 0.  1.
          2    1    1    2  501    0 -0.84167948727E+02  0.10006272557E+03 -0.91058471119E+03  0.91992462131E+03  0.00000000000E+00 0.  1.
<scales pt_clust_3="45.89659" pt_clust_4="82.93522" pt_clust_5="51.41467" pt_clust_6="14000.00000"></scales>
<clustering>
<clus scale="   45.897">  1  3  2 -1</clus>
<clus scale="   51.415">  2  5  1 -1</clus>
<clus scale="   82.935">  1  4  2 -1</clus>
<clus scale="   45.897">  1  3  2 -1</clus>
</clustering>
</event>
<event>
 6    0  0.1631680E+002  0.4346949E+03  0.7546771E-02  0.1032387E+00
         -4   -1    0    0    0  501 -0.00000000000E+00  0.00000000000E+00  0.66409197664E+02  0.66409197664E+02  0.00000000000E+00 0. -1.
         21   -1    0    0  505  502  0.00000000000E+00 -0.00000000000E+00 -0.30172374870E+04  0.30172374870E+04  0.00000000000E+00 0. -1.
         21    1    1    2  503  502  0.34778355635E+03  0.21877758195E+03 -0.15733917669E+04  0.16261545698E+04  0.00000000000E+00 0. -1.
         21    1    1    2  504  503 -0.70927845454E+02 -0.10237844556E+03 -0.50068378977E+03  0.51594220869E+03  0.00000000000E+00 0. -1.
         21    1    1    2  505  501 -0.23552602132E+01  0.30627262420E+02 -0.59060950352E+02  0.66571557819E+02  0.00000000000E+00 0. -1.
         -4    1    1    2    0  504 -0.27450045068E+03 -0.14702639881E+03 -0.81769178226E+03  0.87497834839E+03  0.00000000000E+00 0. -1.
<scales pt_clust_3="417.05787" pt_clust_4="77.28484" pt_clust_5="30.71769" pt_clust_6="77.28484"></scales>
<clustering>
<clus scale="   30.718">  1  5  2 -1</clus>
<clus scale="   77.285">  4  6 -1 -1</clus>
<clus scale="  417.058">  2  3  1 -1</clus>
<clus scale="  417.058">  2  3  1 -1</clus>
</clustering>
</event>
<event>
 6    0  0.1631680E+002  0.7714495E+02  0.7546771E-02  0.1337355E+00
         21   -1    0    0  504  502  0.00000000000E+00  0.00000000000E+00  0.23064912046E+03  0.23064912046E+03  0.00000000000E+00 0.  1.
          2   -1    0    0  503    0 -0.00000000000E+00 -0.00000000000E+00 -0.28623167151E+04  0.28623167151E+04  0.00000000000E+00 0.  1.
         21    1    1    2  503  505  0.11445732517E+03  0.53798828081E+02 -0.13562203334E+04  0.13621043961E+04  0.00000000000E+00 0. -1.
         21    1    1    2  504  501  0.21869703488E+02 -0.20683458762E+02 -0.16164031530E+02  0.34166728147E+02  0.00000000000E+00 0.  1.
         21    1    1    2  505  502 -0.75113202674E+02 -0.10835609348E+02  0.21137944906E+03  0.22459001565E+03  0.00000000000E+00 0.  1.
          2    1    1    2  501    0 -0.61213825988E+02 -0.22279759971E+02 -0.14706626788E+04  0.14721046956E+04  0.00000000000E+00 0.  1.
<scales pt_clust_3="14000.00000" pt_clust_4="30.10132" pt_clust_5="62.01217" pt_clust_6="77.14495"></scales>
<clustering>
<clus scale="   30.101">  1  4  2 -1</clus>
<clus scale="   62.012">  1  5  2 -1</clus>
<clus scale="   77.145">  2  6  1 -1</clus>
<clus scale="   30.101">  1  3  2 -1</clus>
</clustering>
</event>
<event>
 6    0  0.1631680E+002  0.8398394E+02  0.7546771E-02  0.1318111E+00
         21   -1    0    0  504  502  0.00000000000E+00  0.00000000000E+00  0.17970023153E+03  0.17970023153E+03  0.00000000000E+00 0.  1.
          2   -1    0    0  505    0 -0.00000000000E+00 -0.00000000000E+00 -0.30232514844E+04  0.30232514844E+04  0.00000000000E+00 0.  1.
         21    1    1    2  503  501 -0.38008908925E+02 -0.75970006519E+02 -0.14174081276E+02  0.86122143657E+02  0.00000000000E+00 0.  1.
         21    1    1    2  504  503  0.45390045535E+02 -0.90848506799E+01  0.13816500677E+03  0.14571327956E+03  0.00000000000E+00 0.  1.
         21    1    1    2  505  502  0.52368880366E+02  0.28987349737E+02 -0.92757053741E+03  0.92949979448E+03  0.00000000000E+00 0.  1.
          2    1    1    2  501    0 -0.59750016976E+02  0.56067507462E+02 -0.20399716410E+04  0.20416164982E+04  0.00000000000E+00 0.  1.
<scales pt_clust_3="83.98394" pt_clust_4="46.29029" pt_clust_5="60.76310" pt_clust_6="14000.00000"></scales>
<clustering>
<clus scale="   46.290">  1  4  2 -1</clus>
<clus scale="   60.763">  2  5  1 -1</clus>
<clus scale="   83.984">  1  3  2 -1</clus>
<clus scale="   46.290">  1  3  2 -1</clus>
</clustering>
</event>
<event>
 6    0  0.1631680E+002  0.8580946E+02  0.7546771E-02  0.1313329E+00
         21   -1    0    0  503  502  0.00000000000E+00  0.00000000000E+00  0.22254421684E+02  0.22254421684E+02  0.00000000000E+00 0.  1.
          2   -1    0    0  504    0 -0.00000000000E+00 -0.00000000000E+00 -0.14141871583E+04  0.14141871583E+04  0.00000000000E+00 0. -1.
         21    1    1    2  503  501  0.20818836562E+02 -0.58685155298E+02 -0.74912140658E+02  0.97412526023E+02  0.00000000000E+00 0.  1.
         21    1    1    2  504  505 -0.54663250238E+02 -0.45514654088E+02 -0.53129503272E+03  0.53603550858E+03  0.00000000000E+00 0.  1.
         21    1    1    2  505  502 -0.37611913714E+02  0.62060198886E+01 -0.10868981368E+03  0.11518092869E+03  0.00000000000E+00 0.  1.
          2    1    1    2  501    0  0.71456327389E+02  0.97993789497E+02 -0.67703574958E+03  0.68781261671E+03  0.00000000000E+00 0. -1.
<scales pt_clust_3="55.03107" pt_clust_4="14000.00000" pt_clust_5="38.12048" pt_clust_6="85.80946"></scales>
<clustering>
<clus scale="   38.120">  1  5  2 -1</clus>
<clus scale="   55.031">  1  3  2 -1</clus>
<clus scale="   85.809">  1  6  2 -1</clus>
<clus scale="   38.120">  1  3  2 -1</clus>
</clustering>
</event>
<event>
 6    0  0.1631680E+002  0.2441759E+03  0.7546771E-02  0.1117042E+00
         21   -1    0    0  503  502  0.00000000000E+00  0.00000000000E+00  0.70675364650E+03  0.70675364650E+03  0.00000000000E+00 0.  1.
          2   -1    0    0  505    0 -0.00000000000E+00 -0.00000000000E+00 -0.16289381429E+04  0.16289381429E+04  0.00000000000E+00 0.  1.
         21    1    1    2  503  501  0.48104381972E+02 -0.27420948605E+03  0.60303687891E+03  0.66419752418E+03  0.00000000000E+00 0.  1.
         21    1    1    2  504  502  0.40374642763E+00  0.33611492529E+02  0.42911210365E+02  0.54509333294E+02  0.00000000000E+00 0. -1.
         21    1    1    2  505  504 -0.16290194573E+03  0.47024307764E+02 -0.68821892535E+03  0.70879730435E+03  0.00000000000E+00 0.  1.
          2    1    1    2  501    0  0.11439381733E+03  0.19357368576E+03 -0.87991366035E+03  0.90818762761E+03  0.00000000000E+00 0.  1.
<scales pt_clust_3="244.17594" pt_clust_4="33.61392" pt_clust_5="169.69377" pt_clust_6="14000.00000"></scales>
<clustering>
<clus scale="   33.614">  1  4  2 -1</clus>
<clus scale="  169.694">  2  5  1 -1</clus>
<clus scale="  244.176">  1  3  2 -1</clus>
<clus scale="   33.614">  1  3  2 -1</clus>
</clustering>
</event>
<event>
 6    0  0.1631680E+002  0.9964880E+02  0.7546771E-02  0.1281036E+00
          2   -1    0    0  504    0 -0.00000000000E+00  0.00000000000E+00  0.24071334555E+04  0.24071334555E+04  0.00000000000E+00 0.  1.
         21   -1    0    0  501  502  0.00000000000E+00 -0.00000000000E+00 -0.22995915902E+03  0.22995915902E+03  0.00000000000E+00 0.  1.
         21    1    1    2  503  502 -0.29945526354E+02 -0.50458172466E+01 -0.10860556876E+03  0.11277129238E+03  0.00000000000E+00 0. -1.
         21    1    1    2  504  505  0.61661301796E+00 -0.97391905216E+02  0.19140379410E+04  0.19165142324E+04  0.00000000000E+00 0.  1.
         21    1    1    2  505  503  0.11578029120E+03 -0.13981161818E+02 -0.74640681574E+02  0.13846219723E+03  0.00000000000E+00 0.  1.
          2    1    1    2  501    0 -0.86451377862E+02  0.11641888428E+03  0.44638260587E+03  0.46934489256E+03  0.00000000000E+00 0.  1.
<scales pt_clust_3="30.36766" pt_clust_4="99.64880" pt_clust_5="90.92779" pt_clust_6="14000.00000"></scales>
<clustering>
<clus scale="   30.368">  2  3  1 -1</clus>
<clus scale="   90.928">  2  5  1 -1</clus>
<clus scale="   99.649">  1  4  2 -1</clus>
<clus scale="   30.368">  2  3  1 -1</clus>
</clustering>
</event>
<event>
 6    0  0.1631680E+002  0.1988469E+03  0.7546771E-02  0.1150716E+00
         21   -1    0    0  501  502  0.00000000000E+00  0.00000000000E+00  0.60128003005E+03  0.60128003005E+03  0.00000000000E+00 0.  1.
          2   -1    0    0  503    0 -0.00000000000E+00 -0.00000000000E+00 -0.63986374387E+03  0.63986374387E+03  0.00000000000E+00 0.  1.
         21    1    1    2  503  505 -0.42615354722E+02 -0.67302204590E+02 -0.15952145180E+03  0.17830521245E+03  0.00000000000E+00 0.  1.
         21    1    1    2  504  502  0.11605638115E+03 -0.29899860067E+02  0.24899142419E+03  0.27633279674E+03  0.00000000000E+00 0.  1.
         21    1    1    2  505  504  0.88122006965E+02  0.89873605003E+02  0.30192837624E+03  0.32711389051E+03  0.00000000000E+00 0.  1.
          2    1    1    2  501    0 -0.16156303339E+03  0.73284596541E+01 -0.42998206244E+03  0.45939187422E+03  0.00000000000E+00 0.  1.
<scales pt_clust_3="79.65962" pt_clust_4="119.15590" pt_clust_5="198.84691" pt_clust_6="14000.00000"></scales>
<clustering>
<clus scale="   79.660">  2  3  1 -1</clus>
<clus scale="  119.156">  1  4  2 -1</clus>
<clus scale="  198.847">  1  5  2 -1</clus>
<clus scale="  119.156">  1  3  2 -1</clus>
</clustering>
</event>
<event>
 6    0  0.1631680E+002  0.1129220E+03  0.7546771E-02  0.1255253E+00
         -2   -1    0    0    0  501 -0.00000000000E+00  0.00000000000E+00  0.25392953791E+03  0.25392953791E+03  0.00000000000E+00 0.  1.
         21   -1    0    0  503  502  0.00000000000E+00 -0.00000000000E+00 -0.14536346073E+04  0.14536346073E+04  0.00000000000E+00 0.  1.
         21    1    1    2  503  505 -0.10908968966E+03 -0.13284893866E+02 -0.12132842721E+04  0.12182511128E+04  0.00000000000E+00 0.  1.
         21    1    1    2  504  502  0.13658561221E+03  0.55731233396E+02 -0.19629185551E+03  0.24554448147E+03  0.00000000000E+00 0.  1.
         21    1    1    2  505  501  0.55274601141E+01  0.33715211284E+02  0.10253432075E+03  0.10807661735E+03  0.00000000000E+00 0.  1.
         -2    1    1    2    0  504 -0.33023382663E+02 -0.76161550815E+02  0.10733673751E+03  0.13569193360E+03  0.00000000000E+00 0.  1.
<scales pt_clust_3="112.92199" pt_clust_4="14000.00000" pt_clust_5="34.16531" pt_clust_6="56.33891"></scales>
<clustering>
<clus scale="   34.165">  1  5  2 -1</clus>
<clus scale="   56.339">  1  6  2 -1</clus>
<clus scale="  112.922">  2  3  1 -1</clus>
<clus scale="  112.922">  2  3  1 -1</clus>
</clustering>
</event>
<event>
 6    0  0.1631680E+002  0.1087486E+03  0.7546771E-02  0.1262905E+00
         21   -1    0    0  504  502  0.00000000000E+00  0.00000000000E+00  0.25822809147E+03  0.25822809147E+03  0.00000000000E+00 0. -1.
          4   -1    0    0  503    0 -0.00000000000E+00 -0.00000000000E+00 -0.17877670670E+04  0.17877670670E+04  0.00000000000E+00 0. -1.
         21    1    1    2  503  502 -0.86572199882E+02  0.72845951943E+02 -0.25427925900E+03  0.27831496558E+03  0.00000000000E+00 0. -1.
         21    1    1    2  504  505  0.47461906522E+02 -0.46614976375E+01  0.22502046473E+03  0.23001863333E+03  0.00000000000E+00 0. -1.
         21    1    1    2  505  501 -0.71037439950E+02 -0.55483331573E+02 -0.10669719075E+03  0.13967465221E+03  0.00000000000E+00 0. -1.
          4    1    1    2  501    0  0.11014773331E+03 -0.12701122733E+02 -0.13935829905E+04  0.13979869074E+04  0.00000000000E+00 0. -1.
<scales pt_clust_3="14000.00000" pt_clust_4="47.69027" pt_clust_5="73.73938" pt_clust_6="108.74861"></scales>
<clustering>
<clus scale="   47.690">  1  4  2 -1</clus>
<clus scale="   73.739">  1  5  2 -1</clus>
<clus scale="  108.749">  2  6  1 -1</clus>
<clus scale="   47.690">  1  3  2 -1</clus>
</clustering>
</event>
<event>
 6    0  0.1631680E+002  0.6187919E+02  0.7546771E-02  0.1390111E+00
         21   -1    0    0  503  502  0.00000000000E+00  0.00000000000E+00  0.84755081682E+02  0.84755081682E+02  0.00000000000E+00 0.  1.
          1   -1    0    0  504    0 -0.00000000000E+00 -0.00000000000E+00 -0.20725148322E+04  0.20725148322E+04  0.00000000000E+00 0. -1.
         21    1    1    2  503  501 -0.31680915339E+02  0.30256864605E+02 -0.60305392597E+02  0.74537900619E+02  0.00000000000E+00 0.  1.
         21    1    1    2  504  505  0.20506282186E+02 -0.31247553422E+02 -0.13005592141E+03  0.13531984296E+03  0.00000000000E+00 0. -1.
         21    1    1    2  505  502  0.76319328854E+02 -0.67677498629E+02  0.38534934482E+02  0.10904047392E+03  0.00000000000E+00 0.  1.
          1    1    1    2  501    0 -0.65144695701E+02  0.68668187446E+02 -0.18359333710E+04  0.18383716964E+04  0.00000000000E+00 0. -1.
<scales pt_clust_3="42.54368" pt_clust_4="37.37536" pt_clust_5="14000.00000" pt_clust_6="61.87919"></scales>
<clustering>
<clus scale="   37.375">  2  4  1 -1</clus>
<clus scale="   42.544">  1  3  2 -1</clus>
<clus scale="   61.879">  2  6  1 -1</clus>
<clus scale="   42.544">  1  3  2 -1</clus>
</clustering>
</event>
<event>
 6    0  0.1631680E+002  0.1278435E+03  0.7546771E-02  0.1230691E+00
          2   -1    0    0  504    0 -0.00000000000E+00  0.00000000000E+00  0.13914716700E+04  0.13914716700E+04  0.00000000000E+00 0.  1.
         21   -1    0    0  505  502  0.00000000000E+00 -0.00000000000E+00 -0.12294932512E+03  0.12294932512E+03  0.00000000000E+00 0.  1.
         21    1    1    2  503  502 -0.10548808168E+03 -0.68158454958E+02 -0.52035379620E+02  0.13594480899E+03  0.00000000000E+00 0.  1.
         21    1    1    2  504  503 -0.31234802470E+02  0.10001348500E+02  0.11575745940E+03  0.12031387810E+03  0.00000000000E+00 0. -1.
         21    1    1    2  505  501  0.15405705947E+03  0.14020090109E+02  0.20291791380E+03  0.25515842185E+03  0.00000000000E+00 0.  1.
          2    1    1    2  501    0 -0.17334175319E+02  0.44137016349E+02  0.10018823513E+04  0.10030038862E+04  0.00000000000E+00 0.  1.
<scales pt_clust_3="14000.00000" pt_clust_4="32.79695" pt_clust_5="127.84348" pt_clust_6="66.80197"></scales>
<clustering>
<clus scale="   32.797">  1  4  2 -1</clus>
<clus scale="   66.802">  1  6  2 -1</clus>
<clus scale="  127.843">  1  5  2 -1</clus>
<clus scale="  127.843">  2  3  1 -1</clus>
</clustering>
</event>
<event>
 6    0  0.1631680E+002  0.8838139E+02  0.7546771E-02  0.1306819E+00
          2   -1    0    0  505    0 -0.00000000000E+00  0.00000000000E+00  0.92460032194E+03  0.92460032194E+03  0.00000000000E+00 0.  1.
         21   -1    0    0  503  502  0.00000000000E+00 -0.00000000000E+00 -0.31065158476E+03  0.31065158476E+03  0.00000000000E+00 0. -1.
         21    1    1    2  503  504  0.10492212307E+02  0.84413425855E+02 -0.22751405680E+03  0.24289577811E+03  0.00000000000E+00 0. -1.
         21    1    1    2  504  501  0.92451799287E+01 -0.10659826150E+03 -0.35046355994E+02  0.11259178378E+03  0.00000000000E+00 0. -1.
         21    1    1    2  505  502 -0.44417219714E+02  0.34917636667E+01  0.49508001543E+03  0.49708078166E+03  0.00000000000E+00 0. -1.
          2    1    1    2  501    0  0.24679827478E+02  0.18693071981E+02  0.38142913454E+03  0.38268356315E+03  0.00000000000E+00 0.  1.
<scales pt_clust_3="88.38139" pt_clust_4="14000.00000" pt_clust_5="30.01940" pt_clust_6="30.96005"></scales>
<clustering>
<clus scale="   30.960">  1  6  2 -1</clus>
<clus scale="   30.019">  1  5  2 -1</clus>
<clus scale="   88.381">  2  3  1 -1</clus>
<clus scale="   88.381">  2  3  1 -1</clus>
</clustering>
</event>
<event>
 6    0  0.1631680E+002  0.9630592E+02  0.7546771E-02  0.1288262E+00
         -3   -1    0    0    0  501 -0.00000000000E+00  0.00000000000E+00  0.39902300569E+03  0.39902300569E+03  0.00000000000E+00 0. -1.
         21   -1    0    0  503  502  0.00000000000E+00 -0.00000000000E+00 -0.78222909437E+03  0.78222909437E+03  0.00000000000E+00 0.  1.
         21    1    1    2  503  504  0.24250878719E+02 -0.28394870874E+02 -0.54674545997E+03  0.54801913452E+03  0.00000000000E+00 0.  1.
         21    1    1    2  504  505 -0.14505550007E+02 -0.70132675533E+02 -0.20495976647E+03  0.21711174318E+03  0.00000000000E+00 0.  1.
         21    1    1    2  505  501  0.35321887734E+02 -0.62987590423E+01  0.63690362742E+01  0.36440015665E+02  0.00000000000E+00 0.  1.
         -3    1    1    2    0  502 -0.45067216446E+02  0.10482630545E+03  0.36213010148E+03  0.37968120668E+03  0.00000000000E+00 0. -1.
<scales pt_clust_3="37.38810" pt_clust_4="14000.00000" pt_clust_5="35.87910" pt_clust_6="96.30592"></scales>
<clustering>
<clus scale="   35.879">  1  5  2 -1</clus>
<clus scale="   37.388">  2  3  1 -1</clus>
<clus scale="   96.306">  1  6  2 -1</clus>
<clus scale="   37.388">  2  3  1 -1</clus>
</clustering>
</event>
<event>
 6    0  0.1631680E+002  0.1202959E+03  0.7546771E-02  0.1242610E+00
          1   -1    0    0  503    0 -0.00000000000E+00  0.00000000000E+00  0.13360273798E+03  0.13360273798E+03  0.00000000000E+00 0. -1.
         21   -1    0    0  504  502  0.00000000000E+00 -0.00000000000E+00 -0.25205658755E+04  0.25205658755E+04  0.00000000000E+00 0. -1.
         21    1    1    2  503  502 -0.58968644506E+02 -0.10606078213E+03 -0.67254092705E+03  0.68340141139E+03  0.00000000000E+00 0. -1.
         21    1    1    2  504  505  0.58158444722E+02  0.10480865282E+03 -0.16123173026E+04  0.16167666321E+04  0.00000000000E+00 0. -1.
         21    1    1    2  505  501 -0.23386531345E+02  0.72911180837E+02 -0.20926714672E+03  0.22283560944E+03  0.00000000000E+00 0.  1.
          1    1    1    2  501    0  0.24196731129E+02 -0.71659051535E+02  0.10716223880E+03  0.13116496060E+03  0.00000000000E+00 0. -1.
<scales pt_clust_3="120.29594" pt_clust_4="14000.00000" pt_clust_5="41.04111" pt_clust_6="75.63400"></scales>
<clustering>
<clus scale="   75.634">  1  6  2 -1</clus>
<clus scale="   41.041">  1  5  2 -1</clus>
<clus scale="  120.296">  1  3  2 -1</clus>
<clus scale="  120.296">  2  3  1 -1</clus>
</clustering>
</event>
<event>
 6    0  0.1631680E+002  0.1105006E+03  0.7546771E-02  0.1259646E+00
          1   -1    0    0  505    0 -0.00000000000E+00  0.00000000000E+00  0.94840623277E+03  0.94840623277E+03  0.00000000000E+00 0. -1.
         21   -1    0    0  504  502  0.00000000000E+00 -0.00000000000E+00 -0.21257294048E+03  0.21257294048E+03  0.00000000000E+00 0.  1.
         21    1    1    2  503  502  0.27007661874E+01 -0.37890453791E+02 -0.97446776670E+02  0.10458898082E+03  0.00000000000E+00 0.  1.
         21    1    1    2  504  501  0.93061445250E+02 -0.16405139415E+02 -0.72194539151E+02  0.11891851275E+03  0.00000000000E+00 0.  1.
         21    1    1    2  505  503  0.43437237925E+02 -0.51941534693E+02  0.24761232843E+03  0.25670329537E+03  0.00000000000E+00 0. -1.
          1    1    1    2  501    0 -0.13919944936E+03  0.10623712790E+03  0.65786227968E+03  0.68076838431E+03  0.00000000000E+00 0. -1.
<scales pt_clust_3="37.98658" pt_clust_4="110.50064" pt_clust_5="68.97143" pt_clust_6="14000.00000"></scales>
<clustering>
<clus scale="   37.987">  2  3  1 -1</clus>
<clus scale="   68.971">  1  5  2 -1</clus>
<clus scale="  110.501">  2  4  1 -1</clus>
<clus scale="   37.987">  2  3  1 -1</clus>
</clustering>
</event>
<event>
 6    0  0.1631680E+002  0.7880500E+02  0.7546771E-02  0.1332477E+00
         -3   -1    0    0    0  501 -0.00000000000E+00  0.00000000000E+00  0.52676368279E+03  0.52676368279E+03  0.00000000000E+00 0. -1.
         21   -1    0    0  504  502  0.00000000000E+00 -0.00000000000E+00 -0.18380321622E+04  0.18380321622E+04  0.00000000000E+00 0. -1.
         21    1    1    2  503  501 -0.68240682958E+02  0.43273397434E+02  0.12501930853E+03  0.14885968307E+03  0.00000000000E+00 0. -1.
         21    1    1    2  504  503 -0.47558078868E+02 -0.62253462808E+02 -0.15388162763E+04  0.15408091370E+04  0.00000000000E+00 0. -1.
         21    1    1    2  505  502  0.34374224610E+02  0.19248680945E+02 -0.28064542975E+03  0.28339717055E+03  0.00000000000E+00 0.  1.
         -3    1    1    2    0  505  0.81424537216E+02 -0.26861557065E+00  0.38317391801E+03  0.39172985444E+03  0.00000000000E+00 0. -1.
<scales pt_clust_3="14000.00000" pt_clust_4="45.27763" pt_clust_5="39.39669" pt_clust_6="78.80500"></scales>
<clustering>
<clus scale="   39.397">  2  5  1 -1</clus>
<clus scale="   45.278">  2  4  1 -1</clus>
<clus scale="   78.805">  1  6  2 -1</clus>
<clus scale="   39.397">  2  3  1 -1</clus>
</clustering>
</event>
<event>
 6    0  0.1631680E+002  0.1065662E+03  0.7546771E-02  0.1267064E+00
         21   -1    0    0  505  502  0.00000000000E+00  0.00000000000E+00  0.15025859397E+03  0.15025859397E+03  0.00000000000E+00 0.  1.
         -2   -1    0    0    0  501 -0.00000000000E+00 -0.00000000000E+00 -0.42123073279E+03  0.42123073279E+03  0.00000000000E+00 0. -1.
         21    1    1    2  503  502 -0.12363361483E+02 -0.30250839646E+02  0.92146907324E+02  0.97770233383E+02  0.00000000000E+00 0.  1.
         21    1    1    2  504  501 -0.45820653709E+02 -0.73653630312E+02 -0.42203137508E+02  0.96464990437E+02  0.00000000000E+00 0. -1.
         21    1    1    2  505  504  0.30073038817E+02 -0.75271920458E+01  0.52427900351E+01  0.31440946728E+02  0.00000000000E+00 0. -1.
         -2    1    1    2    0  503  0.28110976375E+02  0.11143166200E+03 -0.32615869867E+03  0.34581315621E+03  0.00000000000E+00 0. -1.
<scales pt_clust_3="36.85770" pt_clust_4="14000.00000" pt_clust_5="31.00075" pt_clust_6="106.56623"></scales>
<clustering>
<clus scale="   31.001">  1  5  2 -1</clus>
<clus scale="   36.858">  1  3  2 -1</clus>
<clus scale="  106.566">  2  6  1 -1</clus>
<clus scale="   31.001">  1  3  2 -1</clus>
</clustering>
</event>
<event>
 6    0  0.1631680E+002  0.8094166E+02  0.7546771E-02  0.1326400E+00
         21   -1    0    0  504  502  0.00000000000E+00  0.00000000000E+00  0.26632515305E+02  0.26632515305E+02  0.00000000000E+00 0.  1.
         -2   -1    0    0    0  501 -0.00000000000E+00 -0.00000000000E+00 -0.10978044529E+04  0.10978044529E+04  0.00000000000E+00 0.  1.
         21    1    1    2  503  502 -0.38354540405E+02 -0.22233557655E+02 -0.48343120866E+02  0.65593133717E+02  0.00000000000E+00 0.  1.
         21    1    1    2  504  505  0.10351709837E+03  0.73103518846E+01 -0.19795019349E+03  0.22350281878E+03  0.00000000000E+00 0.  1.
         21    1    1    2  505  501  0.20071208958E+02 -0.29007152671E+02 -0.18739054529E+03  0.19068163204E+03  0.00000000000E+00 0. -1.
         -2    1    1    2    0  503 -0.85233766925E+02  0.43930358442E+02 -0.63748807794E+03  0.64465938365E+03  0.00000000000E+00 0.  1.
<scales pt_clust_3="44.21124" pt_clust_4="80.94166" pt_clust_5="35.27419" pt_clust_6="14000.00000"></scales>
<clustering>
<clus scale="   35.274">  2  5  1 -1</clus>
<clus scale="   44.211">  1  3  2 -1</clus>
<clus scale="   80.942">  1  4  2 -1</clus>
<clus scale="   44.211">  1  3  2 -1</clus>
</clustering>
</event>
<event>
 6    0  0.1631680E+002  0.1732749E+03  0.7546771E-02  0.1174475E+00
          2   -1    0    0  504    0 -0.00000000000E+00  0.00000000000E+00  0.19059608297E+04  0.19059608297E+04  0.00000000000E+00 0. -1.
         21   -1    0    0  503  502  0.00000000000E+00 -0.00000000000E+00 -0.22359059800E+03  0.22359059800E+03  0.00000000000E+00 0. -1.
         21    1    1    2  503  501  0.21067390020E+03 -0.13851688352E+03  0.32131382262E+03  0.40842746217E+03  0.00000000000E+00 0. -1.
         21    1    1    2  504  505 -0.31601340782E+01  0.42811771086E+02  0.69465706241E+03  0.69598223292E+03  0.00000000000E+00 0.  1.
         21    1    1    2  505  502 -0.45479853842E+02  0.13065507567E+03 -0.14298562423E+03  0.19895741917E+03  0.00000000000E+00 0. -1.
          2    1    1    2  501    0 -0.16203391228E+03 -0.34949963243E+02  0.80938497089E+03  0.82618431343E+03  0.00000000000E+00 0. -1.
<scales pt_clust_3="173.27488" pt_clust_4="42.92824" pt_clust_5="139.30328" pt_clust_6="14000.00000"></scales>
<clustering>
<clus scale="   42.928">  1  4  2 -1</clus>
<clus scale="  139.303">  2  5  1 -1</clus>
<clus scale="  173.275">  2  3  1 -1</clus>
<clus scale="  139.303">  2  3  1 -1</clus>
</clustering>
</event>
<event>
 6    0  0.1631680E+002  0.1078043E+03  0.7546771E-02  0.1264691E+00
          2   -1    0    0  505    0 -0.00000000000E+00  0.00000000000E+00  0.13465829298E+04  0.13465829298E+04  0.00000000000E+00 0.  1.
         21   -1    0    0  503  502  0.00000000000E+00 -0.00000000000E+00 -0.90985877725E+02  0.90985877725E+02  0.00000000000E+00 0. -1.
         21    1    1    2  503  501  0.14409524002E+02 -0.11725121877E+03  0.42030017399E+02  0.12538741981E+03  0.00000000000E+00 0. -1.
         21    1    1    2  504  502  0.25082267552E+02  0.21640904254E+02 -0.35857475368E+02  0.48818105476E+02  0.00000000000E+00 0. -1.
         21    1    1    2  505  504  0.45244491290E+01 -0.41704441075E+02  0.23050779753E+03  0.23429378090E+03  0.00000000000E+00 0.  1.
          2    1    1    2  501    0 -0.44016240682E+02  0.13731475559E+03  0.10189167126E+04  0.10290695014E+04  0.00000000000E+00 0.  1.
<scales pt_clust_3="14000.00000" pt_clust_4="33.12777" pt_clust_5="41.23089" pt_clust_6="107.80427"></scales>
<clustering>
<clus scale="   33.128">  2  4  1 -1</clus>
<clus scale="   41.231">  1  5  2 -1</clus>
<clus scale="  107.804">  1  6  2 -1</clus>
<clus scale="   33.128">  2  3  1 -1</clus>
</clustering>
</event>
<event>
 6    0  0.1631680E+002  0.6452842E+02  0.7546771E-02  0.1379754E+00
         -1   -1    0    0    0  501 -0.00000000000E+00  0.00000000000E+00  0.52218444110E+02  0.52218444110E+02  0.00000000000E+00 0.  1.
         21   -1    0    0  503  502  0.00000000000E+00 -0.00000000000E+00 -0.43316422551E+03  0.43316422551E+03  0.00000000000E+00 0.  1.
         21    1    1    2  503  505  0.45340296257E+02 -0.42224219079E+02 -0.97775335341E+02  0.11575250901E+03  0.00000000000E+00 0.  1.
         21    1    1    2  504  502  0.14845891162E+02  0.34473028023E+02 -0.13299524467E+03  0.13819017784E+03  0.00000000000E+00 0.  1.
         21    1    1    2  505  501  0.45391212541E+02  0.32300816036E+02 -0.14096312441E+02  0.57466606973E+02  0.00000000000E+00 0.  1.
         -1    1    1    2    0  504 -0.10557739996E+03 -0.24549624980E+02 -0.13607888894E+03  0.17397337579E+03  0.00000000000E+00 0.  1.
<scales pt_clust_3="58.80895" pt_clust_4="37.53385" pt_clust_5="14000.00000" pt_clust_6="64.52842"></scales>
<clustering>
<clus scale="   37.534">  2  4  1 -1</clus>
<clus scale="   58.809">  2  3  1 -1</clus>
<clus scale="   64.528">  2  6  1 -1</clus>
<clus scale="   37.534">  2  3  1 -1</clus>
</clustering>
</event>
<event>
 6    0  0.1631680E+002  0.1175824E+03  0.7546771E-02  0.1247139E+00
         21   -1    0    0  505  502  0.00000000000E+00  0.00000000000E+00  0.19529376244E+04  0.19529376244E+04  0.00000000000E+00 0. -1.
         -4   -1    0    0    0  501 -0.00000000000E+00 -0.00000000000E+00 -0.10685139803E+04  0.10685139803E+04  0.00000000000E+00 0. -1.
         21    1    1    2  503  501 -0.54953648471E+02 -0.36938935950E+02 -0.16542047924E+03  0.17818059215E+03  0.00000000000E+00 0.  1.
         21    1    1    2  504  502 -0.50984232989E+02 -0.14041539543E+02  0.50249733978E+03  0.50527233581E+03  0.00000000000E+00 0. -1.
         21    1    1    2  505  503 -0.42599062236E+02  0.85531498240E+02  0.14345778241E+04  0.14377565338E+04  0.00000000000E+00 0. -1.
         -4    1    1    2    0  504  0.14853694370E+03 -0.34551022747E+02 -0.88723104049E+03  0.90024214300E+03  0.00000000000E+00 0. -1.
<scales pt_clust_3="66.43555" pt_clust_4="52.88248" pt_clust_5="14000.00000" pt_clust_6="117.58244"></scales>
<clustering>
<clus scale="   52.882">  1  4  2 -1</clus>
<clus scale="   66.436">  2  3  1 -1</clus>
<clus scale="  117.582">  2  6  1 -1</clus>
<clus scale="   52.882">  1  3  2 -1</clus>
</clustering>
</event>
<event>
 6    0  0.1631680E+002  0.1549080E+03  0.7546771E-02  0.1194569E+00
          1   -1    0    0  504    0 -0.00000000000E+00  0.00000000000E+00  0.35885538474E+04  0.35885538474E+04  0.00000000000E+00 0. -1.
         21   -1    0    0  501  502  0.00000000000E+00 -0.00000000000E+00 -0.28242499259E+03  0.28242499259E+03  0.00000000000E+00 0. -1.
         21    1    1    2  503  505 -0.12011451656E+03 -0.13342806560E+03 -0.13323021172E+03  0.22356393961E+03  0.00000000000E+00 0. -1.
         21    1    1    2  504  503  0.36486748488E+02  0.11891086646E+02  0.33034504775E+03  0.33256658180E+03  0.00000000000E+00 0.  1.
         21    1    1    2  505  502  0.51493473457E+02 -0.55882701438E+01 -0.94973200678E+02  0.10817908956E+03  0.00000000000E+00 0. -1.
          1    1    1    2  501    0  0.32134294617E+02  0.12712524910E+03  0.32039872194E+04  0.32066692290E+04  0.00000000000E+00 0. -1.
<scales pt_clust_3="154.90800" pt_clust_4="38.37552" pt_clust_5="51.86676" pt_clust_6="14000.00000"></scales>
<clustering>
<clus scale="   38.376">  1  4  2 -1</clus>
<clus scale="   51.867">  2  5  1 -1</clus>
<clus scale="  154.908">  2  3  1 -1</clus>
<clus scale="   51.867">  2  3  1 -1</clus>
</clustering>
</event>
<event>
 6    0  0.1631680E+002  0.8813291E+02  0.7546771E-02  0.1307437E+00
          1   -1    0    0  503    0 -0.00000000000E+00  0.00000000000E+00  0.70039445631E+02  0.70039445631E+02  0.00000000000E+00 0. -1.
         21   -1    0    0  504  502  0.00000000000E+00 -0.00000000000E+00 -0.14835794847E+04  0.14835794847E+04  0.00000000000E+00 0. -1.
         21    1    1    2  503  502  0.91716424592E+01  0.78119529996E+02 -0.20465286946E+03  0.21924775248E+03  0.00000000000E+00 0. -1.
         21    1    1    2  504  505 -0.48474255201E+02  0.76020977636E+01 -0.11345839679E+04  0.11356444538E+04  0.00000000000E+00 0. -1.
         21    1    1    2  505  501 -0.85915641163E+01 -0.10212040159E+03 -0.98920527562E+02  0.14243476461E+03  0.00000000000E+00 0.  1.
          1    1    1    2  501    0  0.47894176858E+02  0.16398773834E+02  0.24617325859E+02  0.56291959396E+02  0.00000000000E+00 0. -1.
<scales pt_clust_3="88.13291" pt_clust_4="49.06674" pt_clust_5="14000.00000" pt_clust_6="48.66257"></scales>
<clustering>
<clus scale="   49.067">  2  4  1 -1</clus>
<clus scale="   48.663">  1  6  2 -1</clus>
<clus scale="   88.133">  2  3  1 -1</clus>
<clus scale="   49.067">  2  3  1 -1</clus>
</clustering>
</event>
<event>
 6    0  0.1631680E+002  0.1263231E+03  0.7546771E-02  0.1233016E+00
         21   -1    0    0  503  502  0.00000000000E+00  0.00000000000E+00  0.95577380982E+02  0.95577380982E+02  0.00000000000E+00 0. -1.
          1   -1    0    0  505    0 -0.00000000000E+00 -0.00000000000E+00 -0.29155794166E+04  0.29155794166E+04  0.00000000000E+00 0.  1.
         21    1    1    2  503  504  0.59267924364E+02  0.31925688711E+02 -0.11815373172E+02  0.68348661298E+02  0.00000000000E+00 0.  1.
         21    1    1    2  504  501 -0.43283517587E+02 -0.15684764386E+03 -0.37008104122E+02  0.16686595234E+03  0.00000000000E+00 0. -1.
         21    1    1    2  505  502  0.30089187970E+02  0.14171477617E+02 -0.29677394114E+03  0.29863181705E+03  0.00000000000E+00 0. -1.
          1    1    1    2  501    0 -0.46073594746E+02  0.11075047753E+03 -0.24744046172E+04  0.24773103669E+04  0.00000000000E+00 0.  1.
<scales pt_clust_3="67.82816" pt_clust_4="126.32312" pt_clust_5="33.25943" pt_clust_6="14000.00000"></scales>
<clustering>
<clus scale="   33.259">  2  5  1 -1</clus>
<clus scale="   67.828">  1  3  2 -1</clus>
<clus scale="  126.323">  1  4  2 -1</clus>
<clus scale="   67.828">  1  3  2 -1</clus>
</clustering>
</event>
<event>
 6    0  0.1631680E+002  0.6937821E+02  0.7546771E-02  0.1362220E+00
          2   -1    0    0  502    0 -0.00000000000E+00  0.00000000000E+00  0.73418822934E+03  0.73418822934E+03  0.00000000000E+00 0.  1.
         21   -1    0    0  503  502  0.00000000000E+00 -0.00000000000E+00 -0.14393958677E+03  0.14393958677E+03  0.00000000000E+00 0. -1.
         21    1    1    2  503  504 -0.61069690043E+02 -0.32076699636E+02 -0.11440505670E+03  0.13359243504E+03  0.00000000000E+00 0. -1.
         21    1    1    2  504  505  0.78727710878E+02  0.89640736833E+01  0.10599591706E+03  0.13233873776E+03  0.00000000000E+00 0.  1.
         21    1    1    2  505  501 -0.15573658595E+02  0.71934509328E+02  0.26701863600E+03  0.27697664964E+03  0.00000000000E+00 0.  1.
          2    1    1    2  501    0 -0.20843622402E+01 -0.48821883376E+02  0.33163914621E+03  0.33521999367E+03  0.00000000000E+00 0.  1.
<scales pt_clust_3="69.37821" pt_clust_4="14000.00000" pt_clust_5="42.35502" pt_clust_6="48.86636"></scales>
<clustering>
<clus scale="   48.866">  1  6  2 -1</clus>
<clus scale="   42.355">  1  5  2 -1</clus>
<clus scale="   69.378">  2  3  1 -1</clus>
<clus scale="   69.378">  2  3  1 -1</clus>
</clustering>
</event>
<event>
 6    0  0.1631680E+002  0.9989613E+02  0.7546771E-02  0.1280515E+00
         21   -1    0    0  503  502  0.00000000000E+00  0.00000000000E+00  0.15505747705E+03  0.15505747705E+03  0.00000000000E+00 0. -1.
         -1   -1    0    0    0  501 -0.00000000000E+00 -0.00000000000E+00 -0.54539101138E+03  0.54539101138E+03  0.00000000000E+00 0.  1.
         21    1    1    2  503  501 -0.28874396450E+02 -0.19988851961E+02  0.78590214149E+02  0.86079653421E+02  0.00000000000E+00 0. -1.
         21    1    1    2  504  505  0.27671561710E+02  0.81931240363E+02 -0.41888757940E+02  0.96089081152E+02  0.00000000000E+00 0. -1.
         21    1    1    2  505  502  0.84019174171E+02  0.41553223031E+01 -0.62444200793E+01  0.84353311221E+02  0.00000000000E+00 0. -1.
         -1    1    1    2    0  504 -0.82816339431E+02 -0.66097710705E+02 -0.42079057046E+03  0.43392644264E+03  0.00000000000E+00 0.  1.
<scales pt_clust_3="35.11816" pt_clust_4="99.89613" pt_clust_5="68.82784" pt_clust_6="14000.00000"></scales>
<clustering>
<clus scale="   35.118">  1  3  2 -1</clus>
<clus scale="   68.828">  1  5  2 -1</clus>
<clus scale="   99.896">  1  4  2 -1</clus>
<clus scale="   35.118">  1  3  2 -1</clus>
</clustering>
</event>
<event>
 6    0  0.1631680E+002  0.1639064E+03  0.7546771E-02  0.1184356E+00
         21   -1    0    0  503  502  0.00000000000E+00  0.00000000000E+00  0.93354243057E+03  0.93354243057E+03  0.00000000000E+00 0.  1.
          1   -1    0    0  502    0 -0.00000000000E+00 -0.00000000000E+00 -0.53238800835E+03  0.53238800835E+03  0.00000000000E+00 0. -1.
         21    1    1    2  503  504 -0.14945147505E+03 -0.17194610683E+02  0.89919469054E+03  0.91169210238E+03  0.00000000000E+00 0.  1.
         21    1    1    2  504  505  0.51551696997E+02  0.36615026826E+02 -0.32617446188E+02  0.71148685501E+02  0.00000000000E+00 0. -1.
         21    1    1    2  505  501  0.54528185500E+02 -0.11410869984E+02 -0.95611294601E+02  0.11065735684E+03  0.00000000000E+00 0. -1.
          1    1    1    2  501    0  0.43371592553E+02 -0.80095461596E+01 -0.36981152753E+03  0.37243229420E+03  0.00000000000E+00 0. -1.
<scales pt_clust_3="148.80413" pt_clust_4="64.45761" pt_clust_5="64.45761" pt_clust_6="44.10496"></scales>
<clustering>
<clus scale="   44.105">  2  6  1 -1</clus>
<clus scale="   64.458">  4  5 -1 -1</clus>
<clus scale="  148.804">  1  3  2 -1</clus>
<clus scale="  148.804">  1  3  2 -1</clus>
</clustering>
</event>
<event>
 6    0  0.1631680E+002  0.2014812E+03  0.7546771E-02  0.1148495E+00
         21   -1    0    0  505  502  0.00000000000E+00  0.00000000000E+00  0.82582658256E+03  0.82582658256E+03  0.00000000000E+00 0. -1.
          3   -1    0    0  503    0 -0.00000000000E+00 -0.00000000000E+00 -0.18217266728E+03  0.18217266728E+03  0.00000000000E+00 0.  1.
         21    1    1    2  503  504 -0.15798374021E+03  0.60638686687E+02  0.65989182666E+03  0.68124381493E+03  0.00000000000E+00 0. -1.
         21    1    1    2  504  502 -0.20678928499E+01  0.43931758188E+02  0.87794142044E+02  0.98194128824E+02  0.00000000000E+00 0. -1.
         21    1    1    2  505  501  0.31293686681E+02 -0.11597126593E+02  0.78606427424E+01  0.34286701148E+02  0.00000000000E+00 0.  1.
          3    1    1    2  501    0  0.12875794638E+03 -0.92973318281E+02 -0.11189269617E+03  0.19427460494E+03  0.00000000000E+00 0.  1.
<scales pt_clust_3="189.02005" pt_clust_4="43.98040" pt_clust_5="31.97742" pt_clust_6="31.97742"></scales>
<clustering>
<clus scale="   31.977">  5  6 -1 -1</clus>
<clus scale="   43.980">  1  4  2 -1</clus>
<clus scale="  189.020">  1  3  2 -1</clus>
<clus scale="   43.980">  1  3  2 -1</clus>
</clustering>
</event>
<event>
 6    0  0.1631680E+002  0.1359284E+03  0.7546771E-02  0.1218915E+00
          2   -1    0    0  503    0 -0.00000000000E+00  0.00000000000E+00  0.45221639123E+03  0.45221639123E+03  0.00000000000E+00 0.  1.
         21   -1    0    0  505  502  0.00000000000E+00 -0.00000000000E+00 -0.57076147102E+03  0.57076147102E+03  0.00000000000E+00 0.  1.
         21    1    1    2  503  504 -0.23404838385E+02  0.17658861709E+03 -0.11695336410E+03  0.21309485100E+03  0.00000000000E+00 0.  1.
         21    1    1    2  504  502 -0.44675262018E+02 -0.30833707519E+02 -0.11848406268E+02  0.55560609130E+02  0.00000000000E+00 0. -1.
         21    1    1    2  505  501 -0.11716560220E+02 -0.37657737432E+02 -0.35911435945E+03  0.36127345064E+03  0.00000000000E+00 0.  1.
          2    1    1    2  501    0  0.79796660623E+02 -0.10809717214E+03  0.36937105003E+03  0.39304895149E+03  0.00000000000E+00 0.  1.
<scales pt_clust_3="14000.00000" pt_clust_4="59.37784" pt_clust_5="39.43834" pt_clust_6="135.92841"></scales>
<clustering>
<clus scale="   39.438">  2  5  1 -1</clus>
<clus scale="   59.378">  2  4  1 -1</clus>
<clus scale="  135.928">  1  6  2 -1</clus>
<clus scale="   39.438">  2  3  1 -1</clus>
</clustering>
</event>
<event>
 6    0  0.1631680E+002  0.7970542E+02  0.7546771E-02  0.1329889E+00
          1   -1    0    0  502    0 -0.00000000000E+00  0.00000000000E+00  0.23882628491E+04  0.23882628491E+04  0.00000000000E+00 0. -1.
         21   -1    0    0  505  502  0.00000000000E+00 -0.00000000000E+00 -0.59323084582E+02  0.59323084582E+02  0.00000000000E+00 0.  1.
         21    1    1    2  503  504 -0.34256672789E+02 -0.84643620743E+02  0.41416634310E+02  0.10026664331E+03  0.00000000000E+00 0.  1.
         21    1    1    2  504  501  0.38961889302E+02  0.41823315037E+02  0.55890741170E+03  0.56182267073E+03  0.00000000000E+00 0.  1.
         21    1    1    2  505  503 -0.21596499017E+02  0.75785290195E+02  0.26736758082E+02  0.83214621386E+02  0.00000000000E+00 0.  1.
          1    1    1    2  501    0  0.16891282504E+02 -0.32964984488E+02  0.17018789605E+04  0.17022819983E+04  0.00000000000E+00 0. -1.
<scales pt_clust_3="79.70542" pt_clust_4="54.82051" pt_clust_5="14000.00000" pt_clust_6="37.04059"></scales>
<clustering>
<clus scale="   37.041">  1  6  2 -1</clus>
<clus scale="   54.821">  1  4  2 -1</clus>
<clus scale="   79.705">  1  3  2 -1</clus>
<clus scale="   79.705">  2  3  1 -1</clus>
</clustering>
</event>
<event>
 6    0  0.1631680E+002  0.2607079E+03  0.7546771E-02  0.1106719E+00
          2   -1    0    0  503    0 -0.00000000000E+00  0.00000000000E+00  0.71203122154E+03  0.71203122154E+03  0.00000000000E+00 0. -1.
         21   -1    0    0  504  502  0.00000000000E+00 -0.00000000000E+00 -0.71668080638E+03  0.71668080638E+03  0.00000000000E+00 0.  1.
         21    1    1    2  503  505  0.95123278902E+01 -0.12249152692E+03  0.24778444267E+03  0.27657148909E+03  0.00000000000E+00 0. -1.
         21    1    1    2  504  501  0.11890549635E+03  0.25975821965E+03 -0.43089898872E+03  0.51699786094E+03  0.00000000000E+00 0.  1.
         21    1    1    2  505  502  0.69869460772E+02 -0.24455245075E+03 -0.10309951232E+03  0.27443970587E+03  0.00000000000E+00 0.  1.
          2    1    1    2  501    0 -0.19828728501E+03  0.10728575802E+03  0.28156447353E+03  0.36070297202E+03  0.00000000000E+00 0. -1.
<scales pt_clust_3="122.86032" pt_clust_4="260.70788" pt_clust_5="14000.00000" pt_clust_6="192.52217"></scales>
<clustering>
<clus scale="  122.860">  1  3  2 -1</clus>
<clus scale="  192.522">  1  6  2 -1</clus>
<clus scale="  260.708">  2  4  1 -1</clus>
<clus scale="  260.708">  2  3  1 -1</clus>
</clustering>
</event>
<event>
 6    0  0.1631680E+002  0.1448764E+03  0.7546771E-02  0.1206914E+00
         21   -1    0    0  504  502  0.00000000000E+00  0.00000000000E+00  0.12337935118E+03  0.12337935118E+03  0.00000000000E+00 0. -1.
          2   -1    0    0  503    0 -0.00000000000E+00 -0.00000000000E+00 -0.69479503731E+03  0.69479503731E+03  0.00000000000E+00 0. -1.
         21    1    1    2  503  502 -0.66983826446E+01  0.12353132209E+03  0.30817583885E+02  0.12749344824E+03  0.00000000000E+00 0. -1.
         21    1    1    2  504  505 -0.21708744232E+02  0.33097672676E+02 -0.34699365492E+02  0.52638118111E+02  0.00000000000E+00 0. -1.
         21    1    1    2  505  501  0.76133231631E+02 -0.15867257703E+02 -0.35228885741E+02  0.85376303599E+02  0.00000000000E+00 0. -1.
          2    1    1    2  501    0 -0.47726104754E+02 -0.14076173706E+03 -0.53230501878E+03  0.55266651854E+03  0.00000000000E+00 0. -1.
<scales pt_clust_3="14000.00000" pt_clust_4="39.58188" pt_clust_5="71.89349" pt_clust_6="144.87637"></scales>
<clustering>
<clus scale="   39.582">  1  4  2 -1</clus>
<clus scale="   71.893">  1  5  2 -1</clus>
<clus scale="  144.876">  2  6  1 -1</clus>
<clus scale="   39.582">  1  3  2 -1</clus>
</clustering>
</event>
<event>
 6    0  0.1631680E+002  0.2057818E+03  0.7546771E-02  0.1144951E+00
         -3   -1    0    0    0  501 -0.00000000000E+00  0.00000000000E+00  0.19855019786E+03  0.19855019786E+03  0.00000000000E+00 0.  1.
         21   -1    0    0  503  502  0.00000000000E+00 -0.00000000000E+00 -0.58852136485E+03  0.58852136485E+03  0.00000000000E+00 0. -1.
         21    1    1    2  503  504  0.14552128305E+03 -0.18537294743E+02 -0.42480814314E+03  0.44942411328E+03  0.00000000000E+00 0. -1.
         21    1    1    2  504  505  0.39750474274E+02  0.17491448013E+02 -0.48118403484E+02  0.64818451944E+02  0.00000000000E+00 0. -1.
         21    1    1    2  505  501  0.35537022225E+02  0.13938130401E+02  0.60121967521E+01  0.38643213343E+02  0.00000000000E+00 0.  1.
         -3    1    1    2    0  502 -0.22080877955E+03 -0.12892283671E+02  0.76943182882E+02  0.23418578415E+03  0.00000000000E+00 0.  1.
<scales pt_clust_3="44.27685" pt_clust_4="44.27685" pt_clust_5="38.17265" pt_clust_6="189.43856"></scales>
<clustering>
<clus scale="   38.173">  1  5  2 -1</clus>
<clus scale="   44.277">  3  4 -1 -1</clus>
<clus scale="  189.439">  1  6  2 -1</clus>
<clus scale="  205.782">  2  3  1 -1</clus>
</clustering>
</event>
<event>
 6    0  0.1631680E+002  0.8623864E+02  0.7546771E-02  0.1312225E+00
          2   -1    0    0  504    0 -0.00000000000E+00  0.00000000000E+00  0.12493797080E+04  0.12493797080E+04  0.00000000000E+00 0. -1.
         21   -1    0    0  505  502  0.00000000000E+00 -0.00000000000E+00 -0.39897555622E+03  0.39897555622E+03  0.00000000000E+00 0. -1.
         21    1    1    2  503  502 -0.19402221666E+02 -0.77510522614E+02 -0.13284970111E+03  0.15502699896E+03  0.00000000000E+00 0. -1.
         21    1    1    2  504  503 -0.31648487334E+02 -0.47288790450E+02  0.64242593470E+02  0.85819387486E+02  0.00000000000E+00 0. -1.
         21    1    1    2  505  501  0.10527151880E+03  0.79894171039E+02 -0.22521097115E+03  0.26112286909E+03  0.00000000000E+00 0. -1.
          2    1    1    2  501    0 -0.54220809801E+02  0.44905142025E+02  0.11442222306E+04  0.11463860087E+04  0.00000000000E+00 0. -1.
<scales pt_clust_3="80.40791" pt_clust_4="56.90217" pt_clust_5="86.23864" pt_clust_6="14000.00000"></scales>
<clustering>
<clus scale="   56.902">  1  4  2 -1</clus>
<clus scale="   80.408">  2  3  1 -1</clus>
<clus scale="   86.239">  2  5  1 -1</clus>
<clus scale="   80.408">  2  3  1 -1</clus>
</clustering>
</event>
<event>
 6    0  0.1631680E+002  0.1376657E+03  0.7546771E-02  0.1216505E+00
          2   -1    0    0  503    0 -0.00000000000E+00  0.00000000000E+00  0.49776159150E+03  0.49776159150E+03  0.00000000000E+00 0. -1.
         21   -1    0    0  504  502  0.00000000000E+00 -0.00000000000E+00 -0.19606133179E+03  0.19606133179E+03  0.00000000000E+00 0. -1.
         21    1    1    2  503  505 -0.18506788783E+01  0.42140563351E+02  0.54409827088E+02  0.68845343892E+02  0.00000000000E+00 0. -1.
         21    1    1    2  504  501 -0.39977902968E+02 -0.15217016405E+03 -0.45330469962E+02  0.16373406200E+03  0.00000000000E+00 0. -1.
         21    1    1    2  505  502 -0.49113979022E+02  0.41039407451E+02 -0.61753682990E+02  0.88937805584E+02  0.00000000000E+00 0. -1.
          2    1    1    2  501    0  0.90942560868E+02  0.68990193247E+02  0.35437458558E+03  0.37230571181E+03  0.00000000000E+00 0. -1.
<scales pt_clust_3="42.18118" pt_clust_4="14000.00000" pt_clust_5="64.89687" pt_clust_6="137.66565"></scales>
<clustering>
<clus scale="   42.181">  1  3  2 -1</clus>
<clus scale="   64.897">  2  5  1 -1</clus>
<clus scale="  137.666">  1  6  2 -1</clus>
<clus scale="   64.897">  2  3  1 -1</clus>
</clustering>
</event>
<event>
 6    0  0.1631680E+002  0.1376212E+03  0.7546771E-02  0.1216566E+00
         -4   -1    0    0    0  501 -0.00000000000E+00  0.00000000000E+00  0.49368516277E+03  0.49368516277E+03  0.00000000000E+00 0.  1.
         21   -1    0    0  501  502  0.00000000000E+00 -0.00000000000E+00 -0.17527700250E+04  0.17527700250E+04  0.00000000000E+00 0. -1.
         21    1    1    2  503  502 -0.13524826526E+03  0.23575551488E+02 -0.12741864878E+04  0.12815611986E+04  0.00000000000E+00 0. -1.
         21    1    1    2  504  505  0.54865336935E+01 -0.43201745169E+02  0.82686730405E+02  0.93453668856E+02  0.00000000000E+00 0. -1.
         21    1    1    2  505  503  0.14517734907E+03  0.53254810960E+02 -0.45587706284E+03  0.48139010583E+03  0.00000000000E+00 0. -1.
         -4    1    1    2    0  504 -0.15415617503E+02 -0.33628617280E+02  0.38829195804E+03  0.39005021452E+03  0.00000000000E+00 0.  1.
<scales pt_clust_3="137.62120" pt_clust_4="71.93180" pt_clust_5="14000.00000" pt_clust_6="36.99358"></scales>
<clustering>
<clus scale="   36.994">  1  6  2 -1</clus>
<clus scale="   71.932">  1  4  2 -1</clus>
<clus scale="  137.621">  2  3  1 -1</clus>
<clus scale="  137.621">  2  3  1 -1</clus>
</clustering>
</event>
<event>
 6    0  0.1631680E+002  0.1708568E+03  0.7546771E-02  0.1176957E+00
          2   -1    0    0  503    0 -0.00000000000E+00  0.00000000000E+00  0.17863491650E+04  0.17863491650E+04  0.00000000000E+00 0.  1.
         21   -1    0    0  504  502  0.00000000000E+00 -0.00000000000E+00 -0.52960807230E+02  0.52960807230E+02  0.00000000000E+00 0.  1.
         21    1    1    2  503  505 -0.87730100458E+02  0.17859266649E+03  0.20555885046E+03  0.28608801452E+03  0.00000000000E+00 0.  1.
         21    1    1    2  504  501  0.12186220862E+02 -0.27726658256E+02  0.52759649176E+02  0.60834629432E+02  0.00000000000E+00 0. -1.
         21    1    1    2  505  502  0.33055295524E+02  0.11444112027E+02  0.80640690213E+02  0.87900746188E+02  0.00000000000E+00 0. -1.
          2    1    1    2  501    0  0.42488584072E+02 -0.16231012026E+03  0.13944291680E+04  0.14044865821E+04  0.00000000000E+00 0.  1.
<scales pt_clust_3="14000.00000" pt_clust_4="30.28649" pt_clust_5="35.23294" pt_clust_6="170.85676"></scales>
<clustering>
<clus scale="   30.286">  2  4  1 -1</clus>
<clus scale="   35.233">  2  5  1 -1</clus>
<clus scale="  170.857">  1  6  2 -1</clus>
<clus scale="   30.286">  2  3  1 -1</clus>
</clustering>
</event>
<event>
 6    0  0.1631680E+002  0.1119220E+03  0.7546771E-02  0.1257051E+00
         -3   -1    0    0    0  501 -0.00000000000E+00  0.00000000000E+00  0.35097422606E+02  0.35097422606E+02  0.00000000000E+00 0.  1.
         21   -1    0    0  505  502  0.00000000000E+00 -0.00000000000E+00 -0.21686354225E+04  0.21686354225E+04  0.00000000000E+00 0. -1.
         21    1    1    2  503  504 -0.83725607290E+01  0.51686406738E+02 -0.72513319136E+03  0.72702113423E+03  0.00000000000E+00 0. -1.
         21    1    1    2  504  501  0.27370924631E+02  0.24065401494E+02 -0.23317866827E+02  0.43267007958E+02  0.00000000000E+00 0.  1.
         21    1    1    2  505  503  0.26405233379E+02  0.48103530259E+02 -0.12240315487E+04  0.12252609593E+04  0.00000000000E+00 0. -1.
         -3    1    1    2    0  502 -0.45403597281E+02 -0.12385533849E+03 -0.16105539298E+03  0.20818374367E+03  0.00000000000E+00 0.  1.
<scales pt_clust_3="42.31865" pt_clust_4="36.44600" pt_clust_5="42.31865" pt_clust_6="103.18698"></scales>
<clustering>
<clus scale="   36.446">  1  4  2 -1</clus>
<clus scale="   42.319">  3  5 -1 -1</clus>
<clus scale="  103.187">  1  6  2 -1</clus>
<clus scale="  111.922">  2  3  1 -1</clus>
</clustering>
</event>
<event>
 6    0  0.1631680E+002  0.1001836E+03  0.7546771E-02  0.1279910E+00
         21   -1    0    0  503  502  0.00000000000E+00  0.00000000000E+00  0.34796733874E+02  0.34796733874E+02  0.00000000000E+00 0.  1.
          4   -1    0    0  505    0 -0.00000000000E+00 -0.00000000000E+00 -0.19836997803E+04  0.19836997803E+04  0.00000000000E+00 0. -1.
         21    1    1    2  503  501  0.46383423092E+02  0.23231321746E+02  0.16631168975E+01  0.51902622339E+02  0.00000000000E+00 0.  1.
         21    1    1    2  504  502  0.77063963405E+02  0.16221629949E+02 -0.39502587255E+03  0.40279949816E+03  0.00000000000E+00 0.  1.
         21    1    1    2  505  504 -0.28011047778E+02  0.28346628332E+02 -0.26856723406E+03  0.27150784399E+03  0.00000000000E+00 0.  1.
          4    1    1    2  501    0 -0.95436338720E+02 -0.67799580027E+02 -0.12869730567E+04  0.12922865496E+04  0.00000000000E+00 0. -1.
<scales pt_clust_3="51.69791" pt_clust_4="14000.00000" pt_clust_5="39.85160" pt_clust_6="100.18360"></scales>
<clustering>
<clus scale="   39.852">  2  5  1 -1</clus>
<clus scale="   51.698">  1  3  2 -1</clus>
<clus scale="  100.184">  2  6  1 -1</clus>
<clus scale="   51.698">  1  3  2 -1</clus>
</clustering>
</event>
<event>
 6    0  0.1631680E+002  0.1689808E+03  0.7546771E-02  0.1178915E+00
         21   -1    0    0  503  502  0.00000000000E+00  0.00000000000E+00  0.35572600075E+03  0.35572600075E+03  0.00000000000E+00 0. -1.
          2   -1    0    0  504    0 -0.00000000000E+00 -0.00000000000E+00 -0.20894459571E+04  0.20894459571E+04  0.00000000000E+00 0. -1.
         21    1    1    2  503  505  0.49698678787E+02  0.27546358722E+02  0.26210333389E+03  0.26819194281E+03  0.00000000000E+00 0. -1.
         21    1    1    2  504  502 -0.45750020350E+02 -0.79689290339E+00 -0.49526534858E+03  0.49737457203E+03  0.00000000000E+00 0. -1.
         21    1    1    2  505  501 -0.20802242657E+03 -0.58464594374E+02 -0.59915157815E+02  0.22423484316E+03  0.00000000000E+00 0. -1.
          2    1    1    2  501    0  0.20407376814E+03  0.31715128555E+02 -0.14406427838E+04  0.14553705998E+04  0.00000000000E+00 0. -1.
<scales pt_clust_3="56.74500" pt_clust_4="45.75696" pt_clust_5="14000.00000" pt_clust_6="168.98080"></scales>
<clustering>
<clus scale="   45.757">  2  4  1 -1</clus>
<clus scale="   56.745">  1  3  2 -1</clus>
<clus scale="  168.981">  2  6  1 -1</clus>
<clus scale="   56.745">  1  3  2 -1</clus>
</clustering>
</event>
<event>
 6    0  0.1631680E+002  0.1231370E+03  0.7546771E-02  0.1238010E+00
         21   -1    0    0  504  502  0.00000000000E+00  0.00000000000E+00  0.11679812669E+04  0.11679812669E+04  0.00000000000E+00 0.  1.
          2   -1    0    0  505    0 -0.00000000000E+00 -0.00000000000E+00 -0.41211970792E+03  0.41211970792E+03  0.00000000000E+00 0.  1.
         21    1    1    2  503  502  0.24189899937E+02  0.21425274751E+02  0.93490810838E+02  0.98917770741E+02  0.00000000000E+00 0.  1.
         21    1    1    2  504  501  0.77473687311E+02  0.51238918275E+02  0.10541946359E+04  0.10582787578E+04  0.00000000000E+00 0.  1.
         21    1    1    2  505  503 -0.66386404519E+02 -0.65575807300E+02 -0.13827585158E+03  0.16681592351E+03  0.00000000000E+00 0. -1.
          2    1    1    2  501    0 -0.35277182729E+02 -0.70883857264E+01 -0.25354803616E+03  0.25608852273E+03  0.00000000000E+00 0.  1.
<scales pt_clust_3="32.31399" pt_clust_4="14000.00000" pt_clust_5="123.13702" pt_clust_6="35.94918"></scales>
<clustering>
<clus scale="   32.314">  1  3  2 -1</clus>
<clus scale="   35.949">  2  6  1 -1</clus>
<clus scale="  123.137">  2  5  1 -1</clus>
<clus scale="   32.314">  1  3  2 -1</clus>
</clustering>
</event>
<event>
 6    0  0.1631680E+002  0.1085214E+03  0.7546771E-02  0.1263333E+00
         21   -1    0    0  504  502  0.00000000000E+00  0.00000000000E+00  0.29801844604E+03  0.29801844604E+03  0.00000000000E+00 0. -1.
          1   -1    0    0  503    0 -0.00000000000E+00 -0.00000000000E+00 -0.28699142866E+03  0.28699142866E+03  0.00000000000E+00 0.  1.
         21    1    1    2  503  505 -0.14996945591E+02 -0.85966292557E+02 -0.57573739158E+02  0.10454590989E+03  0.00000000000E+00 0.  1.
         21    1    1    2  504  501 -0.40253606124E+02 -0.47191385107E+02  0.21534512555E+03  0.22410020690E+03  0.00000000000E+00 0. -1.
         21    1    1    2  505  502 -0.30207345176E+02  0.24534870395E+02  0.16673393536E+02  0.42337284040E+02  0.00000000000E+00 0. -1.
          1    1    1    2  501    0  0.85457896891E+02  0.10862280727E+03 -0.16341776255E+03  0.21402647387E+03  0.00000000000E+00 0.  1.
<scales pt_clust_3="14000.00000" pt_clust_4="70.40296" pt_clust_5="38.91585" pt_clust_6="108.52136"></scales>
<clustering>
<clus scale="   38.916">  1  5  2 -1</clus>
<clus scale="   70.403">  1  4  2 -1</clus>
<clus scale="  108.521">  1  6  2 -1</clus>
<clus scale="   38.916">  1  3  2 -1</clus>
</clustering>
</event>
<event>
 6    0  0.1631680E+002  0.1196752E+03  0.7546771E-02  0.1243634E+00
         21   -1    0    0  503  502  0.00000000000E+00  0.00000000000E+00  0.51589866852E+03  0.51589866852E+03  0.00000000000E+00 0.  1.
         -3   -1    0    0    0  501 -0.00000000000E+00 -0.00000000000E+00 -0.84590526003E+03  0.84590526003E+03  0.00000000000E+00 0. -1.
         21    1    1    2  503  505 -0.92876789701E+02 -0.13722543613E+02  0.14432909732E+03  0.17217808978E+03  0.00000000000E+00 0.  1.
         21    1    1    2  504  501  0.32670096570E+01  0.31622602315E+02 -0.80617406892E+02  0.86659267382E+02  0.00000000000E+00 0. -1.
         21    1    1    2  505  504  0.15240951262E+03 -0.35615079515E+02  0.33582708948E+03  0.37050901130E+03  0.00000000000E+00 0.  1.
         -3    1    1    2    0  502 -0.62799732576E+02  0.17715020813E+02 -0.72954537142E+03  0.73245756009E+03  0.00000000000E+00 0. -1.
<scales pt_clust_3="119.67524" pt_clust_4="31.79092" pt_clust_5="14000.00000" pt_clust_6="76.60297"></scales>
<clustering>
<clus scale="   31.791">  2  4  1 -1</clus>
<clus scale="   76.603">  2  6  1 -1</clus>
<clus scale="  119.675">  1  3  2 -1</clus>
<clus scale="  119.675">  1  3  2 -1</clus>
</clustering>
</event>
<event>
 6    0  0.1631680E+002  0.9440861E+02  0.7546771E-02  0.1292514E+00
         21   -1    0    0  503  502  0.00000000000E+00  0.00000000000E+00  0.18675178777E+03  0.18675178777E+03  0.00000000000E+00 0.  1.
          2   -1    0    0  505    0 -0.00000000000E+00 -0.00000000000E+00 -0.24591213582E+03  0.24591213582E+03  0.00000000000E+00 0.  1.
         21    1    1    2  503  501  0.12518793227E+02 -0.61337198608E+02  0.49301336353E+02  0.79684339008E+02  0.00000000000E+00 0.  1.
         21    1    1    2  504  502  0.88155449182E+02  0.24189593281E+02  0.80268456894E+02  0.12165337980E+03  0.00000000000E+00 0.  1.
         21    1    1    2  505  504 -0.39592272317E+02  0.13802616061E+02 -0.13116120519E+02  0.43932822068E+02  0.00000000000E+00 0.  1.
          2    1    1    2  501    0 -0.61081970091E+02  0.23344989267E+02 -0.17561402078E+03  0.18739338272E+03  0.00000000000E+00 0.  1.
<scales pt_clust_3="61.15519" pt_clust_4="14000.00000" pt_clust_5="41.92923" pt_clust_6="94.40861"></scales>
<clustering>
<clus scale="   41.929">  2  5  1 -1</clus>
<clus scale="   61.155">  1  3  2 -1</clus>
<clus scale="   94.409">  2  6  1 -1</clus>
<clus scale="   61.155">  1  3  2 -1</clus>
</clustering>
</event>
<event>
 6    0  0.1631680E+002  0.1083292E+03  0.7546771E-02  0.1263696E+00
         21   -1    0    0  501  502  0.00000000000E+00  0.00000000000E+00  0.75651809752E+02  0.75651809752E+02  0.00000000000E+00 0. -1.
          2   -1    0    0  505    0 -0.00000000000E+00 -0.00000000000E+00 -0.44459924304E+03  0.44459924304E+03  0.00000000000E+00 0. -1.
         21    1    1    2  503  502  0.54618443161E+02  0.19446553791E+02  0.31823412653E+02  0.66136770261E+02  0.00000000000E+00 0. -1.
         21    1    1    2  504  503 -0.27392541376E+02  0.35011031126E+02 -0.44264772505E+02  0.62733513440E+02  0.00000000000E+00 0. -1.
         21    1    1    2  505  504 -0.62826228306E+02  0.29496510770E+02 -0.17483105970E+03  0.18810390359E+03  0.00000000000E+00 0. -1.
          2    1    1    2  501    0  0.35600326520E+02 -0.83954095687E+02 -0.18167501374E+03  0.20327686550E+03  0.00000000000E+00 0. -1.
<scales pt_clust_3="57.97709" pt_clust_4="40.93131" pt_clust_5="40.93131" pt_clust_6="95.49580"></scales>
<clustering>
<clus scale="   40.931">  4  5 -1 -1</clus>
<clus scale="   57.977">  1  3  2 -1</clus>
<clus scale="   95.496">  2  6  1 -1</clus>
<clus scale="   57.977">  1  3  2 -1</clus>
</clustering>
</event>
<event>
 6    0  0.1631680E+002  0.9117804E+02  0.7546771E-02  0.1300024E+00
          2   -1    0    0  503    0 -0.00000000000E+00  0.00000000000E+00  0.49824208053E+03  0.49824208053E+03  0.00000000000E+00 0.  1.
         21   -1    0    0  505  502  0.00000000000E+00 -0.00000000000E+00 -0.16956370523E+04  0.16956370523E+04  0.00000000000E+00 0.  1.
         21    1    1    2  503  504 -0.31373589303E+02  0.15484017346E+02  0.11445904021E+03  0.11968679453E+03  0.00000000000E+00 0. -1.
         21    1    1    2  504  502  0.43072781743E+02 -0.15893670013E+02 -0.16613124977E+04  0.16619467766E+04  0.00000000000E+00 0.  1.
         21    1    1    2  505  501 -0.47040802165E+02 -0.80265602977E+02  0.62510894609E+02  0.11208486086E+03  0.00000000000E+00 0. -1.
          2    1    1    2  501    0  0.35341609725E+02  0.80675255644E+02  0.28694759113E+03  0.30016070081E+03  0.00000000000E+00 0.  1.
<scales pt_clust_3="34.98652" pt_clust_4="45.88263" pt_clust_5="14000.00000" pt_clust_6="91.17804"></scales>
<clustering>
<clus scale="   34.987">  1  3  2 -1</clus>
<clus scale="   45.883">  2  4  1 -1</clus>
<clus scale="   91.178">  1  6  2 -1</clus>
<clus scale="   45.883">  2  3  1 -1</clus>
</clustering>
</event>
<event>
 6    0  0.1631680E+002  0.9112867E+02  0.7546771E-02  0.1300141E+00
          2   -1    0    0  505    0 -0.00000000000E+00  0.00000000000E+00  0.24319582996E+04  0.24319582996E+04  0.00000000000E+00 0. -1.
         21   -1    0    0  503  502  0.00000000000E+00 -0.00000000000E+00 -0.17115611953E+03  0.17115611953E+03  0.00000000000E+00 0. -1.
         21    1    1    2  503  501 -0.61844677939E+02 -0.70362132752E+02 -0.94471113478E+02  0.13304279461E+03  0.00000000000E+00 0. -1.
         21    1    1    2  504  502 -0.21948030436E+02  0.33994905236E+02 -0.40938976470E+02  0.57561874678E+02  0.00000000000E+00 0.  1.
         21    1    1    2  505  504 -0.43448875751E+02  0.61177087798E+02  0.22009421193E+03  0.23253365993E+03  0.00000000000E+00 0. -1.
          2    1    1    2  501    0  0.12724158413E+03 -0.24809860283E+02  0.21761180581E+04  0.21799760899E+04  0.00000000000E+00 0. -1.
<scales pt_clust_3="91.12867" pt_clust_4="40.46442" pt_clust_5="77.09882" pt_clust_6="14000.00000"></scales>
<clustering>
<clus scale="   40.464">  2  4  1 -1</clus>
<clus scale="   77.099">  1  5  2 -1</clus>
<clus scale="   91.129">  2  3  1 -1</clus>
<clus scale="   40.464">  2  3  1 -1</clus>
</clustering>
</event>
<event>
 6    0  0.1631680E+002  0.1223560E+03  0.7546771E-02  0.1239260E+00
         21   -1    0    0  503  502  0.00000000000E+00  0.00000000000E+00  0.66288331860E+03  0.66288331860E+03  0.00000000000E+00 0. -1.
          1   -1    0    0  504    0 -0.00000000000E+00 -0.00000000000E+00 -0.13573527850E+04  0.13573527850E+04  0.00000000000E+00 0. -1.
         21    1    1    2  503  501 -0.44143411511E+02 -0.25671104107E+02  0.81361514396E+02  0.96059056787E+02  0.00000000000E+00 0. -1.
         21    1    1    2  504  505 -0.62779780484E+02  0.27319638803E+02 -0.45869413380E+02  0.82411568276E+02  0.00000000000E+00 0. -1.
         21    1    1    2  505  502 -0.14447744312E+02  0.51309670878E+02  0.55120352787E+03  0.55377499833E+03  0.00000000000E+00 0. -1.
          1    1    1    2  501    0  0.12137093631E+03 -0.52958205573E+02 -0.12811650953E+04  0.12879904802E+04  0.00000000000E+00 0. -1.
<scales pt_clust_3="51.06512" pt_clust_4="14000.00000" pt_clust_5="62.83580" pt_clust_6="122.35603"></scales>
<clustering>
<clus scale="   51.065">  1  3  2 -1</clus>
<clus scale="   62.836">  1  5  2 -1</clus>
<clus scale="  122.356">  2  6  1 -1</clus>
<clus scale="   51.065">  1  3  2 -1</clus>
</clustering>
</event>
<event>
 6    0  0.1631680E+002  0.1814254E+03  0.7546771E-02  0.1166431E+00
         21   -1    0    0  501  502  0.00000000000E+00  0.00000000000E+00  0.58252095205E+02  0.58252095205E+02  0.00000000000E+00 0. -1.
          1   -1    0    0  503    0 -0.00000000000E+00 -0.00000000000E+00 -0.86514943156E+03  0.86514943156E+03  0.00000000000E+00 0. -1.
         21    1    1    2  503  505 -0.50712377576E+02  0.50828988331E+02 -0.10487805497E+03  0.12710128917E+03  0.00000000000E+00 0. -1.
         21    1    1    2  504  502  0.51905940993E+02  0.53834120608E+02 -0.10957512928E+03  0.13266140436E+03  0.00000000000E+00 0. -1.
         21    1    1    2  505  504 -0.16277794760E+02  0.85747994757E+02 -0.86680863258E+02  0.12300917552E+03  0.00000000000E+00 0. -1.
          1    1    1    2  501    0  0.15084231343E+02 -0.19041110370E+03 -0.50576328886E+03  0.54062965771E+03  0.00000000000E+00 0. -1.
<scales pt_clust_3="47.29884" pt_clust_4="74.78194" pt_clust_5="47.29884" pt_clust_6="173.76914"></scales>
<clustering>
<clus scale="   47.299">  3  5 -1 -1</clus>
<clus scale="   74.782">  1  4  2 -1</clus>
<clus scale="  173.769">  2  6  1 -1</clus>
<clus scale="   74.782">  1  3  2 -1</clus>
</clustering>
</event>
<event>
 6    0  0.1631680E+002  0.9784782E+02  0.7546771E-02  0.1284888E+00
         -2   -1    0    0    0  501 -0.00000000000E+00  0.00000000000E+00  0.19831528909E+03  0.19831528909E+03  0.00000000000E+00 0. -1.
         21   -1    0    0  504  502  0.00000000000E+00 -0.00000000000E+00 -0.17588350696E+04  0.17588350696E+04  0.00000000000E+00 0.  1.
         21    1    1    2  503  502  0.12855496451E+02  0.51188546086E+02 -0.13457059773E+04  0.13467405498E+04  0.00000000000E+00 0.  1.
         21    1    1    2  504  501 -0.33893320281E+02  0.38095443454E+01  0.85189789306E+02  0.91763663777E+02  0.00000000000E+00 0. -1.
         21    1    1    2  505  503 -0.64522332769E+01 -0.14596697592E+03 -0.37184136377E+03  0.39951719511E+03  0.00000000000E+00 0. -1.
         -2    1    1    2    0  505  0.27490057107E+02  0.90968885490E+02  0.71837771234E+02  0.11912895006E+03  0.00000000000E+00 0. -1.
<scales pt_clust_3="52.75689" pt_clust_4="34.10674" pt_clust_5="97.84782" pt_clust_6="14000.00000"></scales>
<clustering>
<clus scale="   34.107">  1  4  2 -1</clus>
<clus scale="   52.757">  2  3  1 -1</clus>
<clus scale="   97.848">  2  5  1 -1</clus>
<clus scale="   52.757">  2  3  1 -1</clus>
</clustering>
</event>
<event>
 6    0  0.1631680E+002  0.1602543E+03  0.7546771E-02  0.1188410E+00
         -1   -1    0    0    0  501 -0.00000000000E+00  0.00000000000E+00  0.10511372701E+04  0.10511372701E+04  0.00000000000E+00 0.  1.
         21   -1    0    0  503  502  0.00000000000E+00 -0.00000000000E+00 -0.32588235898E+03  0.32588235898E+03  0.00000000000E+00 0. -1.
         21    1    1    2  503  505  0.27768332467E+01 -0.14127914539E+03 -0.15290689643E+03  0.20820188928E+03  0.00000000000E+00 0. -1.
         21    1    1    2  504  502 -0.11812301790E+03  0.21327666627E+02 -0.10663194144E+03  0.16055618224E+03  0.00000000000E+00 0. -1.
         21    1    1    2  505  501  0.38554870595E+02 -0.10905734527E+02  0.46646500543E+03  0.46818267202E+03  0.00000000000E+00 0.  1.
         -1    1    1    2    0  504  0.76791314054E+02  0.13085721329E+03  0.51832874354E+03  0.54007888550E+03  0.00000000000E+00 0.  1.
<scales pt_clust_3="14000.00000" pt_clust_4="118.19139" pt_clust_5="40.06761" pt_clust_6="160.25428"></scales>
<clustering>
<clus scale="   40.068">  1  5  2 -1</clus>
<clus scale="  118.191">  2  4  1 -1</clus>
<clus scale="  160.254">  1  6  2 -1</clus>
<clus scale="  118.191">  2  3  1 -1</clus>
</clustering>
</event>
<event>
 6    0  0.1631680E+002  0.2558417E+03  0.7546771E-02  0.1109668E+00
          1   -1    0    0  503    0 -0.00000000000E+00  0.00000000000E+00  0.27016756341E+04  0.27016756341E+04  0.00000000000E+00 0.  1.
         21   -1    0    0  505  502  0.00000000000E+00 -0.00000000000E+00 -0.13963165137E+03  0.13963165137E+03  0.00000000000E+00 0. -1.
         21    1    1    2  503  504 -0.91478654534E+01 -0.29326732817E+02  0.73597533311E+03  0.73661620376E+03  0.00000000000E+00 0.  1.
         21    1    1    2  504  502  0.60719818082E+02  0.20343920062E+03  0.18666798530E+03  0.28270009090E+03  0.00000000000E+00 0. -1.
         21    1    1    2  505  501  0.49042235103E+02 -0.32590257015E+03  0.23244030559E+03  0.40329408837E+03  0.00000000000E+00 0. -1.
          1    1    1    2  501    0 -0.10061418773E+03  0.15179010234E+03  0.14069603588E+04  0.14186969025E+04  0.00000000000E+00 0.  1.
<scales pt_clust_3="30.72036" pt_clust_4="255.84172" pt_clust_5="14000.00000" pt_clust_6="169.03968"></scales>
<clustering>
<clus scale="   30.720">  1  3  2 -1</clus>
<clus scale="  169.040">  1  6  2 -1</clus>
<clus scale="  255.842">  2  4  1 -1</clus>
<clus scale="  255.842">  2  3  1 -1</clus>
</clustering>
</event>
<event>
 6    0  0.1631680E+002  0.1117435E+03  0.7546771E-02  0.1257375E+00
         21   -1    0    0  504  502  0.00000000000E+00  0.00000000000E+00  0.59695426506E+03  0.59695426506E+03  0.00000000000E+00 0. -1.
          2   -1    0    0  505    0 -0.00000000000E+00 -0.00000000000E+00 -0.33187969415E+03  0.33187969415E+03  0.00000000000E+00 0. -1.
         21    1    1    2  503  501 -0.33547450755E+02 -0.11704839700E+02 -0.31694516660E+02  0.47612783062E+02  0.00000000000E+00 0. -1.
         21    1    1    2  504  503 -0.12339041662E+03  0.64258657257E+02 -0.58318571412E+02  0.15084901630E+03  0.00000000000E+00 0. -1.
         21    1    1    2  505  502  0.90970343501E+02  0.13354467484E+01  0.52897510667E+03  0.53674207055E+03  0.00000000000E+00 0. -1.
          2    1    1    2  501    0  0.65967523878E+02 -0.53889264305E+02 -0.17388744770E+03  0.19363008930E+03  0.00000000000E+00 0. -1.
<scales pt_clust_3="31.53321" pt_clust_4="31.53321" pt_clust_5="92.69993" pt_clust_6="85.18079"></scales>
<clustering>
<clus scale="   31.533">  3  4 -1 -1</clus>
<clus scale="   85.181">  2  6  1 -1</clus>
<clus scale="   92.700">  1  5  2 -1</clus>
<clus scale="   92.700">  1  3  2 -1</clus>
</clustering>
</event>
<event>
 6    0  0.1631680E+002  0.1343309E+03  0.7546771E-02  0.1221167E+00
          1   -1    0    0  503    0 -0.00000000000E+00  0.00000000000E+00  0.76259128587E+03  0.76259128587E+03  0.00000000000E+00 0. -1.
         21   -1    0    0  504  502  0.00000000000E+00 -0.00000000000E+00 -0.10404661370E+04  0.10404661370E+04  0.00000000000E+00 0.  1.
         21    1    1    2  503  505 -0.66378450835E+01  0.31387305226E+02  0.74092083586E+02  0.80739462265E+02  0.00000000000E+00 0.  1.
         21    1    1    2  504  501 -0.85068319083E+02  0.12669313236E+03 -0.95000171365E+03  0.96218034933E+03  0.00000000000E+00 0.  1.
         21    1    1    2  505  502 -0.87617355020E+01 -0.31346423582E+02 -0.67658805311E+02  0.75080491584E+02  0.00000000000E+00 0.  1.
          1    1    1    2  501    0  0.10046789967E+03 -0.12673401401E+03  0.66569358423E+03  0.68505711970E+03  0.00000000000E+00 0. -1.
<scales pt_clust_3="32.08152" pt_clust_4="14000.00000" pt_clust_5="32.39397" pt_clust_6="134.33088"></scales>
<clustering>
<clus scale="   32.082">  1  3  2 -1</clus>
<clus scale="   32.394">  2  5  1 -1</clus>
<clus scale="  134.331">  1  6  2 -1</clus>
<clus scale="   32.394">  2  3  1 -1</clus>
</clustering>
</event>
<event>
 6    0  0.1631680E+002  0.1325041E+03  0.7546771E-02  0.1223787E+00
         21   -1    0    0  503  502  0.00000000000E+00  0.00000000000E+00  0.43617423369E+03  0.43617423369E+03  0.00000000000E+00 0.  1.
         -3   -1    0    0    0  501 -0.00000000000E+00 -0.00000000000E+00 -0.55771644687E+03  0.55771644687E+03  0.00000000000E+00 0.  1.
         21    1    1    2  503  501  0.11267231898E+02  0.45789538674E+02 -0.30478669287E+02  0.56147855241E+02  0.00000000000E+00 0.  1.
         21    1    1    2  504  502 -0.79330552637E+02  0.20950421786E+02  0.14663179665E+03  0.16802720180E+03  0.00000000000E+00 0. -1.
         21    1    1    2  505  504  0.16091062692E+03 -0.12199715496E+03  0.22047793296E+03  0.29897500664E+03  0.00000000000E+00 0.  1.
         -3    1    1    2    0  505 -0.92847306179E+02  0.55257194500E+02 -0.45817327351E+03  0.47074061687E+03  0.00000000000E+00 0.  1.
<scales pt_clust_3="47.15541" pt_clust_4="82.07278" pt_clust_5="132.50407" pt_clust_6="14000.00000"></scales>
<clustering>
<clus scale="   47.155">  2  3  1 -1</clus>
<clus scale="   82.073">  1  4  2 -1</clus>
<clus scale="  132.504">  1  5  2 -1</clus>
<clus scale="   82.073">  1  3  2 -1</clus>
</clustering>
</event>
<event>
 6    0  0.1631680E+002  0.2637905E+03  0.7546771E-02  0.1104887E+00
         21   -1    0    0  501  502  0.00000000000E+00  0.00000000000E+00  0.57730690395E+03  0.57730690395E+03  0.00000000000E+00 0.  1.
          1   -1    0    0  503    0 -0.00000000000E+00 -0.00000000000E+00 -0.37891709477E+03  0.37891709477E+03  0.00000000000E+00 0.  1.
         21    1    1    2  503  505 -0.73820851693E+02  0.95021111093E+02  0.55985704016E+02  0.13271370974E+03  0.00000000000E+00 0.  1.
         21    1    1    2  504  502 -0.41537205273E+02  0.21436035837E+02  0.27200260624E+03  0.27598960280E+03  0.00000000000E+00 0.  1.
         21    1    1    2  505  504 -0.32917409878E+02  0.91921770653E+02  0.14337235291E+03  0.17346123305E+03  0.00000000000E+00 0.  1.
          1    1    1    2  501    0  0.14827546684E+03 -0.20837891758E+03 -0.27297085398E+03  0.37405945314E+03  0.00000000000E+00 0.  1.
<scales pt_clust_3="81.76923" pt_clust_4="46.74230" pt_clust_5="81.76923" pt_clust_6="248.85068"></scales>
<clustering>
<clus scale="   46.742">  1  4  2 -1</clus>
<clus scale="   81.769">  3  5 -1 -1</clus>
<clus scale="  248.851">  2  6  1 -1</clus>
<clus scale="   46.742">  1  3  2 -1</clus>
</clustering>
</event>
<event>
 6    0  0.1631680E+002  0.1034684E+03  0.7546771E-02  0.1273167E+00
          2   -1    0    0  504    0 -0.00000000000E+00  0.00000000000E+00  0.35760835828E+04  0.35760835828E+04  0.00000000000E+00 0.  1.
         21   -1    0    0  501  502  0.00000000000E+00 -0.00000000000E+00 -0.29273946416E+02  0.29273946416E+02  0.00000000000E+00 0.  1.
         21    1    1    2  503  505  0.10647381222E+03  0.64836014657E+02  0.85251837942E+03  0.86158456854E+03  0.00000000000E+00 0.  1.
         21    1    1    2  504  503  0.16559208577E+02 -0.27712017957E+02  0.10983914709E+04  0.10988657728E+04  0.00000000000E+00 0.  1.
         21    1    1    2  505  502 -0.21804649698E+02 -0.23404655643E+02 -0.11703449208E+02  0.34061582136E+02  0.00000000000E+00 0.  1.
          2    1    1    2  501    0 -0.10122837110E+03 -0.13719341057E+02  0.16076032353E+04  0.16108456057E+04  0.00000000000E+00 0.  1.
<scales pt_clust_3="14000.00000" pt_clust_4="32.63294" pt_clust_5="31.98782" pt_clust_6="103.46843"></scales>
<clustering>
<clus scale="   31.988">  2  5  1 -1</clus>
<clus scale="   32.633">  1  4  2 -1</clus>
<clus scale="  103.468">  1  6  2 -1</clus>
<clus scale="   31.988">  2  3  1 -1</clus>
</clustering>
</event>
<event>
 6    0  0.1631680E+002  0.9061236E+02  0.7546771E-02  0.1301376E+00
          1   -1    0    0  505    0 -0.00000000000E+00  0.00000000000E+00  0.23351581709E+04  0.23351581709E+04  0.00000000000E+00 0.  1.
         21   -1    0    0  503  502  0.00000000000E+00 -0.00000000000E+00 -0.21789287029E+02  0.21789287029E+02  0.00000000000E+00 0.  1.
         21    1    1    2  503  501  0.35407841663E+02 -0.31528926295E+02  0.39544040476E+02  0.61737505470E+02  0.00000000000E+00 0.  1.
         21    1    1    2  504  502 -0.35508999925E+02  0.85256393196E+02  0.44214436165E+03  0.45168703567E+03  0.00000000000E+00 0.  1.
         21    1    1    2  505  504 -0.16912211682E+02  0.61698641107E+02  0.11616344269E+04  0.11633947254E+04  0.00000000000E+00 0.  1.
          1    1    1    2  501    0  0.17013369943E+02 -0.11542610801E+03  0.67004605482E+03  0.68012819141E+03  0.00000000000E+00 0.  1.
<scales pt_clust_3="47.41085" pt_clust_4="90.61236" pt_clust_5="60.73830" pt_clust_6="14000.00000"></scales>
<clustering>
<clus scale="   47.411">  2  3  1 -1</clus>
<clus scale="   60.738">  1  5  2 -1</clus>
<clus scale="   90.612">  2  4  1 -1</clus>
<clus scale="   47.411">  2  3  1 -1</clus>
</clustering>
</event>
<event>
 6    0  0.1631680E+002  0.8041158E+02  0.7546771E-02  0.1327887E+00
         21   -1    0    0  501  502  0.00000000000E+00  0.00000000000E+00  0.31645910750E+02  0.31645910750E+02  0.00000000000E+00 0. -1.
          2   -1    0    0  504    0 -0.00000000000E+00 -0.00000000000E+00 -0.97292849309E+03  0.97292849309E+03  0.00000000000E+00 0. -1.
         21    1    1    2  503  502  0.82364015007E+02 -0.12440194548E+02 -0.58565486345E+02  0.10182585919E+03  0.00000000000E+00 0. -1.
         21    1    1    2  504  505  0.36798375730E+02  0.59846800576E+01 -0.18856867286E+03  0.19221883684E+03  0.00000000000E+00 0.  1.
         21    1    1    2  505  503 -0.66095502465E+02  0.37152983064E+02 -0.22590017391E+03  0.23828522440E+03  0.00000000000E+00 0.  1.
          2    1    1    2  501    0 -0.53066888272E+02 -0.30697468573E+02 -0.46824824923E+03  0.47224448341E+03  0.00000000000E+00 0. -1.
<scales pt_clust_3="14000.00000" pt_clust_4="37.28186" pt_clust_5="80.41158" pt_clust_6="41.14128"></scales>
<clustering>
<clus scale="   37.282">  2  4  1 -1</clus>
<clus scale="   41.141">  2  6  1 -1</clus>
<clus scale="   80.412">  2  5  1 -1</clus>
<clus scale="   80.412">  1  3  2 -1</clus>
</clustering>
</event>
<event>
 6    0  0.1631680E+002  0.7147262E+02  0.7546771E-02  0.1355156E+00
         21   -1    0    0  503  502  0.00000000000E+00  0.00000000000E+00  0.38037572137E+03  0.38037572137E+03  0.00000000000E+00 0.  1.
          2   -1    0    0  505    0 -0.00000000000E+00 -0.00000000000E+00 -0.29516474800E+04  0.29516474800E+04  0.00000000000E+00 0.  1.
         21    1    1    2  503  501 -0.87061238576E+02 -0.28710824974E+02  0.25677640333E+03  0.27265012752E+03  0.00000000000E+00 0.  1.
         21    1    1    2  504  502  0.19353279975E+02  0.50765899738E+02  0.10594733723E+03  0.11906537821E+03  0.00000000000E+00 0.  1.
         21    1    1    2  505  504  0.97065145348E+02  0.22790064717E+02 -0.88289144031E+03  0.88850341860E+03  0.00000000000E+00 0.  1.
          2    1    1    2  501    0 -0.29357186748E+02 -0.44845139480E+02 -0.20511040589E+04  0.20518042771E+04  0.00000000000E+00 0.  1.
<scales pt_clust_3="14000.00000" pt_clust_4="53.94834" pt_clust_5="71.47262" pt_clust_6="53.59973"></scales>
<clustering>
<clus scale="   53.600">  2  6  1 -1</clus>
<clus scale="   53.948">  1  4  2 -1</clus>
<clus scale="   71.473">  2  5  1 -1</clus>
<clus scale="   53.948">  1  3  2 -1</clus>
</clustering>
</event>
<event>
 6    0  0.1631680E+002  0.1052399E+03  0.7546771E-02  0.1269648E+00
          1   -1    0    0  504    0 -0.00000000000E+00  0.00000000000E+00  0.23956551006E+04  0.23956551006E+04  0.00000000000E+00 0. -1.
         21   -1    0    0  505  502  0.00000000000E+00 -0.00000000000E+00 -0.61941546932E+03  0.61941546932E+03  0.00000000000E+00 0.  1.
         21    1    1    2  503  502  0.59453917223E+02 -0.28387063081E+02 -0.21882427903E+03  0.22852715094E+03  0.00000000000E+00 0.  1.
         21    1    1    2  504  503 -0.21782037580E+02 -0.47858709858E+02  0.16071226516E+03  0.16909566950E+03  0.00000000000E+00 0. -1.
         21    1    1    2  505  501 -0.69940094135E+02  0.13299572262E+03 -0.37663170751E+03  0.40550082873E+03  0.00000000000E+00 0.  1.
          1    1    1    2  501    0  0.32268214492E+02 -0.56749949681E+02  0.22109833527E+04  0.22119469207E+04  0.00000000000E+00 0. -1.
<scales pt_clust_3="65.88538" pt_clust_4="52.58244" pt_clust_5="105.23991" pt_clust_6="14000.00000"></scales>
<clustering>
<clus scale="   52.582">  1  4  2 -1</clus>
<clus scale="   65.885">  2  3  1 -1</clus>
<clus scale="  105.240">  2  5  1 -1</clus>
<clus scale="   65.885">  2  3  1 -1</clus>
</clustering>
</event>
<event>
 6    0  0.1631680E+002  0.1465395E+03  0.7546771E-02  0.1204791E+00
         -1   -1    0    0    0  501 -0.00000000000E+00  0.00000000000E+00  0.22327388600E+03  0.22327388600E+03  0.00000000000E+00 0.  1.
         21   -1    0    0  505  502  0.00000000000E+00 -0.00000000000E+00 -0.25325707681E+03  0.25325707681E+03  0.00000000000E+00 0.  1.
         21    1    1    2  503  502 -0.19970004919E+02 -0.14875256176E+03 -0.12323635611E+03  0.19419918948E+03  0.00000000000E+00 0.  1.
         21    1    1    2  504  501 -0.19773090997E+02  0.28368874064E+02  0.14817503208E+02  0.37620825942E+02  0.00000000000E+00 0.  1.
         21    1    1    2  505  504 -0.32082064786E+02  0.63151333767E+01 -0.49199277637E+02  0.59073756530E+02  0.00000000000E+00 0. -1.
         -1    1    1    2    0  503  0.71825160702E+02  0.11406855432E+03  0.12763493973E+03  0.18563719087E+03  0.00000000000E+00 0.  1.
<scales pt_clust_3="146.53948" pt_clust_4="35.95049" pt_clust_5="32.69770" pt_clust_6="14000.00000"></scales>
<clustering>
<clus scale="   32.698">  2  5  1 -1</clus>
<clus scale="   35.950">  1  4  2 -1</clus>
<clus scale="  146.539">  2  3  1 -1</clus>
<clus scale="   32.698">  2  3  1 -1</clus>
</clustering>
</event>
<event>
 6    0  0.1631680E+002  0.1704261E+03  0.7546771E-02  0.1177404E+00
          2   -1    0    0  503    0 -0.00000000000E+00  0.00000000000E+00  0.23473174651E+04  0.23473174651E+04  0.00000000000E+00 0.  1.
         21   -1    0    0  504  502  0.00000000000E+00 -0.00000000000E+00 -0.16242035371E+03  0.16242035371E+03  0.00000000000E+00 0.  1.
         21    1    1    2  503  502  0.21940014632E+02 -0.36425320095E+02  0.24621324448E+03  0.24985821969E+03  0.00000000000E+00 0. -1.
         21    1    1    2  504  505 -0.13310930348E+02  0.41875336875E+02 -0.94107663391E+02  0.10386037268E+03  0.00000000000E+00 0.  1.
         21    1    1    2  505  501 -0.96554268984E+02 -0.16799205097E+03  0.10692661314E+03  0.22130828418E+03  0.00000000000E+00 0.  1.
          2    1    1    2  501    0  0.87925184700E+02  0.16254203419E+03  0.19258649172E+04  0.19347109423E+04  0.00000000000E+00 0.  1.
<scales pt_clust_3="42.52256" pt_clust_4="43.84394" pt_clust_5="170.42611" pt_clust_6="14000.00000"></scales>
<clustering>
<clus scale="   42.523">  1  3  2 -1</clus>
<clus scale="   43.844">  2  4  1 -1</clus>
<clus scale="  170.426">  2  5  1 -1</clus>
<clus scale="   43.844">  2  3  1 -1</clus>
</clustering>
</event>
<event>
 6    0  0.1631680E+002  0.8806752E+02  0.7546771E-02  0.1307600E+00
          2   -1    0    0  505    0 -0.00000000000E+00  0.00000000000E+00  0.70283059772E+03  0.70283059772E+03  0.00000000000E+00 0.  1.
         21   -1    0    0  503  502  0.00000000000E+00 -0.00000000000E+00 -0.16213205056E+03  0.16213205056E+03  0.00000000000E+00 0. -1.
         21    1    1    2  503  504 -0.89470194340E+01 -0.33366398764E+02 -0.17391734113E+02  0.38676066742E+02  0.00000000000E+00 0. -1.
         21    1    1    2  504  501 -0.99580364428E+02 -0.35881598687E+01  0.53265595967E+02  0.11298826304E+03  0.00000000000E+00 0.  1.
         21    1    1    2  505  502  0.36486640538E+02 -0.14296876689E+02 -0.97207348359E+02  0.10480908451E+03  0.00000000000E+00 0. -1.
          2    1    1    2  501    0  0.72040743323E+02  0.51251435321E+02  0.60203203366E+03  0.60848923399E+03  0.00000000000E+00 0.  1.
<scales pt_clust_3="34.54513" pt_clust_4="14000.00000" pt_clust_5="49.39248" pt_clust_6="88.06752"></scales>
<clustering>
<clus scale="   34.545">  2  3  1 -1</clus>
<clus scale="   49.392">  2  5  1 -1</clus>
<clus scale="   88.068">  1  6  2 -1</clus>
<clus scale="   34.545">  2  3  1 -1</clus>
</clustering>
</event>
<event>
 6    0  0.1631680E+002  0.8077129E+02  0.7546771E-02  0.1326877E+00
          1   -1    0    0  503    0 -0.00000000000E+00  0.00000000000E+00  0.50846661843E+03  0.50846661843E+03  0.00000000000E+00 0.  1.
         21   -1    0    0  505  502  0.00000000000E+00 -0.00000000000E+00 -0.10359602816E+04  0.10359602816E+04  0.00000000000E+00 0.  1.
         21    1    1    2  503  504 -0.19927018685E+02  0.24915489249E+02  0.32369637569E+03  0.32526483258E+03  0.00000000000E+00 0.  1.
         21    1    1    2  504  502 -0.14938588646E+02 -0.68481087701E+02 -0.68655669006E+02  0.98114329688E+02  0.00000000000E+00 0. -1.
         21    1    1    2  505  501 -0.42106420793E+02 -0.68259831191E+02 -0.92254711285E+03  0.92602674403E+03  0.00000000000E+00 0.  1.
          1    1    1    2  501    0  0.76972028123E+02  0.11182542964E+03  0.14001274295E+03  0.19502099378E+03  0.00000000000E+00 0.  1.
<scales pt_clust_3="31.90404" pt_clust_4="68.51142" pt_clust_5="80.77129" pt_clust_6="14000.00000"></scales>
<clustering>
<clus scale="   31.904">  1  3  2 -1</clus>
<clus scale="   68.511">  1  4  2 -1</clus>
<clus scale="   80.771">  2  5  1 -1</clus>
<clus scale="   80.771">  2  3  1 -1</clus>
</clustering>
</event>
<event>
 6    0  0.1631680E+002  0.8602153E+02  0.7546771E-02  0.1312783E+00
         -3   -1    0    0    0  501 -0.00000000000E+00  0.00000000000E+00  0.47285224162E+02  0.47285224162E+02  0.00000000000E+00 0.  1.
         21   -1    0    0  504  502  0.00000000000E+00 -0.00000000000E+00 -0.10914284293E+04  0.10914284293E+04  0.00000000000E+00 0.  1.
         21    1    1    2  503  505  0.57605652707E+01  0.60049126944E+02 -0.12447122541E+03  0.13831907936E+03  0.00000000000E+00 0.  1.
         21    1    1    2  504  501 -0.21139853679E+02  0.68913072516E+02 -0.32296879744E+03  0.33091501794E+03  0.00000000000E+00 0.  1.
         21    1    1    2  505  502  0.38259285038E+02 -0.31476986556E+02 -0.56098068311E+03  0.56316418600E+03  0.00000000000E+00 0.  1.
         -3    1    1    2    0  503 -0.22879996630E+02 -0.97485212905E+02 -0.35722499145E+02  0.10631537013E+03  0.00000000000E+00 0.  1.
<scales pt_clust_3="14000.00000" pt_clust_4="49.53481" pt_clust_5="49.54365" pt_clust_6="86.02153"></scales>
<clustering>
<clus scale="   49.544">  2  5  1 -1</clus>
<clus scale="   49.535">  2  4  1 -1</clus>
<clus scale="   86.022">  1  6  2 -1</clus>
<clus scale="   49.544">  2  3  1 -1</clus>
</clustering>
</event>
<event>
 6    0  0.1631680E+002  0.1829079E+03  0.7546771E-02  0.1165018E+00
          2   -1    0    0  503    0 -0.00000000000E+00  0.00000000000E+00  0.12767565996E+04  0.12767565996E+04  0.00000000000E+00 0.  1.
         21   -1    0    0  504  502  0.00000000000E+00 -0.00000000000E+00 -0.27462082457E+03  0.27462082457E+03  0.00000000000E+00 0.  1.
         21    1    1    2  503  502  0.16980110890E+03 -0.59801946399E+02 -0.21450458294E+03  0.28003732872E+03  0.00000000000E+00 0.  1.
         21    1    1    2  504  505 -0.88281733034E+02  0.54308060966E+02  0.91032383915E+02  0.13794899345E+03  0.00000000000E+00 0.  1.
         21    1    1    2  505  501 -0.31108112183E+02  0.16354199005E+02  0.91796814894E+02  0.98294606634E+02  0.00000000000E+00 0. -1.
          2    1    1    2  501    0 -0.50411263680E+02 -0.10860313571E+02  0.10338111592E+04  0.10350964954E+04  0.00000000000E+00 0.  1.
<scales pt_clust_3="174.12031" pt_clust_4="32.61652" pt_clust_5="32.61652" pt_clust_6="51.56784"></scales>
<clustering>
<clus scale="   32.617">  4  5 -1 -1</clus>
<clus scale="   51.568">  1  6  2 -1</clus>
<clus scale="  174.120">  2  3  1 -1</clus>
<clus scale="  174.120">  2  3  1 -1</clus>
</clustering>
</event>
<event>
 6    0  0.1631680E+002  0.9438484E+02  0.7546771E-02  0.1292568E+00
          1   -1    0    0  504    0 -0.00000000000E+00  0.00000000000E+00  0.17947865905E+03  0.17947865905E+03  0.00000000000E+00 0.  1.
         21   -1    0    0  505  502  0.00000000000E+00 -0.00000000000E+00 -0.20440766367E+03  0.20440766367E+03  0.00000000000E+00 0.  1.
         21    1    1    2  503  501  0.22167042748E+02 -0.74050846209E+02 -0.47456709468E+02  0.90703058834E+02  0.00000000000E+00 0.  1.
         21    1    1    2  504  502  0.42501451024E+02 -0.44522036610E+02  0.63492864853E+02  0.88430362264E+02  0.00000000000E+00 0.  1.
         21    1    1    2  505  503  0.31706172237E+02  0.10814539027E+02 -0.49683297185E+02  0.59922163107E+02  0.00000000000E+00 0.  1.
          1    1    1    2  501    0 -0.96374666009E+02  0.10775834379E+03  0.87181371789E+01  0.14483073852E+03  0.00000000000E+00 0.  1.
<scales pt_clust_3="14000.00000" pt_clust_4="62.77536" pt_clust_5="33.49979" pt_clust_6="94.38484"></scales>
<clustering>
<clus scale="   33.500">  2  5  1 -1</clus>
<clus scale="   62.775">  1  4  2 -1</clus>
<clus scale="   94.385">  1  6  2 -1</clus>
<clus scale="   33.500">  2  3  1 -1</clus>
</clustering>
</event>
<event>
 6    0  0.1631680E+002  0.1486988E+03  0.7546771E-02  0.1202081E+00
          2   -1    0    0  503    0 -0.00000000000E+00  0.00000000000E+00  0.11245535497E+04  0.11245535497E+04  0.00000000000E+00 0. -1.
         21   -1    0    0  504  502  0.00000000000E+00 -0.00000000000E+00 -0.13982932855E+03  0.13982932855E+03  0.00000000000E+00 0. -1.
         21    1    1    2  503  505 -0.12203840545E+03  0.45706270244E+02  0.46389375524E+03  0.48185044536E+03  0.00000000000E+00 0. -1.
         21    1    1    2  504  501  0.63068977407E+02 -0.32780474927E+01  0.49473358317E+02  0.80225025333E+02  0.00000000000E+00 0. -1.
         21    1    1    2  505  502 -0.10594083945E+03 -0.13293060269E+03 -0.24712048804E+02  0.17176929862E+03  0.00000000000E+00 0. -1.
          2    1    1    2  501    0  0.16491026749E+03  0.90502379934E+02  0.49606915635E+03  0.53053810889E+03  0.00000000000E+00 0. -1.
<scales pt_clust_3="125.98033" pt_clust_4="63.15411" pt_clust_5="148.69883" pt_clust_6="14000.00000"></scales>
<clustering>
<clus scale="   63.154">  2  4  1 -1</clus>
<clus scale="  125.980">  1  3  2 -1</clus>
<clus scale="  148.699">  2  5  1 -1</clus>
<clus scale="   63.154">  2  3  1 -1</clus>
</clustering>
</event>
<event>
 6    0  0.1631680E+002  0.8966145E+02  0.7546771E-02  0.1303674E+00
          2   -1    0    0  504    0 -0.00000000000E+00  0.00000000000E+00  0.48885827794E+02  0.48885827794E+02  0.00000000000E+00 0. -1.
         21   -1    0    0  505  502  0.00000000000E+00 -0.00000000000E+00 -0.20811024068E+04  0.20811024068E+04  0.00000000000E+00 0.  1.
         21    1    1    2  503  502  0.20530122590E+02  0.43095253562E+02 -0.90156283198E+03  0.90282569017E+03  0.00000000000E+00 0.  1.
         21    1    1    2  504  503 -0.84916330667E+02 -0.23403970776E+02 -0.15709239142E+03  0.18010149501E+03  0.00000000000E+00 0.  1.
         21    1    1    2  505  501 -0.81790112213E+02  0.21795000436E+02 -0.84149103808E+03  0.84573743661E+03  0.00000000000E+00 0.  1.
          2    1    1    2  501    0  0.14617632029E+03 -0.41486283221E+02 -0.13207031753E+03  0.20132361283E+03  0.00000000000E+00 0. -1.
<scales pt_clust_3="47.73559" pt_clust_4="83.77360" pt_clust_5="14000.00000" pt_clust_6="89.66145"></scales>
<clustering>
<clus scale="   47.736">  2  3  1 -1</clus>
<clus scale="   83.774">  1  4  2 -1</clus>
<clus scale="   89.661">  1  6  2 -1</clus>
<clus scale="   47.736">  2  3  1 -1</clus>
</clustering>
</event>
<event>
 6    0  0.1631680E+002  0.9380395E+02  0.7546771E-02  0.1293893E+00
          1   -1    0    0  505    0 -0.00000000000E+00  0.00000000000E+00  0.15356803304E+04  0.15356803304E+04  0.00000000000E+00 0.  1.
         21   -1    0    0  503  502  0.00000000000E+00 -0.00000000000E+00 -0.22268440737E+03  0.22268440737E+03  0.00000000000E+00 0. -1.
         21    1    1    2  503  501 -0.38259742097E+02 -0.51771652434E+02 -0.18655827304E+03  0.19735273269E+03  0.00000000000E+00 0. -1.
         21    1    1    2  504  502  0.92603688694E+02 -0.25378837689E+02  0.62247074035E+02  0.11443000825E+03  0.00000000000E+00 0. -1.
         21    1    1    2  505  504 -0.14987407575E+02 -0.38376461489E+02  0.32590415245E+03  0.32849793267E+03  0.00000000000E+00 0.  1.
          1    1    1    2  501    0 -0.39356539022E+02  0.11552695161E+03  0.11114029696E+04  0.11180840641E+04  0.00000000000E+00 0.  1.
<scales pt_clust_3="64.55242" pt_clust_4="93.80395" pt_clust_5="41.19921" pt_clust_6="14000.00000"></scales>
<clustering>
<clus scale="   41.199">  1  5  2 -1</clus>
<clus scale="   64.552">  2  3  1 -1</clus>
<clus scale="   93.804">  2  4  1 -1</clus>
<clus scale="   64.552">  2  3  1 -1</clus>
</clustering>
</event>
<event>
 6    0  0.1631680E+002  0.8281466E+02  0.7546771E-02  0.1321248E+00
          1   -1    0    0  504    0 -0.00000000000E+00  0.00000000000E+00  0.12173742093E+04  0.12173742093E+04  0.00000000000E+00 0.  1.
         21   -1    0    0  505  502  0.00000000000E+00 -0.00000000000E+00 -0.38653392467E+03  0.38653392467E+03  0.00000000000E+00 0. -1.
         21    1    1    2  503  501  0.79597187088E+01  0.70056566557E+02  0.47501708317E+02  0.85015833424E+02  0.00000000000E+00 0. -1.
         21    1    1    2  504  502  0.56834739269E+02 -0.38978593100E+01 -0.54639661104E+02  0.78935881958E+02  0.00000000000E+00 0. -1.
         21    1    1    2  505  503 -0.14728268565E+02 -0.82612282670E+02 -0.29451557776E+03  0.30623705963E+03  0.00000000000E+00 0. -1.
          1    1    1    2  501    0 -0.50066189412E+02  0.16453575423E+02  0.11324938152E+04  0.11337193590E+04  0.00000000000E+00 0.  1.
<scales pt_clust_3="14000.00000" pt_clust_4="49.64060" pt_clust_5="82.81466" pt_clust_6="52.70051"></scales>
<clustering>
<clus scale="   52.701">  1  6  2 -1</clus>
<clus scale="   49.641">  1  4  2 -1</clus>
<clus scale="   82.815">  2  5  1 -1</clus>
<clus scale="   82.815">  2  3  1 -1</clus>
</clustering>
</event>
<event>
 6    0  0.1631680E+002  0.1213466E+03  0.7546771E-02  0.1240892E+00
         -2   -1    0    0    0  501 -0.00000000000E+00  0.00000000000E+00  0.20380893117E+03  0.20380893117E+03  0.00000000000E+00 0. -1.
         21   -1    0    0  505  502  0.00000000000E+00 -0.00000000000E+00 -0.25296501732E+04  0.25296501732E+04  0.00000000000E+00 0. -1.
         21    1    1    2  503  502 -0.69914177026E+02 -0.75607575800E+02 -0.20590941251E+04  0.20616675565E+04  0.00000000000E+00 0. -1.
         21    1    1    2  504  501  0.52708189879E+02  0.33920063791E+02 -0.92665097076E+02  0.11187289316E+03  0.00000000000E+00 0. -1.
         21    1    1    2  505  504  0.10124161763E+03  0.51988837300E+02 -0.34818925392E+03  0.36631743187E+03  0.00000000000E+00 0. -1.
         -2    1    1    2    0  503 -0.84035630480E+02 -0.10301325291E+02  0.17410723410E+03  0.19360122277E+03  0.00000000000E+00 0. -1.
<scales pt_clust_3="107.20282" pt_clust_4="42.19346" pt_clust_5="42.19346" pt_clust_6="84.66466"></scales>
<clustering>
<clus scale="   42.193">  4  5 -1 -1</clus>
<clus scale="   84.665">  1  6  2 -1</clus>
<clus scale="  107.203">  2  3  1 -1</clus>
<clus scale="  107.203">  2  3  1 -1</clus>
</clustering>
</event>
<event>
 6    0  0.1631680E+002  0.9782034E+02  0.7546771E-02  0.1284947E+00
          3   -1    0    0  504    0 -0.00000000000E+00  0.00000000000E+00  0.11579662755E+03  0.11579662755E+03  0.00000000000E+00 0.  1.
         21   -1    0    0  501  502  0.00000000000E+00 -0.00000000000E+00 -0.10257020500E+04  0.10257020500E+04  0.00000000000E+00 0.  1.
         21    1    1    2  503  502 -0.85626885313E+02 -0.47314290302E+02 -0.87187764744E+03  0.87734898282E+03  0.00000000000E+00 0.  1.
         21    1    1    2  504  505 -0.37927249425E+02  0.16388292097E+02 -0.43849453108E+02  0.60248044821E+02  0.00000000000E+00 0. -1.
         21    1    1    2  505  503  0.50231929811E+02 -0.37821022621E+02 -0.57419485223E+02  0.85150888474E+02  0.00000000000E+00 0.  1.
          3    1    1    2  501    0  0.73322204927E+02  0.68747020826E+02  0.63241163307E+02  0.11875076145E+03  0.00000000000E+00 0.  1.
<scales pt_clust_3="97.82034" pt_clust_4="41.31649" pt_clust_5="57.71701" pt_clust_6="14000.00000"></scales>
<clustering>
<clus scale="   41.316">  1  4  2 -1</clus>
<clus scale="   57.717">  1  5  2 -1</clus>
<clus scale="   97.820">  2  3  1 -1</clus>
<clus scale="   97.820">  2  3  1 -1</clus>
</clustering>
</event>
<event>
 6    0  0.1631680E+002  0.3950610E+03  0.7546771E-02  0.1045503E+00
         21   -1    0    0  505  502  0.00000000000E+00  0.00000000000E+00  0.40107159610E+03  0.40107159610E+03  0.00000000000E+00 0. -1.
          1   -1    0    0  504    0 -0.00000000000E+00 -0.00000000000E+00 -0.59118369367E+03  0.59118369367E+03  0.00000000000E+00 0. -1.
         21    1    1    2  503  502 -0.30461950880E+03  0.98014239627E+01 -0.55823377306E+01  0.30482827222E+03  0.00000000000E+00 0. -1.
         21    1    1    2  504  503 -0.33646652283E+02  0.13981884016E+02 -0.38071044672E+02  0.52697198529E+02  0.00000000000E+00 0. -1.
         21    1    1    2  505  501 -0.55959511095E+02  0.12863587536E+03  0.73377291457E+02  0.15831260914E+03  0.00000000000E+00 0. -1.
          1    1    1    2  501    0  0.39422567218E+03 -0.15241918334E+03 -0.21983600663E+03  0.47641720988E+03  0.00000000000E+00 0. -1.
<scales pt_clust_3="36.14673" pt_clust_4="36.14673" pt_clust_5="140.28063" pt_clust_6="380.97771"></scales>
<clustering>
<clus scale="   36.147">  3  4 -1 -1</clus>
<clus scale="  140.281">  1  5  2 -1</clus>
<clus scale="  380.978">  2  6  1 -1</clus>
<clus scale="  140.281">  1  3  2 -1</clus>
</clustering>
</event>
<event>
 6    0  0.1631680E+002  0.2976506E+03  0.7546771E-02  0.1086421E+00
          2   -1    0    0  503    0 -0.00000000000E+00  0.00000000000E+00  0.16835655562E+04  0.16835655562E+04  0.00000000000E+00 0.  1.
         21   -1    0    0  504  502  0.00000000000E+00 -0.00000000000E+00 -0.22579575275E+03  0.22579575275E+03  0.00000000000E+00 0.  1.
         21    1    1    2  503  505  0.98718946690E+01 -0.70859364776E+02  0.89451078932E+03  0.89736729163E+03  0.00000000000E+00 0. -1.
         21    1    1    2  504  501 -0.41567531198E+02 -0.12886637181E+02 -0.64813160685E+02  0.78068373018E+02  0.00000000000E+00 0.  1.
         21    1    1    2  505  502  0.26537156563E+03  0.20040941603E+03  0.57969196933E+03  0.66830291125E+03  0.00000000000E+00 0.  1.
          2    1    1    2  501    0 -0.23367592910E+03 -0.11666341407E+03  0.48380205470E+02  0.26562273303E+03  0.00000000000E+00 0.  1.
<scales pt_clust_3="71.60985" pt_clust_4="43.51925" pt_clust_5="297.65063" pt_clust_6="14000.00000"></scales>
<clustering>
<clus scale="   43.519">  2  4  1 -1</clus>
<clus scale="   71.610">  1  3  2 -1</clus>
<clus scale="  297.651">  1  5  2 -1</clus>
<clus scale="   43.519">  2  3  1 -1</clus>
</clustering>
</event>
<event>
 6    0  0.1631680E+002  0.1482962E+03  0.7546771E-02  0.1202582E+00
          2   -1    0    0  504    0 -0.00000000000E+00  0.00000000000E+00  0.11295729990E+04  0.11295729990E+04  0.00000000000E+00 0.  1.
         21   -1    0    0  505  502  0.00000000000E+00 -0.00000000000E+00 -0.95362922174E+02  0.95362922174E+02  0.00000000000E+00 0.  1.
         21    1    1    2  503  502  0.14834072505E+02  0.18474955652E+03  0.51388304589E+02  0.19233618014E+03  0.00000000000E+00 0.  1.
         21    1    1    2  504  503 -0.55421704397E+02 -0.11721587474E+03  0.42632868957E+03  0.44560888474E+03  0.00000000000E+00 0.  1.
         21    1    1    2  505  501  0.21816848990E+02 -0.41058472026E+02  0.21866503732E+02  0.51380122717E+02  0.00000000000E+00 0.  1.
          2    1    1    2  501    0  0.18770782902E+02 -0.26475209751E+02  0.53462657894E+03  0.53561073358E+03  0.00000000000E+00 0.  1.
<scales pt_clust_3="14000.00000" pt_clust_4="148.29616" pt_clust_5="48.47856" pt_clust_6="32.45426"></scales>
<clustering>
<clus scale="   32.454">  1  6  2 -1</clus>
<clus scale="   48.479">  2  5  1 -1</clus>
<clus scale="  148.296">  1  4  2 -1</clus>
<clus scale="   48.479">  2  3  1 -1</clus>
</clustering>
</event>
<event>
 6    0  0.1631680E+002  0.7446066E+02  0.7546771E-02  0.1345549E+00
         21   -1    0    0  503  502  0.00000000000E+00  0.00000000000E+00  0.13929894474E+03  0.13929894474E+03  0.00000000000E+00 0. -1.
          2   -1    0    0  504    0 -0.00000000000E+00 -0.00000000000E+00 -0.10397568924E+04  0.10397568924E+04  0.00000000000E+00 0. -1.
         21    1    1    2  503  501 -0.34768369646E+02 -0.17932060454E+02 -0.22793907043E+02  0.45276489686E+02  0.00000000000E+00 0.  1.
         21    1    1    2  504  505  0.57208250796E+02 -0.27012722101E+02 -0.84610437546E+02  0.10564751420E+03  0.00000000000E+00 0. -1.
         21    1    1    2  505  502  0.54638088140E+02  0.45241021501E+02  0.10503289692E+03  0.12674375779E+03  0.00000000000E+00 0. -1.
          2    1    1    2  501    0 -0.77077969290E+02 -0.29623894602E+00 -0.89808650001E+03  0.90138807548E+03  0.00000000000E+00 0. -1.
<scales pt_clust_3="39.12031" pt_clust_4="74.46066" pt_clust_5="37.13193" pt_clust_6="14000.00000"></scales>
<clustering>
<clus scale="   39.120">  1  3  2 -1</clus>
<clus scale="   37.132">  1  5  2 -1</clus>
<clus scale="   74.461">  1  4  2 -1</clus>
<clus scale="   39.120">  1  3  2 -1</clus>
</clustering>
</event>
<event>
 6    0  0.1631680E+002  0.1790798E+03  0.7546771E-02  0.1168697E+00
         21   -1    0    0  503  502  0.00000000000E+00  0.00000000000E+00  0.16975163006E+04  0.16975163006E+04  0.00000000000E+00 0. -1.
          2   -1    0    0  505    0 -0.00000000000E+00 -0.00000000000E+00 -0.12052542716E+04  0.12052542716E+04  0.00000000000E+00 0.  1.
         21    1    1    2  503  501 -0.78608534974E+02  0.18694943162E+03  0.15391698157E+04  0.15524732247E+04  0.00000000000E+00 0. -1.
         21    1    1    2  504  502  0.29229027930E+02 -0.10443792595E+03  0.12697999074E+03  0.16698962392E+03  0.00000000000E+00 0.  1.
         21    1    1    2  505  504  0.30492223451E+02  0.24680830528E+02 -0.25581483091E+03  0.25880522947E+03  0.00000000000E+00 0. -1.
          2    1    1    2  501    0  0.18887283593E+02 -0.10719233620E+03 -0.91807294657E+03  0.92450249413E+03  0.00000000000E+00 0.  1.
<scales pt_clust_3="14000.00000" pt_clust_4="179.07981" pt_clust_5="39.22906" pt_clust_6="96.32005"></scales>
<clustering>
<clus scale="   39.229">  2  5  1 -1</clus>
<clus scale="   96.320">  2  6  1 -1</clus>
<clus scale="  179.080">  2  4  1 -1</clus>
<clus scale="  179.080">  1  3  2 -1</clus>
</clustering>
</event>
<event>
 6    0  0.1631680E+002  0.2596923E+03  0.7546771E-02  0.1107328E+00
          2   -1    0    0  504    0 -0.00000000000E+00  0.00000000000E+00  0.24090283945E+04  0.24090283945E+04  0.00000000000E+00 0. -1.
         21   -1    0    0  501  502  0.00000000000E+00 -0.00000000000E+00 -0.16981371055E+03  0.16981371055E+03  0.00000000000E+00 0. -1.
         21    1    1    2  503  502 -0.14384201496E+03 -0.40643194941E+02 -0.10877241336E+02  0.14986897258E+03  0.00000000000E+00 0. -1.
         21    1    1    2  504  505 -0.32933298915E+02  0.17534817435E+02  0.46204452880E+03  0.46354850727E+03  0.00000000000E+00 0. -1.
         21    1    1    2  505  503 -0.38277662223E+02 -0.98579609650E+02 -0.45629254772E+02  0.11517442318E+03  0.00000000000E+00 0. -1.
          2    1    1    2  501    0  0.21505297609E+03  0.12168798716E+03  0.18336766513E+04  0.18502502020E+04  0.00000000000E+00 0. -1.
<scales pt_clust_3="100.93796" pt_clust_4="37.31048" pt_clust_5="100.93796" pt_clust_6="230.07747"></scales>
<clustering>
<clus scale="   37.310">  1  4  2 -1</clus>
<clus scale="  100.938">  3  5 -1 -1</clus>
<clus scale="  230.077">  1  6  2 -1</clus>
<clus scale="  259.692">  2  3  1 -1</clus>
</clustering>
</event>
<event>
 6    0  0.1631680E+002  0.8830762E+02  0.7546771E-02  0.1307003E+00
          2   -1    0    0  504    0 -0.00000000000E+00  0.00000000000E+00  0.57974458034E+03  0.57974458034E+03  0.00000000000E+00 0. -1.
         21   -1    0    0  505  502  0.00000000000E+00 -0.00000000000E+00 -0.20978273589E+03  0.20978273589E+03  0.00000000000E+00 0.  1.
         21    1    1    2  503  502  0.31387596501E+02 -0.33584717251E+02 -0.64861947538E+02  0.79499601794E+02  0.00000000000E+00 0. -1.
         21    1    1    2  504  503 -0.11887267579E+02  0.54804112930E+02  0.19969064337E+03  0.20741540679E+03  0.00000000000E+00 0. -1.
         21    1    1    2  505  501 -0.97402926733E+02 -0.27626554349E+02 -0.10955410345E+03  0.14917324902E+03  0.00000000000E+00 0.  1.
          2    1    1    2  501    0  0.77902597811E+02  0.64071586700E+01  0.34468725206E+03  0.35343905862E+03  0.00000000000E+00 0. -1.
<scales pt_clust_3="45.96862" pt_clust_4="54.97444" pt_clust_5="14000.00000" pt_clust_6="88.30762"></scales>
<clustering>
<clus scale="   45.969">  2  3  1 -1</clus>
<clus scale="   54.974">  1  4  2 -1</clus>
<clus scale="   88.308">  1  6  2 -1</clus>
<clus scale="   45.969">  2  3  1 -1</clus>
</clustering>
</event>
<event>
 6    0  0.1631680E+002  0.1105325E+03  0.7546771E-02  0.1259587E+00
         21   -1    0    0  504  502  0.00000000000E+00  0.00000000000E+00  0.33284594545E+03  0.33284594545E+03  0.00000000000E+00 0.  1.
         -1   -1    0    0    0  501 -0.00000000000E+00 -0.00000000000E+00 -0.63605894896E+03  0.63605894896E+03  0.00000000000E+00 0.  1.
         21    1    1    2  503  502  0.32902039858E+02  0.28385483955E+02  0.26935360513E+03  0.27283629620E+03  0.00000000000E+00 0.  1.
         21    1    1    2  504  501  0.54216666141E+02 -0.41195762039E+02  0.18845236290E+02  0.70651826786E+02  0.00000000000E+00 0.  1.
         21    1    1    2  505  503  0.16452753010E+01 -0.63229030932E+02 -0.86528800663E+02  0.10718139124E+03  0.00000000000E+00 0.  1.
         -1    1    1    2    0  505 -0.88763981300E+02  0.76039309016E+02 -0.50488304427E+03  0.51823538019E+03  0.00000000000E+00 0.  1.
<scales pt_clust_3="43.45434" pt_clust_4="110.53253" pt_clust_5="58.91740" pt_clust_6="14000.00000"></scales>
<clustering>
<clus scale="   43.454">  1  3  2 -1</clus>
<clus scale="   58.917">  1  5  2 -1</clus>
<clus scale="  110.533">  1  4  2 -1</clus>
<clus scale="   43.454">  1  3  2 -1</clus>
</clustering>
</event>
<event>
 6    0  0.1631680E+002  0.1656286E+03  0.7546771E-02  0.1182485E+00
         21   -1    0    0  505  502  0.00000000000E+00  0.00000000000E+00  0.13794021262E+04  0.13794021262E+04  0.00000000000E+00 0. -1.
         -3   -1    0    0    0  501 -0.00000000000E+00 -0.00000000000E+00 -0.58282721943E+03  0.58282721943E+03  0.00000000000E+00 0. -1.
         21    1    1    2  503  501  0.33335117341E+02  0.11883510316E+02 -0.30540790896E+02  0.46745992065E+02  0.00000000000E+00 0.  1.
         21    1    1    2  504  502 -0.93843832933E+02  0.94921282989E+02 -0.12175436683E+03  0.18066776355E+03  0.00000000000E+00 0. -1.
         21    1    1    2  505  503 -0.27066604810E+01 -0.16809932590E+03  0.13315574547E+04  0.13421288927E+04  0.00000000000E+00 0. -1.
         -3    1    1    2    0  504  0.63215376074E+02  0.61294532592E+02 -0.38268739031E+03  0.39268669725E+03  0.00000000000E+00 0. -1.
<scales pt_clust_3="35.38994" pt_clust_4="14000.00000" pt_clust_5="165.62865" pt_clust_6="111.48662"></scales>
<clustering>
<clus scale="   35.390">  2  3  1 -1</clus>
<clus scale="  111.487">  2  6  1 -1</clus>
<clus scale="  165.629">  1  5  2 -1</clus>
<clus scale="  165.629">  1  3  2 -1</clus>
</clustering>
</event>
<event>
 6    0  0.1631680E+002  0.9789429E+02  0.7546771E-02  0.1284787E+00
          2   -1    0    0  504    0 -0.00000000000E+00  0.00000000000E+00  0.59996282430E+02  0.59996282430E+02  0.00000000000E+00 0.  1.
         21   -1    0    0  505  502  0.00000000000E+00 -0.00000000000E+00 -0.67610031602E+03  0.67610031602E+03  0.00000000000E+00 0. -1.
         21    1    1    2  503  502  0.70850810100E+02  0.10456698292E+03 -0.43490310621E+03  0.45287393721E+03  0.00000000000E+00 0. -1.
         21    1    1    2  504  503  0.20369569892E+02 -0.42204682770E+02 -0.56119973466E+02  0.73113651579E+02  0.00000000000E+00 0. -1.
         21    1    1    2  505  501 -0.11504641132E+02 -0.29890764508E+02 -0.11964969744E+03  0.12386228105E+03  0.00000000000E+00 0.  1.
          2    1    1    2  501    0 -0.79715738861E+02 -0.32471535637E+02 -0.54312564698E+01  0.86246728608E+02  0.00000000000E+00 0.  1.
<scales pt_clust_3="14000.00000" pt_clust_4="49.49302" pt_clust_5="32.02834" pt_clust_6="97.89429"></scales>
<clustering>
<clus scale="   32.028">  2  5  1 -1</clus>
<clus scale="   49.493">  1  4  2 -1</clus>
<clus scale="   97.894">  1  6  2 -1</clus>
<clus scale="   32.028">  2  3  1 -1</clus>
</clustering>
</event>
<event>
 6    0  0.1631680E+002  0.1644689E+03  0.7546771E-02  0.1183742E+00
          2   -1    0    0  504    0 -0.00000000000E+00  0.00000000000E+00  0.39513552778E+04  0.39513552778E+04  0.00000000000E+00 0. -1.
         21   -1    0    0  505  502  0.00000000000E+00 -0.00000000000E+00 -0.36558828738E+02  0.36558828738E+02  0.00000000000E+00 0.  1.
         21    1    1    2  503  502  0.16567657469E+02 -0.26446599902E+02  0.57819939807E+02  0.65704302444E+02  0.00000000000E+00 0. -1.
         21    1    1    2  504  503  0.22005203463E+02  0.26349176670E+02  0.21228159941E+03  0.21503949763E+03  0.00000000000E+00 0. -1.
         21    1    1    2  505  501  0.14633288045E+03 -0.24636721666E+01  0.15722145258E+03  0.21479750169E+03  0.00000000000E+00 0.  1.
          2    1    1    2  501    0 -0.18490574138E+03  0.25610953988E+01  0.34874734573E+04  0.34923728048E+04  0.00000000000E+00 0. -1.
<scales pt_clust_3="31.20753" pt_clust_4="33.94339" pt_clust_5="164.46888" pt_clust_6="14000.00000"></scales>
<clustering>
<clus scale="   31.208">  2  3  1 -1</clus>
<clus scale="   33.943">  1  4  2 -1</clus>
<clus scale="  164.469">  2  5  1 -1</clus>
<clus scale="   31.208">  2  3  1 -1</clus>
</clustering>
</event>
<event>
 6    0  0.1631680E+002  0.9648615E+02  0.7546771E-02  0.1287864E+00
          2   -1    0    0  503    0 -0.00000000000E+00  0.00000000000E+00  0.12256090418E+03  0.12256090418E+03  0.00000000000E+00 0. -1.
         21   -1    0    0  505  502  0.00000000000E+00 -0.00000000000E+00 -0.42350418409E+03  0.42350418409E+03  0.00000000000E+00 0.  1.
         21    1    1    2  503  502  0.88266811090E+01 -0.39004270217E+02  0.12282050348E+01  0.40009397423E+02  0.00000000000E+00 0.  1.
         21    1    1    2  504  501  0.65541585134E+02  0.22565597832E+02 -0.67303443462E+02  0.96616039503E+02  0.00000000000E+00 0. -1.
         21    1    1    2  505  504 -0.11804811166E+03 -0.88913245903E+01 -0.30261465410E+03  0.32494621277E+03  0.00000000000E+00 0.  1.
          2    1    1    2  501    0  0.43679845413E+02  0.25329996975E+02  0.67746612613E+02  0.84493438577E+02  0.00000000000E+00 0. -1.
<scales pt_clust_3="39.99054" pt_clust_4="96.48615" pt_clust_5="14000.00000" pt_clust_6="50.41371"></scales>
<clustering>
<clus scale="   39.991">  1  3  2 -1</clus>
<clus scale="   50.414">  1  6  2 -1</clus>
<clus scale="   96.486">  1  4  2 -1</clus>
<clus scale="   96.486">  2  3  1 -1</clus>
</clustering>
</event>
<event>
 6    0  0.1631680E+002  0.1024530E+03  0.7546771E-02  0.1275221E+00
         21   -1    0    0  503  502  0.00000000000E+00  0.00000000000E+00  0.11043741245E+04  0.11043741245E+04  0.00000000000E+00 0. -1.
          3   -1    0    0  505    0 -0.00000000000E+00 -0.00000000000E+00 -0.39998799030E+03  0.39998799030E+03  0.00000000000E+00 0. -1.
         21    1    1    2  503  501 -0.13972716508E+03  0.71468512099E+01  0.29561778069E+03  0.32705447620E+03  0.00000000000E+00 0. -1.
         21    1    1    2  504  502  0.80783606287E+02 -0.56029348641E+02  0.77091448406E+03  0.77715791232E+03  0.00000000000E+00 0. -1.
         21    1    1    2  505  504  0.58121644718E+01  0.30187608429E+02  0.28124457017E+01  0.30870419649E+02  0.00000000000E+00 0. -1.
          3    1    1    2  501    0  0.53131394318E+02  0.18694889003E+02 -0.36495857624E+03  0.36927930663E+03  0.00000000000E+00 0. -1.
<scales pt_clust_3="14000.00000" pt_clust_4="102.45299" pt_clust_5="30.74204" pt_clust_6="75.42270"></scales>
<clustering>
<clus scale="   30.742">  2  5  1 -1</clus>
<clus scale="   75.423">  2  6  1 -1</clus>
<clus scale="  102.453">  1  4  2 -1</clus>
<clus scale="  102.453">  1  3  2 -1</clus>
</clustering>
</event>
<event>
 6    0  0.1631680E+002  0.7333723E+02  0.7546771E-02  0.1349099E+00
          1   -1    0    0  505    0 -0.00000000000E+00  0.00000000000E+00  0.17587882076E+04  0.17587882076E+04  0.00000000000E+00 0. -1.
         21   -1    0    0  501  502  0.00000000000E+00 -0.00000000000E+00 -0.28491143052E+02  0.28491143052E+02  0.00000000000E+00 0.  1.
         21    1    1    2  503  504 -0.27121819049E+01  0.11559631135E+03  0.18031802370E+03  0.21420656572E+03  0.00000000000E+00 0.  1.
         21    1    1    2  504  502  0.33696613022E+02 -0.43739014862E+02  0.83582426155E+02  0.10017277630E+03  0.00000000000E+00 0.  1.
         21    1    1    2  505  503  0.25067615728E+02 -0.53402242861E+02  0.34936707396E+03  0.35431276758E+03  0.00000000000E+00 0. -1.
          1    1    1    2  501    0 -0.56052046845E+02 -0.18455053628E+02  0.11170295407E+04  0.11185872410E+04  0.00000000000E+00 0. -1.
<scales pt_clust_3="73.33723" pt_clust_4="55.21379" pt_clust_5="14000.00000" pt_clust_6="58.33982"></scales>
<clustering>
<clus scale="   55.214">  2  4  1 -1</clus>
<clus scale="   58.340">  1  6  2 -1</clus>
<clus scale="   73.337">  2  3  1 -1</clus>
<clus scale="   55.214">  2  3  1 -1</clus>
</clustering>
</event>
<event>
 6    0  0.1631680E+002  0.1081307E+03  0.7546771E-02  0.1264071E+00
         21   -1    0    0  503  502  0.00000000000E+00  0.00000000000E+00  0.74131740128E+02  0.74131740128E+02  0.00000000000E+00 0. -1.
         -1   -1    0    0    0  501 -0.00000000000E+00 -0.00000000000E+00 -0.37866626259E+03  0.37866626259E+03  0.00000000000E+00 0. -1.
         21    1    1    2  503  505  0.25890124367E+02  0.27422557871E+02  0.17503515815E+02  0.41577256834E+02  0.00000000000E+00 0. -1.
         21    1    1    2  504  502  0.45745362872E+01 -0.30760439399E+02 -0.15546705603E+02  0.34768248005E+02  0.00000000000E+00 0. -1.
         21    1    1    2  505  501  0.86593806149E+02 -0.32939285521E+02 -0.99907445584E+02  0.13625337235E+03  0.00000000000E+00 0. -1.
         -1    1    1    2    0  504 -0.11705846680E+03  0.36277167049E+02 -0.20658388709E+03  0.24019912553E+03  0.00000000000E+00 0. -1.
<scales pt_clust_3="31.00108" pt_clust_4="31.09873" pt_clust_5="14000.00000" pt_clust_6="108.13065"></scales>
<clustering>
<clus scale="   31.099">  1  4  2 -1</clus>
<clus scale="   31.001">  1  3  2 -1</clus>
<clus scale="  108.131">  2  6  1 -1</clus>
<clus scale="   31.099">  1  3  2 -1</clus>
</clustering>
</event>
<event>
 6    0  0.1631680E+002  0.1564995E+03  0.7546771E-02  0.1192706E+00
         21   -1    0    0  501  502  0.00000000000E+00  0.00000000000E+00  0.16871817525E+03  0.16871817525E+03  0.00000000000E+00 0. -1.
          1   -1    0    0  503    0 -0.00000000000E+00 -0.00000000000E+00 -0.15434661415E+04  0.15434661415E+04  0.00000000000E+00 0. -1.
         21    1    1    2  503  505 -0.30018463197E+02 -0.36134161927E+02 -0.90529717082E+03  0.90651516991E+03  0.00000000000E+00 0. -1.
         21    1    1    2  504  502  0.40282207562E+02 -0.17553834463E+02  0.23776780733E+02  0.49961271526E+02  0.00000000000E+00 0.  1.
         21    1    1    2  505  504 -0.18683656774E+03  0.46060421486E+02  0.37741852213E+02  0.19609669268E+03  0.00000000000E+00 0. -1.
          1    1    1    2  501    0  0.17657282338E+03  0.76275749043E+01 -0.53096942835E+03  0.55961118261E+03  0.00000000000E+00 0. -1.
<scales pt_clust_3="46.92032" pt_clust_4="43.94079" pt_clust_5="14000.00000" pt_clust_6="156.49951"></scales>
<clustering>
<clus scale="   43.941">  1  4  2 -1</clus>
<clus scale="   46.920">  2  3  1 -1</clus>
<clus scale="  156.500">  2  6  1 -1</clus>
<clus scale="   43.941">  1  3  2 -1</clus>
</clustering>
</event>
<event>
 6    0  0.1631680E+002  0.1790200E+03  0.7546771E-02  0.1168755E+00
          1   -1    0    0  505    0 -0.00000000000E+00  0.00000000000E+00  0.31258793378E+04  0.31258793378E+04  0.00000000000E+00 0. -1.
         21   -1    0    0  503  502  0.00000000000E+00 -0.00000000000E+00 -0.20440596973E+03  0.20440596973E+03  0.00000000000E+00 0. -1.
         21    1    1    2  503  501 -0.34834757343E+02  0.18083319502E+02 -0.24492319308E+02  0.46263813813E+02  0.00000000000E+00 0.  1.
         21    1    1    2  504  502  0.87179856364E+02 -0.18938236921E+03 -0.98790054189E+02  0.23070648870E+03  0.00000000000E+00 0. -1.
         21    1    1    2  505  504  0.36555885767E+02  0.47389707311E+02  0.43379515900E+03  0.43790450685E+03  0.00000000000E+00 0.  1.
          1    1    1    2  501    0 -0.88900984788E+02  0.12390934240E+03  0.26109605826E+04  0.26154104982E+04  0.00000000000E+00 0. -1.
<scales pt_clust_3="39.24878" pt_clust_4="14000.00000" pt_clust_5="59.76805" pt_clust_6="179.02001"></scales>
<clustering>
<clus scale="   39.249">  2  3  1 -1</clus>
<clus scale="   59.768">  1  5  2 -1</clus>
<clus scale="  179.020">  1  6  2 -1</clus>
<clus scale="   39.249">  2  3  1 -1</clus>
</clustering>
</event>
<event>
 6    0  0.1631680E+002  0.2504619E+03  0.7546771E-02  0.1113013E+00
          2   -1    0    0  503    0 -0.00000000000E+00  0.00000000000E+00  0.18067744699E+04  0.18067744699E+04  0.00000000000E+00 0. -1.
         21   -1    0    0  504  502  0.00000000000E+00 -0.00000000000E+00 -0.13802351916E+03  0.13802351916E+03  0.00000000000E+00 0.  1.
         21    1    1    2  503  505 -0.11633846773E+02  0.35019898981E+02  0.28151064986E+03  0.28391897735E+03  0.00000000000E+00 0. -1.
         21    1    1    2  504  501  0.30381309273E+02 -0.27249065114E+02 -0.64716686620E+02  0.76510032217E+02  0.00000000000E+00 0.  1.
         21    1    1    2  505  502  0.98344183020E+02  0.23411895066E+03  0.26365012328E+03  0.36605279523E+03  0.00000000000E+00 0.  1.
          2    1    1    2  501    0 -0.11709164552E+03 -0.24188978452E+03  0.11883068643E+04  0.12183161843E+04  0.00000000000E+00 0. -1.
<scales pt_clust_3="36.90176" pt_clust_4="40.68706" pt_clust_5="14000.00000" pt_clust_6="250.46189"></scales>
<clustering>
<clus scale="   36.902">  1  3  2 -1</clus>
<clus scale="   40.687">  2  4  1 -1</clus>
<clus scale="  250.462">  1  6  2 -1</clus>
<clus scale="   40.687">  2  3  1 -1</clus>
</clustering>
</event>
<event>
 6    0  0.1631680E+002  0.1083747E+03  0.7546771E-02  0.1263610E+00
          2   -1    0    0  505    0 -0.00000000000E+00  0.00000000000E+00  0.19502541040E+04  0.19502541040E+04  0.00000000000E+00 0. -1.
         21   -1    0    0  501  502  0.00000000000E+00 -0.00000000000E+00 -0.41644663689E+03  0.41644663689E+03  0.00000000000E+00 0. -1.
         21    1    1    2  503  502  0.14986685900E+02  0.11351364610E+03 -0.37880767213E+03  0.39573375023E+03  0.00000000000E+00 0. -1.
         21    1    1    2  504  503 -0.56282608043E+02 -0.56301056784E+02  0.34481687670E+02  0.86755563209E+02  0.00000000000E+00 0. -1.
         21    1    1    2  505  504  0.54894604804E+02  0.29861441485E+02  0.69790204765E+03  0.70069422107E+03  0.00000000000E+00 0. -1.
          2    1    1    2  501    0 -0.13598682661E+02 -0.87074030806E+02  0.11802314039E+04  0.11835172064E+04  0.00000000000E+00 0. -1.
<scales pt_clust_3="14000.00000" pt_clust_4="108.37470" pt_clust_5="62.49099" pt_clust_6="70.20585"></scales>
<clustering>
<clus scale="   62.491">  1  5  2 -1</clus>
<clus scale="   70.206">  1  6  2 -1</clus>
<clus scale="  108.375">  1  4  2 -1</clus>
<clus scale="  108.375">  2  3  1 -1</clus>
</clustering>
</event>
<event>
 6    0  0.1631680E+002  0.9328691E+02  0.7546771E-02  0.1295082E+00
         21   -1    0    0  503  502  0.00000000000E+00  0.00000000000E+00  0.28124962128E+02  0.28124962128E+02  0.00000000000E+00 0. -1.
          2   -1    0    0  505    0 -0.00000000000E+00 -0.00000000000E+00 -0.45272359939E+04  0.45272359939E+04  0.00000000000E+00 0. -1.
         21    1    1    2  503  501 -0.26877848668E+02 -0.10634117622E+03 -0.38148868586E+03  0.39694392797E+03  0.00000000000E+00 0. -1.
         21    1    1    2  504  502  0.14553951896E+02  0.31331882756E+02 -0.12466074787E+01  0.34569617050E+02  0.00000000000E+00 0.  1.
         21    1    1    2  505  504 -0.72436076263E+02 -0.27421167525E+02 -0.27330650125E+04  0.27341622608E+04  0.00000000000E+00 0. -1.
          2    1    1    2  501    0  0.84759973035E+02  0.10243046099E+03 -0.13833107258E+04  0.13896851502E+04  0.00000000000E+00 0. -1.
<scales pt_clust_3="93.28691" pt_clust_4="34.54713" pt_clust_5="76.27906" pt_clust_6="14000.00000"></scales>
<clustering>
<clus scale="   34.547">  1  4  2 -1</clus>
<clus scale="   76.279">  2  5  1 -1</clus>
<clus scale="   93.287">  1  3  2 -1</clus>
<clus scale="   34.547">  1  3  2 -1</clus>
</clustering>
</event>
<event>
 6    0  0.1631680E+002  0.1223140E+03  0.7546771E-02  0.1239328E+00
         21   -1    0    0  503  502  0.00000000000E+00  0.00000000000E+00  0.22627262479E+03  0.22627262479E+03  0.00000000000E+00 0. -1.
          2   -1    0    0  505    0 -0.00000000000E+00 -0.00000000000E+00 -0.23991816502E+04  0.23991816502E+04  0.00000000000E+00 0.  1.
         21    1    1    2  503  504 -0.34762452257E+02 -0.17026289840E+02  0.20967199096E+03  0.21321507082E+03  0.00000000000E+00 0. -1.
         21    1    1    2  504  501  0.16558279258E+01 -0.72189570796E+02 -0.10126557588E+04  0.10152269509E+04  0.00000000000E+00 0.  1.
         21    1    1    2  505  502  0.57219055369E+02  0.12604292966E+03 -0.35351757434E+03  0.37965183495E+03  0.00000000000E+00 0.  1.
          2    1    1    2  501    0 -0.24112431038E+02 -0.36827069022E+02 -0.10164076832E+04  0.10173604183E+04  0.00000000000E+00 0.  1.
<scales pt_clust_3="38.70817" pt_clust_4="34.24763" pt_clust_5="114.17827" pt_clust_6="34.24763"></scales>
<clustering>
<clus scale="   34.248">  4  6 -1 -1</clus>
<clus scale="   38.708">  1  3  2 -1</clus>
<clus scale="  114.178">  1  5  2 -1</clus>
<clus scale="   38.708">  1  3  2 -1</clus>
</clustering>
</event>
<event>
 6    0  0.1631680E+002  0.8192678E+02  0.7546771E-02  0.1323671E+00
          2   -1    0    0  503    0 -0.00000000000E+00  0.00000000000E+00  0.18400588056E+04  0.18400588056E+04  0.00000000000E+00 0. -1.
         21   -1    0    0  501  502  0.00000000000E+00 -0.00000000000E+00 -0.66455118365E+02  0.66455118365E+02  0.00000000000E+00 0.  1.
         21    1    1    2  503  504  0.32528196587E+02 -0.42960272538E+01  0.93629868858E+03  0.93687340322E+03  0.00000000000E+00 0. -1.
         21    1    1    2  504  505 -0.93291186847E+02 -0.12881580304E+01  0.39008911600E+02  0.10112665365E+03  0.00000000000E+00 0.  1.
         21    1    1    2  505  502  0.32810806407E+02  0.63467302812E+02  0.39336901023E+01  0.71555024011E+02  0.00000000000E+00 0.  1.
          2    1    1    2  501    0  0.27952183852E+02 -0.57883117528E+02  0.79436239700E+03  0.79695884313E+03  0.00000000000E+00 0. -1.
<scales pt_clust_3="32.81066" pt_clust_4="14000.00000" pt_clust_5="71.92301" pt_clust_6="81.92678"></scales>
<clustering>
<clus scale="   32.811">  1  3  2 -1</clus>
<clus scale="   71.923">  2  5  1 -1</clus>
<clus scale="   81.927">  1  6  2 -1</clus>
<clus scale="   71.923">  2  3  1 -1</clus>
</clustering>
</event>
<event>
 6    0  0.1631680E+002  0.8286236E+02  0.7546771E-02  0.1321119E+00
         -2   -1    0    0    0  501 -0.00000000000E+00  0.00000000000E+00  0.13294730260E+04  0.13294730260E+04  0.00000000000E+00 0.  1.
         21   -1    0    0  505  502  0.00000000000E+00 -0.00000000000E+00 -0.45807501161E+03  0.45807501161E+03  0.00000000000E+00 0.  1.
         21    1    1    2  503  502 -0.20943554853E+02 -0.53968955714E+02 -0.26440669277E+03  0.27066987245E+03  0.00000000000E+00 0.  1.
         21    1    1    2  504  503  0.95728748204E+02 -0.33206227984E+02  0.10747936754E+03  0.14771073508E+03  0.00000000000E+00 0. -1.
         21    1    1    2  505  501 -0.93237616701E+01  0.37977352496E+02 -0.16675805436E+03  0.17128181610E+03  0.00000000000E+00 0.  1.
         -2    1    1    2    0  504 -0.65461431681E+02  0.49197831201E+02  0.11950833940E+04  0.11978856140E+04  0.00000000000E+00 0.  1.
<scales pt_clust_3="35.05306" pt_clust_4="14000.00000" pt_clust_5="39.10514" pt_clust_6="82.86236"></scales>
<clustering>
<clus scale="   39.105">  2  5  1 -1</clus>
<clus scale="   35.053">  2  3  1 -1</clus>
<clus scale="   82.862">  1  6  2 -1</clus>
<clus scale="   39.105">  2  3  1 -1</clus>
</clustering>
</event>
<event>
 6    0  0.1631680E+002  0.6568155E+02  0.7546771E-02  0.1375426E+00
          2   -1    0    0  504    0 -0.00000000000E+00  0.00000000000E+00  0.23928590635E+04  0.23928590635E+04  0.00000000000E+00 0. -1.
         21   -1    0    0  505  502  0.00000000000E+00 -0.00000000000E+00 -0.36402156681E+02  0.36402156681E+02  0.00000000000E+00 0.  1.
         21    1    1    2  503  502 -0.45901048464E+02  0.45220516508E+02  0.11136949121E+03  0.12866609863E+03  0.00000000000E+00 0.  1.
         21    1    1    2  504  503  0.24854999701E+02 -0.65363662865E+02  0.27165753973E+03  0.28051381129E+03  0.00000000000E+00 0.  1.
         21    1    1    2  505  501  0.81577781151E+02  0.43932606405E+02  0.71488580262E+02  0.11702831021E+03  0.00000000000E+00 0.  1.
          2    1    1    2  501    0 -0.60531732387E+02 -0.23789460049E+02  0.19019412956E+04  0.19030530000E+04  0.00000000000E+00 0. -1.
<scales pt_clust_3="64.43447" pt_clust_4="60.73406" pt_clust_5="14000.00000" pt_clust_6="65.68155"></scales>
<clustering>
<clus scale="   64.434">  2  3  1 -1</clus>
<clus scale="   60.734">  2  4  1 -1</clus>
<clus scale="   65.682">  1  6  2 -1</clus>
<clus scale="   64.434">  2  3  1 -1</clus>
</clustering>
</event>
<event>
 6    0  0.1631680E+002  0.8232536E+02  0.7546771E-02  0.1322579E+00
         21   -1    0    0  504  502  0.00000000000E+00  0.00000000000E+00  0.81614835076E+02  0.81614835076E+02  0.00000000000E+00 0.  1.
          4   -1    0    0  503    0 -0.00000000000E+00 -0.00000000000E+00 -0.63381713035E+03  0.63381713035E+03  0.00000000000E+00 0.  1.
         21    1    1    2  503  505  0.49961086197E+01  0.33321370841E+02 -0.37287755672E+03  0.37439677771E+03  0.00000000000E+00 0.  1.
         21    1    1    2  504  501  0.24607510973E+02  0.56408997695E+02 -0.33300858292E+02  0.69974650983E+02  0.00000000000E+00 0.  1.
         21    1    1    2  505  502  0.59969591840E+02 -0.69887577941E+02  0.73051161604E+01  0.92379598494E+02  0.00000000000E+00 0.  1.
          4    1    1    2  501    0 -0.89573211433E+02 -0.19842790595E+02 -0.15332899642E+03  0.17868093824E+03  0.00000000000E+00 0.  1.
<scales pt_clust_3="33.69384" pt_clust_4="68.02293" pt_clust_5="14000.00000" pt_clust_6="82.32536"></scales>
<clustering>
<clus scale="   33.694">  2  3  1 -1</clus>
<clus scale="   68.023">  1  4  2 -1</clus>
<clus scale="   82.325">  2  6  1 -1</clus>
<clus scale="   68.023">  1  3  2 -1</clus>
</clustering>
</event>
<event>
 6    0  0.1631680E+002  0.1979726E+03  0.7546771E-02  0.1151461E+00
          2   -1    0    0  505    0 -0.00000000000E+00  0.00000000000E+00  0.91745107397E+03  0.91745107397E+03  0.00000000000E+00 0.  1.
         21   -1    0    0  504  502  0.00000000000E+00 -0.00000000000E+00 -0.13860132146E+03  0.13860132146E+03  0.00000000000E+00 0.  1.
         21    1    1    2  503  502  0.18857115561E+03  0.87785624987E+02  0.94500405836E+01  0.20821791457E+03  0.00000000000E+00 0.  1.
         21    1    1    2  504  501 -0.35082135739E+02  0.18890484208E+02  0.26552655168E+02  0.47881626310E+02  0.00000000000E+00 0. -1.
         21    1    1    2  505  503  0.84593781214E+01  0.62168912814E+02  0.16664110957E+03  0.17806120913E+03  0.00000000000E+00 0.  1.
          2    1    1    2  501    0 -0.16194839799E+03 -0.16884502201E+03  0.57620594719E+03  0.62189164542E+03  0.00000000000E+00 0.  1.
<scales pt_clust_3="14000.00000" pt_clust_4="39.84478" pt_clust_5="63.38799" pt_clust_6="197.97263"></scales>
<clustering>
<clus scale="   39.845">  2  4  1 -1</clus>
<clus scale="   63.388">  1  5  2 -1</clus>
<clus scale="  197.973">  1  6  2 -1</clus>
<clus scale="   39.845">  2  3  1 -1</clus>
</clustering>
</event>
<event>
 6    0  0.1631680E+002  0.8686240E+02  0.7546771E-02  0.1310633E+00
         21   -1    0    0  505  502  0.00000000000E+00  0.00000000000E+00  0.58759112388E+02  0.58759112388E+02  0.00000000000E+00 0. -1.
          2   -1    0    0  503    0 -0.00000000000E+00 -0.00000000000E+00 -0.19266494276E+04  0.19266494276E+04  0.00000000000E+00 0. -1.
         21    1    1    2  503  502  0.11408837173E+02 -0.39098686137E+02 -0.24195310283E+03  0.24535723505E+03  0.00000000000E+00 0. -1.
         21    1    1    2  504  501 -0.11181781068E+03  0.40486679568E+02 -0.66587065312E+02  0.13629464874E+03  0.00000000000E+00 0. -1.
         21    1    1    2  505  504  0.31929716304E+02 -0.72963841957E+02 -0.56510409871E+02  0.97655800852E+02  0.00000000000E+00 0. -1.
          2    1    1    2  501    0  0.68479257206E+02  0.71575848525E+02 -0.15028397372E+04  0.15061008554E+04  0.00000000000E+00 0. -1.
<scales pt_clust_3="40.72921" pt_clust_4="14000.00000" pt_clust_5="81.49479" pt_clust_6="86.86240"></scales>
<clustering>
<clus scale="   40.729">  2  3  1 -1</clus>
<clus scale="   81.495">  1  5  2 -1</clus>
<clus scale="   86.862">  2  6  1 -1</clus>
<clus scale="   81.495">  1  3  2 -1</clus>
</clustering>
</event>
<event>
 6    0  0.1631680E+002  0.1102087E+03  0.7546771E-02  0.1260184E+00
         -3   -1    0    0    0  501 -0.00000000000E+00  0.00000000000E+00  0.77145410702E+03  0.77145410702E+03  0.00000000000E+00 0. -1.
         21   -1    0    0  505  502  0.00000000000E+00 -0.00000000000E+00 -0.36061584147E+03  0.36061584147E+03  0.00000000000E+00 0. -1.
         21    1    1    2  503  501 -0.76364187996E+01  0.29968430798E+02  0.17167298623E+02  0.35371427432E+02  0.00000000000E+00 0. -1.
         21    1    1    2  504  503 -0.13121543525E+03 -0.74697699685E+02  0.25256917065E+02  0.15308542924E+03  0.00000000000E+00 0. -1.
         21    1    1    2  505  504  0.30629092720E+02  0.51704472615E+02 -0.27990641111E+03  0.28628498527E+03  0.00000000000E+00 0. -1.
         -3    1    1    2    0  502  0.10822276133E+03 -0.69752037276E+01  0.64832046098E+03  0.65732810655E+03  0.00000000000E+00 0. -1.
<scales pt_clust_3="30.92607" pt_clust_4="110.20874" pt_clust_5="60.18947" pt_clust_6="14000.00000"></scales>
<clustering>
<clus scale="   30.926">  1  3  2 -1</clus>
<clus scale="   60.189">  2  5  1 -1</clus>
<clus scale="  110.209">  2  4  1 -1</clus>
<clus scale="   60.189">  2  3  1 -1</clus>
</clustering>
</event>
<event>
 6    0  0.1631680E+002  0.9002031E+02  0.7546771E-02  0.1302803E+00
         21   -1    0    0  504  502  0.00000000000E+00  0.00000000000E+00  0.55797819074E+03  0.55797819074E+03  0.00000000000E+00 0. -1.
          1   -1    0    0  505    0 -0.00000000000E+00 -0.00000000000E+00 -0.21146781390E+03  0.21146781390E+03  0.00000000000E+00 0. -1.
         21    1    1    2  503  502  0.76532289866E+02 -0.50761103665E+02  0.46488624139E+03  0.47387033930E+03  0.00000000000E+00 0. -1.
         21    1    1    2  504  501 -0.94069461160E+02 -0.48195775685E+01  0.45068153816E+02  0.10441949214E+03  0.00000000000E+00 0.  1.
         21    1    1    2  505  503  0.38820292845E+02  0.63814763169E+00 -0.49804061539E+02  0.63149559894E+02  0.00000000000E+00 0.  1.
          1    1    1    2  501    0 -0.21283121551E+02  0.54942533602E+02 -0.11363995683E+03  0.12800661330E+03  0.00000000000E+00 0. -1.
<scales pt_clust_3="14000.00000" pt_clust_4="90.02031" pt_clust_5="38.82554" pt_clust_6="56.16245"></scales>
<clustering>
<clus scale="   38.826">  2  5  1 -1</clus>
<clus scale="   56.162">  2  6  1 -1</clus>
<clus scale="   90.020">  2  4  1 -1</clus>
<clus scale="   90.020">  1  3  2 -1</clus>
</clustering>
</event>
<event>
 6    0  0.1774773E+002  0.1073467E+03  0.7546771E-02  0.1265564E+00
         21   -1    0    0  503  502  0.00000000000E+00  0.00000000000E+00  0.90621200429E+03  0.90621200429E+03  0.00000000000E+00 0. -1.
          2   -1    0    0  504    0 -0.00000000000E+00 -0.00000000000E+00 -0.14398269532E+04  0.14398269532E+04  0.00000000000E+00 0. -1.
         21    1    1    2  503  501  0.87398721553E+01 -0.29850976256E+02  0.21024721358E+02  0.37543375672E+02  0.00000000000E+00 0. -1.
         21    1    1    2  504  505 -0.14986124324E+02  0.58680285795E+02 -0.10931939427E+03  0.12497475676E+03  0.00000000000E+00 0.  1.
         21    1    1    2  505  502  0.23551275826E+02  0.13135418442E+03  0.85899155840E+03  0.86929573896E+03  0.00000000000E+00 0. -1.
          2    1    1    2  501    0 -0.17305023658E+02 -0.16018349396E+03 -0.13043118344E+04  0.13142250861E+04  0.00000000000E+00 0. -1.
<scales pt_clust_3="31.10412" pt_clust_4="60.28621" pt_clust_5="107.34672" pt_clust_6="14000.00000"></scales>
<clustering>
<clus scale="   31.104">  1  3  2 -1</clus>
<clus scale="   60.286">  2  4  1 -1</clus>
<clus scale="  107.347">  1  5  2 -1</clus>
<clus scale="   31.104">  1  3  2 -1</clus>
</clustering>
</event>
<event>
 6    0  0.1631680E+002  0.1398279E+03  0.7546771E-02  0.1213561E+00
         21   -1    0    0  504  502  0.00000000000E+00  0.00000000000E+00  0.39222403673E+03  0.39222403673E+03  0.00000000000E+00 0. -1.
          1   -1    0    0  503    0 -0.00000000000E+00 -0.00000000000E+00 -0.12958098762E+04  0.12958098762E+04  0.00000000000E+00 0. -1.
         21    1    1    2  503  505  0.14076174485E+03 -0.33156812640E+02 -0.31733409464E+03  0.34873223347E+03  0.00000000000E+00 0.  1.
         21    1    1    2  504  501  0.23720592799E+02  0.21297097040E+02  0.33922698994E+03  0.34072156311E+03  0.00000000000E+00 0. -1.
         21    1    1    2  505  502 -0.24988973846E+02  0.19305902202E+02  0.23507787970E+02  0.39367280436E+02  0.00000000000E+00 0.  1.
          1    1    1    2  501    0 -0.13949336380E+03 -0.74461866023E+01 -0.94898652277E+03  0.95921283594E+03  0.00000000000E+00 0. -1.
<scales pt_clust_3="139.82786" pt_clust_4="39.48970" pt_clust_5="31.57795" pt_clust_6="14000.00000"></scales>
<clustering>
<clus scale="   31.578">  1  5  2 -1</clus>
<clus scale="   39.490">  1  4  2 -1</clus>
<clus scale="  139.828">  1  3  2 -1</clus>
<clus scale="   31.578">  1  3  2 -1</clus>
</clustering>
</event>
<event>
 6    0  0.1631680E+002  0.1148708E+03  0.7546771E-02  0.1251807E+00
         21   -1    0    0  503  502  0.00000000000E+00  0.00000000000E+00  0.15661273535E+02  0.15661273535E+02  0.00000000000E+00 0. -1.
          1   -1    0    0  504    0 -0.00000000000E+00 -0.00000000000E+00 -0.31679531059E+04  0.31679531059E+04  0.00000000000E+00 0.  1.
         21    1    1    2  503  505 -0.20800593946E+02 -0.62533796986E+02 -0.13233926041E+03  0.14784052326E+03  0.00000000000E+00 0. -1.
         21    1    1    2  504  502  0.41161508168E+02  0.65470089825E+01 -0.94031855958E+03  0.94124180026E+03  0.00000000000E+00 0. -1.
         21    1    1    2  505  501  0.17647135994E+02 -0.46434677755E+02 -0.97829908765E+02  0.10971914945E+03  0.00000000000E+00 0. -1.
          1    1    1    2  501    0 -0.38008050216E+02  0.10242146576E+03 -0.19818041036E+04  0.19848129065E+04  0.00000000000E+00 0.  1.
<scales pt_clust_3="33.34444" pt_clust_4="41.67893" pt_clust_5="33.34444" pt_clust_6="108.26007"></scales>
<clustering>
<clus scale="   33.344">  3  5 -1 -1</clus>
<clus scale="   41.679">  2  4  1 -1</clus>
<clus scale="  108.260">  2  6  1 -1</clus>
<clus scale="  114.871">  1  3  2 -1</clus>
</clustering>
</event>
<event>
 6    0  0.1631680E+002  0.7423917E+02  0.7546771E-02  0.1346243E+00
          3   -1    0    0  504    0 -0.00000000000E+00  0.00000000000E+00  0.30782080212E+03  0.30782080212E+03  0.00000000000E+00 0. -1.
         21   -1    0    0  505  502  0.00000000000E+00 -0.00000000000E+00 -0.11719125910E+03  0.11719125910E+03  0.00000000000E+00 0. -1.
         21    1    1    2  503  502  0.86816862920E+01 -0.51265723703E+02  0.16640765047E+02  0.54593600037E+02  0.00000000000E+00 0. -1.
         21    1    1    2  504  503  0.16456148410E+02 -0.28691324801E+02  0.51464497698E+02  0.61176723210E+02  0.00000000000E+00 0. -1.
         21    1    1    2  505  501  0.62515530097E+02  0.60428685249E+02 -0.60124159682E+02  0.10571060534E+03  0.00000000000E+00 0. -1.
          3    1    1    2  501    0 -0.87653364799E+02  0.19528363255E+02  0.18264843995E+03  0.20353113263E+03  0.00000000000E+00 0. -1.
<scales pt_clust_3="56.41420" pt_clust_4="33.07562" pt_clust_5="74.23917" pt_clust_6="14000.00000"></scales>
<clustering>
<clus scale="   33.076">  1  4  2 -1</clus>
<clus scale="   56.414">  2  3  1 -1</clus>
<clus scale="   74.239">  2  5  1 -1</clus>
<clus scale="   56.414">  2  3  1 -1</clus>
</clustering>
</event>
<event>
 6    0  0.1631680E+002  0.6019811E+02  0.7546771E-02  0.1397002E+00
         -1   -1    0    0    0  501 -0.00000000000E+00  0.00000000000E+00  0.37343842464E+02  0.37343842464E+02  0.00000000000E+00 0. -1.
         21   -1    0    0  504  502  0.00000000000E+00 -0.00000000000E+00 -0.10075104205E+04  0.10075104205E+04  0.00000000000E+00 0.  1.
         21    1    1    2  503  502 -0.51374307720E+02  0.20362999818E+02 -0.43457630455E+03  0.43807594744E+03  0.00000000000E+00 0.  1.
         21    1    1    2  504  505  0.52968002713E+02 -0.45992489955E+02 -0.44522311405E+03  0.45071558629E+03  0.00000000000E+00 0.  1.
         21    1    1    2  505  501  0.12903763802E+02 -0.48314378847E+02 -0.49405614201E+02  0.70297233503E+02  0.00000000000E+00 0. -1.
         -1    1    1    2    0  503 -0.14497458794E+02  0.73943868985E+02 -0.40961545279E+02  0.85765495763E+02  0.00000000000E+00 0. -1.
<scales pt_clust_3="14000.00000" pt_clust_4="60.19811" pt_clust_5="50.00786" pt_clust_6="33.91336"></scales>
<clustering>
<clus scale="   50.008">  1  5  2 -1</clus>
<clus scale="   33.913">  1  6  2 -1</clus>
<clus scale="   60.198">  1  4  2 -1</clus>
<clus scale="   60.198">  2  3  1 -1</clus>
</clustering>
</event>
<event>
 6    0  0.1631680E+002  0.9062763E+02  0.7546771E-02  0.1301339E+00
         21   -1    0    0  501  502  0.00000000000E+00  0.00000000000E+00  0.16110017436E+03  0.16110017436E+03  0.00000000000E+00 0.  1.
          2   -1    0    0  504    0 -0.00000000000E+00 -0.00000000000E+00 -0.33306779058E+04  0.33306779058E+04  0.00000000000E+00 0. -1.
         21    1    1    2  503  505 -0.88472380531E+02  0.96422945887E+01 -0.10513284312E+03  0.13774342331E+03  0.00000000000E+00 0. -1.
         21    1    1    2  504  503 -0.30870969757E+02 -0.65095658942E+02 -0.49505280035E+03  0.50026766507E+03  0.00000000000E+00 0. -1.
         21    1    1    2  505  502  0.44898062358E+02 -0.93631391295E+01  0.13756589663E+03  0.14500993171E+03  0.00000000000E+00 0.  1.
          2    1    1    2  501    0  0.74445287930E+02  0.64816503483E+02 -0.27069579846E+04  0.27087570600E+04  0.00000000000E+00 0. -1.
<scales pt_clust_3="51.55811" pt_clust_4="90.62763" pt_clust_5="45.86398" pt_clust_6="14000.00000"></scales>
<clustering>
<clus scale="   45.864">  1  5  2 -1</clus>
<clus scale="   51.558">  1  3  2 -1</clus>
<clus scale="   90.628">  1  4  2 -1</clus>
<clus scale="   45.864">  1  3  2 -1</clus>
</clustering>
</event>
<event>
 6    0  0.1631680E+002  0.8811209E+02  0.7546771E-02  0.1307489E+00
         21   -1    0    0  504  502  0.00000000000E+00  0.00000000000E+00  0.80674147654E+03  0.80674147654E+03  0.00000000000E+00 0. -1.
          1   -1    0    0  503    0 -0.00000000000E+00 -0.00000000000E+00 -0.79577610454E+03  0.79577610454E+03  0.00000000000E+00 0.  1.
         21    1    1    2  503  505  0.40680908910E+02 -0.65671136844E+01 -0.15478870460E+03  0.16017991885E+03  0.00000000000E+00 0.  1.
         21    1    1    2  504  501 -0.51517501037E+02 -0.27017933600E+02  0.68785890485E+03  0.69031434479E+03  0.00000000000E+00 0. -1.
         21    1    1    2  505  502  0.19458429373E+02 -0.57676869458E+02  0.10331919668E+03  0.11991708864E+03  0.00000000000E+00 0. -1.
          1    1    1    2  501    0 -0.86218372451E+01  0.91261916742E+02 -0.62542402493E+03  0.63210622879E+03  0.00000000000E+00 0.  1.
<scales pt_clust_3="41.20756" pt_clust_4="58.10893" pt_clust_5="88.11209" pt_clust_6="14000.00000"></scales>
<clustering>
<clus scale="   41.208">  2  3  1 -1</clus>
<clus scale="   58.109">  1  4  2 -1</clus>
<clus scale="   88.112">  1  5  2 -1</clus>
<clus scale="   58.109">  1  3  2 -1</clus>
</clustering>
</event>
<event>
 6    0  0.1631680E+002  0.2477979E+03  0.7546771E-02  0.1114704E+00
         -4   -1    0    0    0  501 -0.00000000000E+00  0.00000000000E+00  0.11875214294E+04  0.11875214294E+04  0.00000000000E+00 0. -1.
         21   -1    0    0  505  502  0.00000000000E+00 -0.00000000000E+00 -0.55795907000E+03  0.55795907000E+03  0.00000000000E+00 0.  1.
         21    1    1    2  503  501  0.61755501596E+01 -0.29988360878E+02  0.68384128362E+02  0.74925484448E+02  0.00000000000E+00 0.  1.
         21    1    1    2  504  503 -0.22480620027E+03  0.28357098093E+02 -0.91201626982E+02  0.24425333049E+03  0.00000000000E+00 0.  1.
         21    1    1    2  505  504 -0.18740379555E+02 -0.92014255776E+02 -0.36526986345E+03  0.37714705121E+03  0.00000000000E+00 0.  1.
         -4    1    1    2    0  502  0.23737102967E+03  0.93645518560E+02  0.10176497215E+04  0.10491546333E+04  0.00000000000E+00 0. -1.
<scales pt_clust_3="30.61763" pt_clust_4="14000.00000" pt_clust_5="94.05312" pt_clust_6="247.79792"></scales>
<clustering>
<clus scale="   30.618">  1  3  2 -1</clus>
<clus scale="   94.053">  2  5  1 -1</clus>
<clus scale="  247.798">  1  6  2 -1</clus>
<clus scale="   94.053">  2  3  1 -1</clus>
</clustering>
</event>
<event>
 6    0  0.1631680E+002  0.1167918E+03  0.7546771E-02  0.1248485E+00
          2   -1    0    0  504    0 -0.00000000000E+00  0.00000000000E+00  0.35623161017E+03  0.35623161017E+03  0.00000000000E+00 0. -1.
         21   -1    0    0  505  502  0.00000000000E+00 -0.00000000000E+00 -0.28281982649E+03  0.28281982649E+03  0.00000000000E+00 0. -1.
         21    1    1    2  503  502 -0.14822923791E+02 -0.74783724982E+02 -0.77033562249E+02  0.10838124517E+03  0.00000000000E+00 0. -1.
         21    1    1    2  504  503 -0.35385212669E+01  0.73293601391E+02  0.19814749195E+03  0.21129813464E+03  0.00000000000E+00 0. -1.
         21    1    1    2  505  501  0.79990746988E+02 -0.48532024152E+02 -0.15791513164E+03  0.18355126198E+03  0.00000000000E+00 0. -1.
          2    1    1    2  501    0 -0.61629301930E+02  0.50022147743E+02  0.11021298562E+03  0.13582079487E+03  0.00000000000E+00 0. -1.
<scales pt_clust_3="68.89652" pt_clust_4="73.37897" pt_clust_5="116.79180" pt_clust_6="14000.00000"></scales>
<clustering>
<clus scale="   73.379">  1  4  2 -1</clus>
<clus scale="   68.897">  2  3  1 -1</clus>
<clus scale="  116.792">  2  5  1 -1</clus>
<clus scale="   68.897">  2  3  1 -1</clus>
</clustering>
</event>
<event>
 6    0  0.1631680E+002  0.7710060E+02  0.7546771E-02  0.1337487E+00
          2   -1    0    0  504    0 -0.00000000000E+00  0.00000000000E+00  0.17859960907E+04  0.17859960907E+04  0.00000000000E+00 0. -1.
         21   -1    0    0  505  502  0.00000000000E+00 -0.00000000000E+00 -0.48047505818E+02  0.48047505818E+02  0.00000000000E+00 0.  1.
         21    1    1    2  503  502 -0.13877825236E+02  0.54068857266E+02 -0.64332190849E+01  0.56190939368E+02  0.00000000000E+00 0.  1.
         21    1    1    2  504  503 -0.50293646192E+02 -0.10670371914E+03  0.48455553825E+03  0.49870753370E+03  0.00000000000E+00 0.  1.
         21    1    1    2  505  501  0.71139138493E+02 -0.19500796174E+02  0.15201927955E+03  0.16897017320E+03  0.00000000000E+00 0.  1.
          2    1    1    2  501    0 -0.69676670653E+01  0.72135658046E+02  0.11078069862E+04  0.11101749502E+04  0.00000000000E+00 0. -1.
<scales pt_clust_3="55.82146" pt_clust_4="77.10060" pt_clust_5="64.59355" pt_clust_6="14000.00000"></scales>
<clustering>
<clus scale="   55.821">  2  3  1 -1</clus>
<clus scale="   64.594">  2  5  1 -1</clus>
<clus scale="   77.101">  2  4  1 -1</clus>
<clus scale="   55.821">  2  3  1 -1</clus>
</clustering>
</event>
<event>
 6    0  0.1631680E+002  0.8039439E+02  0.7546771E-02  0.1327936E+00
         21   -1    0    0  501  502  0.00000000000E+00  0.00000000000E+00  0.13945536905E+03  0.13945536905E+03  0.00000000000E+00 0.  1.
          1   -1    0    0  503    0 -0.00000000000E+00 -0.00000000000E+00 -0.85791680412E+03  0.85791680412E+03  0.00000000000E+00 0.  1.
         21    1    1    2  503  505  0.90446481699E+01  0.39600312049E+02 -0.22318458308E+03  0.22685093895E+03  0.00000000000E+00 0.  1.
         21    1    1    2  504  502 -0.49449164787E+02  0.70290753938E+02  0.55367149481E+02  0.10223273071E+03  0.00000000000E+00 0.  1.
         21    1    1    2  505  504  0.21944698216E+01 -0.81402254570E+02  0.29185098703E+02  0.86503830743E+02  0.00000000000E+00 0.  1.
          1    1    1    2  501    0  0.38210046795E+02 -0.28488811417E+02 -0.57982910017E+03  0.58178467276E+03  0.00000000000E+00 0.  1.
<scales pt_clust_3="40.62007" pt_clust_4="80.39439" pt_clust_5="14000.00000" pt_clust_6="47.16842"></scales>
<clustering>
<clus scale="   40.620">  2  3  1 -1</clus>
<clus scale="   47.168">  2  6  1 -1</clus>
<clus scale="   80.394">  1  4  2 -1</clus>
<clus scale="   80.394">  1  3  2 -1</clus>
</clustering>
</event>
<event>
 6    0  0.1631680E+002  0.8314099E+02  0.7546771E-02  0.1320367E+00
          1   -1    0    0  503    0 -0.00000000000E+00  0.00000000000E+00  0.88118321979E+03  0.88118321979E+03  0.00000000000E+00 0.  1.
         21   -1    0    0  504  502  0.00000000000E+00 -0.00000000000E+00 -0.56218216427E+02  0.56218216427E+02  0.00000000000E+00 0. -1.
         21    1    1    2  503  505 -0.30763447138E+02  0.41768981277E+01  0.36086107574E+03  0.36219408076E+03  0.00000000000E+00 0.  1.
         21    1    1    2  504  501 -0.40542363028E+02 -0.10162754007E+03  0.32354515157E+02  0.11409931968E+03  0.00000000000E+00 0. -1.
         21    1    1    2  505  502 -0.28831727054E+01  0.37985775402E+02  0.30652330080E+02  0.48895778520E+02  0.00000000000E+00 0.  1.
          1    1    1    2  501    0  0.74188982872E+02  0.59464866537E+02  0.40109708239E+03  0.41221225726E+03  0.00000000000E+00 0.  1.
<scales pt_clust_3="31.04571" pt_clust_4="83.14099" pt_clust_5="38.66191" pt_clust_6="14000.00000"></scales>
<clustering>
<clus scale="   31.046">  1  3  2 -1</clus>
<clus scale="   38.662">  2  5  1 -1</clus>
<clus scale="   83.141">  2  4  1 -1</clus>
<clus scale="   38.662">  2  3  1 -1</clus>
</clustering>
</event>
<event>
 6    0  0.1631680E+002  0.9299173E+02  0.7546771E-02  0.1295764E+00
          2   -1    0    0  503    0 -0.00000000000E+00  0.00000000000E+00  0.13418277377E+04  0.13418277377E+04  0.00000000000E+00 0.  1.
         21   -1    0    0  501  502  0.00000000000E+00 -0.00000000000E+00 -0.11102725539E+03  0.11102725539E+03  0.00000000000E+00 0. -1.
         21    1    1    2  503  504  0.37474873313E+02  0.90374108392E+01  0.71460945216E+02  0.81195490119E+02  0.00000000000E+00 0. -1.
         21    1    1    2  504  505  0.46544616557E+02 -0.54501817216E+02  0.24512671869E+03  0.25538981504E+03  0.00000000000E+00 0.  1.
         21    1    1    2  505  502 -0.69472356089E+02 -0.62833196335E+02 -0.75643276353E+02  0.12040068139E+03  0.00000000000E+00 0. -1.
          2    1    1    2  501    0 -0.14547133781E+02  0.10829760271E+03  0.98985609477E+03  0.99586900655E+03  0.00000000000E+00 0.  1.
<scales pt_clust_3="38.54920" pt_clust_4="75.43223" pt_clust_5="14000.00000" pt_clust_6="92.99173"></scales>
<clustering>
<clus scale="   38.549">  1  3  2 -1</clus>
<clus scale="   75.432">  1  4  2 -1</clus>
<clus scale="   92.992">  1  6  2 -1</clus>
<clus scale="   92.992">  2  3  1 -1</clus>
</clustering>
</event>
<event>
 6    0  0.1631680E+002  0.1327646E+03  0.7546771E-02  0.1223410E+00
         21   -1    0    0  501  502  0.00000000000E+00  0.00000000000E+00  0.20200542622E+03  0.20200542622E+03  0.00000000000E+00 0. -1.
          2   -1    0    0  505    0 -0.00000000000E+00 -0.00000000000E+00 -0.23910720363E+04  0.23910720363E+04  0.00000000000E+00 0. -1.
         21    1    1    2  503  502 -0.68117269714E+02 -0.11567852195E+03  0.15923982621E+03  0.20827579102E+03  0.00000000000E+00 0. -1.
         21    1    1    2  504  503  0.98508272259E+02  0.74886553701E+01 -0.13940471635E+03  0.17086144856E+03  0.00000000000E+00 0.  1.
         21    1    1    2  505  504 -0.37611071926E+02  0.20692022933E+02 -0.13235779407E+04  0.13242738832E+04  0.00000000000E+00 0. -1.
          2    1    1    2  501    0  0.72200693800E+01  0.87497843643E+02 -0.88532377921E+03  0.88966633975E+03  0.00000000000E+00 0. -1.
<scales pt_clust_3="132.76457" pt_clust_4="93.63092" pt_clust_5="42.92729" pt_clust_6="14000.00000"></scales>
<clustering>
<clus scale="   42.927">  2  5  1 -1</clus>
<clus scale="   93.631">  2  4  1 -1</clus>
<clus scale="  132.765">  1  3  2 -1</clus>
<clus scale="  132.765">  1  3  2 -1</clus>
</clustering>
</event>
<event>
 6    0  0.1631680E+002  0.6321705E+02  0.7546771E-02  0.1384807E+00
          2   -1    0    0  504    0 -0.00000000000E+00  0.00000000000E+00  0.17657959922E+04  0.17657959922E+04  0.00000000000E+00 0.  1.
         21   -1    0    0  501  502  0.00000000000E+00 -0.00000000000E+00 -0.70541207872E+02  0.70541207872E+02  0.00000000000E+00 0. -1.
         21    1    1    2  503  502 -0.24657098258E+02  0.64822511032E+02 -0.39786956653E+02  0.79955814990E+02  0.00000000000E+00 0. -1.
         21    1    1    2  504  505 -0.27827666560E+01  0.45939228898E+02  0.42337020733E+03  0.42586440213E+03  0.00000000000E+00 0. -1.
         21    1    1    2  505  503  0.43267085632E+02 -0.23961619846E+02  0.69974396907E+02  0.85689066673E+02  0.00000000000E+00 0. -1.
          2    1    1    2  501    0 -0.15827220718E+02 -0.86800120084E+02  0.12416971367E+04  0.12448279163E+04  0.00000000000E+00 0.  1.
<scales pt_clust_3="14000.00000" pt_clust_4="46.02343" pt_clust_5="63.21705" pt_clust_6="47.89321"></scales>
<clustering>
<clus scale="   46.023">  1  4  2 -1</clus>
<clus scale="   47.893">  1  6  2 -1</clus>
<clus scale="   63.217">  1  5  2 -1</clus>
<clus scale="   63.217">  2  3  1 -1</clus>
</clustering>
</event>
<event>
 6    0  0.3443839E+002  0.1203437E+03  0.7546771E-02  0.1242531E+00
         21   -1    0    0  504  502  0.00000000000E+00  0.00000000000E+00  0.16507031571E+03  0.16507031571E+03  0.00000000000E+00 0.  1.
          1   -1    0    0  503    0 -0.00000000000E+00 -0.00000000000E+00 -0.38741957487E+04  0.38741957487E+04  0.00000000000E+00 0.  1.
         21    1    1    2  503  505 -0.29335428880E+02  0.32066011768E+02 -0.97279637427E+02  0.10654634839E+03  0.00000000000E+00 0.  1.
         21    1    1    2  504  501  0.58092962859E+02 -0.10556357399E+03  0.12639228380E+03  0.17462379532E+03  0.00000000000E+00 0.  1.
         21    1    1    2  505  502  0.29717878925E+02 -0.31683237721E+02 -0.43764599462E+02  0.61662955219E+02  0.00000000000E+00 0.  1.
          1    1    1    2  501    0 -0.58475412904E+02  0.10518079994E+03 -0.36944734799E+04  0.36964329655E+04  0.00000000000E+00 0.  1.
<scales pt_clust_3="42.17120" pt_clust_4="120.34370" pt_clust_5="43.43938" pt_clust_6="14000.00000"></scales>
<clustering>
<clus scale="   43.439">  1  5  2 -1</clus>
<clus scale="   42.171">  1  3  2 -1</clus>
<clus scale="  120.344">  1  4  2 -1</clus>
<clus scale="   43.439">  1  3  2 -1</clus>
</clustering>
</event>
<event>
 6    0  0.1631680E+002  0.2162230E+03  0.7546771E-02  0.1136731E+00
          1   -1    0    0  504    0 -0.00000000000E+00  0.00000000000E+00  0.10443287125E+04  0.10443287125E+04  0.00000000000E+00 0. -1.
         21   -1    0    0  505  502  0.00000000000E+00 -0.00000000000E+00 -0.87302131302E+03  0.87302131302E+03  0.00000000000E+00 0. -1.
         21    1    1    2  503  501  0.18702648988E+03  0.20205514919E+03  0.34045267807E+03  0.43785067916E+03  0.00000000000E+00 0. -1.
         21    1    1    2  504  502 -0.43885314764E+02 -0.32217352071E+02 -0.65339197665E+03  0.65565612463E+03  0.00000000000E+00 0. -1.
         21    1    1    2  505  503 -0.34565072345E+02 -0.34231551427E+01 -0.15271126098E+03  0.15661159423E+03  0.00000000000E+00 0.  1.
          1    1    1    2  501    0 -0.10857610277E+03 -0.16641464198E+03  0.63695795901E+03  0.66723162748E+03  0.00000000000E+00 0. -1.
<scales pt_clust_3="14000.00000" pt_clust_4="83.25036" pt_clust_5="34.73416" pt_clust_6="216.22296"></scales>
<clustering>
<clus scale="   34.734">  2  5  1 -1</clus>
<clus scale="   83.250">  2  4  1 -1</clus>
<clus scale="  216.223">  1  6  2 -1</clus>
<clus scale="   34.734">  2  3  1 -1</clus>
</clustering>
</event>
<event>
 6    0  0.1631680E+002  0.8703996E+02  0.7546771E-02  0.1310182E+00
          2   -1    0    0  505    0 -0.00000000000E+00  0.00000000000E+00  0.93196584753E+03  0.93196584753E+03  0.00000000000E+00 0. -1.
         21   -1    0    0  503  502  0.00000000000E+00 -0.00000000000E+00 -0.44900101108E+03  0.44900101108E+03  0.00000000000E+00 0.  1.
         21    1    1    2  503  504  0.11846305826E+03 -0.32556132643E+02 -0.26525111304E+03  0.29232097241E+03  0.00000000000E+00 0.  1.
         21    1    1    2  504  501 -0.71589273297E+02  0.15106388667E+01  0.14503958097E+03  0.16175223686E+03  0.00000000000E+00 0. -1.
         21    1    1    2  505  502 -0.37482378280E+02  0.25283102234E+00 -0.15934434675E+03  0.16369365732E+03  0.00000000000E+00 0.  1.
          2    1    1    2  501    0 -0.93914066873E+01  0.30792662754E+02  0.76252071526E+03  0.76319999201E+03  0.00000000000E+00 0. -1.
<scales pt_clust_3="87.03996" pt_clust_4="14000.00000" pt_clust_5="37.60875" pt_clust_6="32.19296"></scales>
<clustering>
<clus scale="   32.193">  1  6  2 -1</clus>
<clus scale="   37.609">  2  5  1 -1</clus>
<clus scale="   87.040">  2  3  1 -1</clus>
<clus scale="   37.609">  2  3  1 -1</clus>
</clustering>
</event>
<event>
 6    0  0.1631680E+002  0.1595233E+03  0.7546771E-02  0.1189236E+00
         21   -1    0    0  501  502  0.00000000000E+00  0.00000000000E+00  0.69261166949E+03  0.69261166949E+03  0.00000000000E+00 0.  1.
          1   -1    0    0  503    0 -0.00000000000E+00 -0.00000000000E+00 -0.58319966602E+03  0.58319966602E+03  0.00000000000E+00 0. -1.
         21    1    1    2  503  505  0.14149481799E+01 -0.43643698078E+02 -0.13168911035E+03  0.13874003116E+03  0.00000000000E+00 0. -1.
         21    1    1    2  504  502  0.28201062694E+02 -0.68908198058E+02  0.13035116840E+03  0.15011684383E+03  0.00000000000E+00 0.  1.
         21    1    1    2  505  504 -0.88896138438E+02 -0.79080137986E+02  0.51879859728E+03  0.53226701588E+03  0.00000000000E+00 0.  1.
          1    1    1    2  501    0  0.59280127564E+02  0.19163203412E+03 -0.40804865186E+03  0.45468744464E+03  0.00000000000E+00 0. -1.
<scales pt_clust_3="43.66663" pt_clust_4="75.35927" pt_clust_5="159.52326" pt_clust_6="14000.00000"></scales>
<clustering>
<clus scale="   43.667">  2  3  1 -1</clus>
<clus scale="   75.359">  1  4  2 -1</clus>
<clus scale="  159.523">  1  5  2 -1</clus>
<clus scale="   75.359">  1  3  2 -1</clus>
</clustering>
</event>
<event>
 6    0  0.1631680E+002  0.6389842E+02  0.7546771E-02  0.1382164E+00
          3   -1    0    0  503    0 -0.00000000000E+00  0.00000000000E+00  0.49126809329E+02  0.49126809329E+02  0.00000000000E+00 0.  1.
         21   -1    0    0  505  502  0.00000000000E+00 -0.00000000000E+00 -0.17965999280E+04  0.17965999280E+04  0.00000000000E+00 0.  1.
         21    1    1    2  503  504 -0.37640193420E+02  0.95832483920E+01 -0.56943160426E+02  0.68928559608E+02  0.00000000000E+00 0.  1.
         21    1    1    2  504  502 -0.30739538147E+02  0.53117537735E+02 -0.54827195689E+03  0.55169604923E+03  0.00000000000E+00 0.  1.
         21    1    1    2  505  501 -0.10113636002E+02 -0.70403225780E+02 -0.11440035204E+04  0.11462124387E+04  0.00000000000E+00 0.  1.
          3    1    1    2  501    0  0.78493367568E+02  0.77024396525E+01  0.17455190312E+01  0.78889689855E+02  0.00000000000E+00 0.  1.
<scales pt_clust_3="38.84099" pt_clust_4="63.89842" pt_clust_5="14000.00000" pt_clust_6="46.40465"></scales>
<clustering>
<clus scale="   38.841">  1  3  2 -1</clus>
<clus scale="   46.405">  1  6  2 -1</clus>
<clus scale="   63.898">  1  4  2 -1</clus>
<clus scale="   63.898">  2  3  1 -1</clus>
</clustering>
</event>
<event>
 6    0  0.1631680E+002  0.7771848E+02  0.7546771E-02  0.1335654E+00
         21   -1    0    0  503  502  0.00000000000E+00  0.00000000000E+00  0.10259388849E+04  0.10259388849E+04  0.00000000000E+00 0.  1.
         -1   -1    0    0    0  501 -0.00000000000E+00 -0.00000000000E+00 -0.10847913459E+04  0.10847913459E+04  0.00000000000E+00 0. -1.
         21    1    1    2  503  501 -0.45767885692E+02  0.63937579370E+01 -0.31239478534E+03  0.31579436570E+03  0.00000000000E+00 0.  1.
         21    1    1    2  504  502  0.76995875212E+01 -0.76821953583E+02  0.39263818920E+03  0.40015702396E+03  0.00000000000E+00 0.  1.
         21    1    1    2  505  504  0.21040662756E+02  0.14871402294E+03  0.61671133795E+03  0.63473730351E+03  0.00000000000E+00 0.  1.
         -1    1    1    2    0  505  0.17027635415E+02 -0.78285827295E+02 -0.75580720281E+03  0.76004153764E+03  0.00000000000E+00 0. -1.
<scales pt_clust_3="46.21233" pt_clust_4="77.15385" pt_clust_5="14000.00000" pt_clust_6="77.71848"></scales>
<clustering>
<clus scale="   46.212">  2  3  1 -1</clus>
<clus scale="   77.154">  1  4  2 -1</clus>
<clus scale="   77.718">  2  6  1 -1</clus>
<clus scale="   77.154">  1  3  2 -1</clus>
</clustering>
</event>
<event>
 6    0  0.1631680E+002  0.1429481E+03  0.7546771E-02  0.1209416E+00
         21   -1    0    0  504  502  0.00000000000E+00  0.00000000000E+00  0.19545872842E+03  0.19545872842E+03  0.00000000000E+00 0.  1.
          2   -1    0    0  503    0 -0.00000000000E+00 -0.00000000000E+00 -0.25366928117E+04  0.25366928117E+04  0.00000000000E+00 0.  1.
         21    1    1    2  503  502 -0.64702452536E+02  0.57088748892E+02 -0.57695668779E+02  0.10379943550E+03  0.00000000000E+00 0.  1.
         21    1    1    2  504  505  0.30581548093E+02  0.16855406560E+02  0.15857316862E+03  0.16237236716E+03  0.00000000000E+00 0.  1.
         21    1    1    2  505  501  0.30970335288E+02  0.87014513154E+02 -0.22763597235E+03  0.24565997450E+03  0.00000000000E+00 0.  1.
          2    1    1    2  501    0  0.31505691550E+01 -0.16095866861E+03 -0.22144756107E+04  0.22203197629E+04  0.00000000000E+00 0.  1.
<scales pt_clust_3="81.45819" pt_clust_4="34.91899" pt_clust_5="142.94809" pt_clust_6="14000.00000"></scales>
<clustering>
<clus scale="   34.919">  1  4  2 -1</clus>
<clus scale="   81.458">  1  3  2 -1</clus>
<clus scale="  142.948">  1  5  2 -1</clus>
<clus scale="   34.919">  1  3  2 -1</clus>
</clustering>
</event>
<event>
 6    0  0.1631680E+002  0.7347039E+02  0.7546771E-02  0.1348674E+00
          3   -1    0    0  504    0 -0.00000000000E+00  0.00000000000E+00  0.11976599331E+03  0.11976599331E+03  0.00000000000E+00 0.  1.
         21   -1    0    0  503  502  0.00000000000E+00 -0.00000000000E+00 -0.30521117426E+03  0.30521117426E+03  0.00000000000E+00 0.  1.
         21    1    1    2  503  505  0.21097513599E+02 -0.60632848957E+02 -0.15964226794E+03  0.17206714145E+03  0.00000000000E+00 0.  1.
         21    1    1    2  504  502  0.25090692048E+02 -0.18693320546E+02 -0.39169372810E+01  0.31532926571E+02  0.00000000000E+00 0.  1.
         21    1    1    2  505  501 -0.62708289951E+02  0.10638837154E+03 -0.85565637154E+02  0.15024078504E+03  0.00000000000E+00 0.  1.
          3    1    1    2  501    0  0.16520084304E+02 -0.27062202038E+02  0.63679661418E+02  0.71136314516E+02  0.00000000000E+00 0.  1.
<scales pt_clust_3="14000.00000" pt_clust_4="31.28870" pt_clust_5="73.47039" pt_clust_6="50.72024"></scales>
<clustering>
<clus scale="   31.289">  1  4  2 -1</clus>
<clus scale="   50.720">  1  6  2 -1</clus>
<clus scale="   73.470">  1  5  2 -1</clus>
<clus scale="   73.470">  2  3  1 -1</clus>
</clustering>
</event>
<event>
 6    0  0.1631680E+002  0.1537562E+03  0.7546771E-02  0.1195932E+00
          2   -1    0    0  505    0 -0.00000000000E+00  0.00000000000E+00  0.14668441821E+04  0.14668441821E+04  0.00000000000E+00 0. -1.
         21   -1    0    0  501  502  0.00000000000E+00 -0.00000000000E+00 -0.92546610064E+02  0.92546610064E+02  0.00000000000E+00 0. -1.
         21    1    1    2  503  502  0.95573937579E+01 -0.45380924839E+02 -0.24853192592E+02  0.52616093514E+02  0.00000000000E+00 0. -1.
         21    1    1    2  504  503 -0.22521762807E+02 -0.98663532695E+02  0.95285978694E+01  0.10164898751E+03  0.00000000000E+00 0. -1.
         21    1    1    2  505  504 -0.48593609026E+02  0.54587174714E-01  0.23843097907E+03  0.24333243433E+03  0.00000000000E+00 0.  1.
          2    1    1    2  501    0  0.61557978075E+02  0.14398987036E+03  0.11511911877E+04  0.11617932768E+04  0.00000000000E+00 0. -1.
<scales pt_clust_3="34.82167" pt_clust_4="34.82167" pt_clust_5="48.59364" pt_clust_6="144.89641"></scales>
<clustering>
<clus scale="   34.822">  3  4 -1 -1</clus>
<clus scale="   48.594">  1  5  2 -1</clus>
<clus scale="  144.896">  1  6  2 -1</clus>
<clus scale="  153.756">  2  3  1 -1</clus>
</clustering>
</event>
<event>
 6    0  0.1631680E+002  0.6387654E+02  0.7546771E-02  0.1382248E+00
         21   -1    0    0  504  502  0.00000000000E+00  0.00000000000E+00  0.93164747590E+02  0.93164747590E+02  0.00000000000E+00 0.  1.
         -2   -1    0    0    0  501 -0.00000000000E+00 -0.00000000000E+00 -0.10870810466E+04  0.10870810466E+04  0.00000000000E+00 0. -1.
         21    1    1    2  503  502 -0.33730428930E+02  0.16158959748E+02  0.63827218916E+02  0.73978156847E+02  0.00000000000E+00 0.  1.
         21    1    1    2  504  501 -0.43859048729E+01  0.56681620204E+02 -0.65360833322E+03  0.65607613543E+03  0.00000000000E+00 0. -1.
         21    1    1    2  505  503 -0.90044096741E+01  0.38320339548E+02 -0.13964933968E+02  0.41767777022E+02  0.00000000000E+00 0. -1.
         -2    1    1    2    0  505  0.47120743477E+02 -0.11116091950E+03 -0.39017025075E+03  0.40842372490E+03  0.00000000000E+00 0. -1.
<scales pt_clust_3="37.40125" pt_clust_4="63.87654" pt_clust_5="55.37505" pt_clust_6="14000.00000"></scales>
<clustering>
<clus scale="   37.401">  1  3  2 -1</clus>
<clus scale="   55.375">  1  5  2 -1</clus>
<clus scale="   63.877">  2  4  1 -1</clus>
<clus scale="   37.401">  1  3  2 -1</clus>
</clustering>
</event>
<event>
 6    0  0.1631680E+002  0.1137525E+03  0.7546771E-02  0.1253774E+00
         21   -1    0    0  504  502  0.00000000000E+00  0.00000000000E+00  0.79302375096E+03  0.79302375096E+03  0.00000000000E+00 0.  1.
          2   -1    0    0  502    0 -0.00000000000E+00 -0.00000000000E+00 -0.22793910866E+03  0.22793910866E+03  0.00000000000E+00 0.  1.
         21    1    1    2  503  501 -0.13455932789E+03  0.44889638199E+02 -0.30327565761E+01  0.14188195781E+03  0.00000000000E+00 0.  1.
         21    1    1    2  504  505  0.32633459290E+02 -0.23308999019E+02  0.42269044745E+03  0.42458858495E+03  0.00000000000E+00 0.  1.
         21    1    1    2  505  503  0.62427120819E+02 -0.10759868518E+02  0.29380986007E+03  0.30056139815E+03  0.00000000000E+00 0.  1.
          2    1    1    2  501    0  0.39498747780E+02 -0.10820770662E+02 -0.14838290865E+03  0.15393091870E+03  0.00000000000E+00 0.  1.
<scales pt_clust_3="103.28134" pt_clust_4="37.93023" pt_clust_5="37.93023" pt_clust_6="40.95412"></scales>
<clustering>
<clus scale="   37.930">  4  5 -1 -1</clus>
<clus scale="   40.954">  2  6  1 -1</clus>
<clus scale="  103.281">  2  3  1 -1</clus>
<clus scale="  113.753">  1  3  2 -1</clus>
</clustering>
</event>
<event>
 6    0  0.1631680E+002  0.1045423E+03  0.7546771E-02  0.1271024E+00
         21   -1    0    0  504  502  0.00000000000E+00  0.00000000000E+00  0.19484345544E+02  0.19484345544E+02  0.00000000000E+00 0.  1.
          2   -1    0    0  503    0 -0.00000000000E+00 -0.00000000000E+00 -0.14940987816E+04  0.14940987816E+04  0.00000000000E+00 0.  1.
         21    1    1    2  503  505  0.53318548176E+02 -0.12111915185E+02 -0.48418916909E+03  0.48726657748E+03  0.00000000000E+00 0.  1.
         21    1    1    2  504  501  0.34375893611E+02 -0.15115608965E+02 -0.10264261941E+03  0.10929634493E+03  0.00000000000E+00 0.  1.
         21    1    1    2  505  502 -0.12146192478E+03 -0.60220932558E+02 -0.55118053509E+03  0.56760861705E+03  0.00000000000E+00 0.  1.
          2    1    1    2  501    0  0.33767482991E+02  0.87448456709E+02 -0.33660211251E+03  0.34941158772E+03  0.00000000000E+00 0.  1.
<scales pt_clust_3="58.19210" pt_clust_4="37.55241" pt_clust_5="104.54235" pt_clust_6="14000.00000"></scales>
<clustering>
<clus scale="   37.552">  1  4  2 -1</clus>
<clus scale="   58.192">  2  3  1 -1</clus>
<clus scale="  104.542">  2  5  1 -1</clus>
<clus scale="   37.552">  1  3  2 -1</clus>
</clustering>
</event>
<event>
 6    0  0.1631680E+002  0.7706300E+02  0.7546771E-02  0.1337599E+00
          2   -1    0    0  503    0 -0.00000000000E+00  0.00000000000E+00  0.62692362094E+03  0.62692362094E+03  0.00000000000E+00 0.  1.
         21   -1    0    0  504  502  0.00000000000E+00 -0.00000000000E+00 -0.24246218254E+04  0.24246218254E+04  0.00000000000E+00 0. -1.
         21    1    1    2  503  505  0.38700137944E+02 -0.42461128588E+02 -0.24916492212E+02  0.62621719092E+02  0.00000000000E+00 0. -1.
         21    1    1    2  504  501  0.16668165099E+02  0.90891285615E+02 -0.62412685287E+03  0.63093056829E+03  0.00000000000E+00 0. -1.
         21    1    1    2  505  502 -0.27177898171E+02  0.23234334679E+02 -0.17506887606E+04  0.17510538567E+04  0.00000000000E+00 0. -1.
          2    1    1    2  501    0 -0.28190404873E+02 -0.71664491705E+02  0.60203390129E+03  0.60693930224E+03  0.00000000000E+00 0.  1.
<scales pt_clust_3="55.14715" pt_clust_4="14000.00000" pt_clust_5="35.75573" pt_clust_6="77.06300"></scales>
<clustering>
<clus scale="   35.756">  2  5  1 -1</clus>
<clus scale="   55.147">  2  3  1 -1</clus>
<clus scale="   77.063">  1  6  2 -1</clus>
<clus scale="   35.756">  2  3  1 -1</clus>
</clustering>
</event>
<event>
 6    0  0.1631680E+002  0.1972525E+03  0.7546771E-02  0.1152078E+00
         -3   -1    0    0    0  501 -0.00000000000E+00  0.00000000000E+00  0.37784637662E+03  0.37784637662E+03  0.00000000000E+00 0. -1.
         21   -1    0    0  505  502  0.00000000000E+00 -0.00000000000E+00 -0.13649444022E+04  0.13649444022E+04  0.00000000000E+00 0.  1.
         21    1    1    2  503  501  0.29133567546E+02 -0.27233227795E+02  0.12940828204E+03  0.13541387268E+03  0.00000000000E+00 0. -1.
         21    1    1    2  504  503 -0.16869774946E+03  0.76894258118E+02 -0.21856413223E+03  0.28660414774E+03  0.00000000000E+00 0.  1.
         21    1    1    2  505  504 -0.37153033927E+02 -0.13221543068E+03 -0.10589720083E+04  0.10678403357E+04  0.00000000000E+00 0.  1.
         -3    1    1    2    0  502  0.17671721584E+03  0.82554400355E+02  0.16102983292E+03  0.25293242276E+03  0.00000000000E+00 0. -1.
<scales pt_clust_3="39.87999" pt_clust_4="14000.00000" pt_clust_5="137.66909" pt_clust_6="197.25254"></scales>
<clustering>
<clus scale="   39.880">  1  3  2 -1</clus>
<clus scale="  137.669">  2  5  1 -1</clus>
<clus scale="  197.253">  1  6  2 -1</clus>
<clus scale="  137.669">  2  3  1 -1</clus>
</clustering>
</event>
<event>
 6    0  0.1631680E+002  0.1710821E+03  0.7546771E-02  0.1176724E+00
          2   -1    0    0  504    0 -0.00000000000E+00  0.00000000000E+00  0.82366696924E+03  0.82366696924E+03  0.00000000000E+00 0.  1.
         21   -1    0    0  503  502  0.00000000000E+00 -0.00000000000E+00 -0.75771863157E+03  0.75771863157E+03  0.00000000000E+00 0.  1.
         21    1    1    2  503  505 -0.22031830568E+02 -0.37563612135E+02 -0.59716912439E+03  0.59875486606E+03  0.00000000000E+00 0.  1.
         21    1    1    2  504  502  0.73258874372E+01 -0.93183472348E+02  0.21936438936E+03  0.23844824064E+03  0.00000000000E+00 0.  1.
         21    1    1    2  505  501  0.15112015440E+03 -0.66945112172E+02 -0.68109275120E+02  0.17876750954E+03  0.00000000000E+00 0.  1.
          2    1    1    2  501    0 -0.13641421127E+03  0.19769219665E+03  0.51186234781E+03  0.56541498456E+03  0.00000000000E+00 0.  1.
<scales pt_clust_3="43.54798" pt_clust_4="95.61613" pt_clust_5="171.08207" pt_clust_6="14000.00000"></scales>
<clustering>
<clus scale="   43.548">  2  3  1 -1</clus>
<clus scale="   95.616">  1  4  2 -1</clus>
<clus scale="  171.082">  2  5  1 -1</clus>
<clus scale="   43.548">  2  3  1 -1</clus>
</clustering>
</event>
<event>
 6    0  0.1631680E+002  0.9498651E+02  0.7546771E-02  0.1291206E+00
          1   -1    0    0  503    0 -0.00000000000E+00  0.00000000000E+00  0.13644512235E+04  0.13644512235E+04  0.00000000000E+00 0.  1.
         21   -1    0    0  504  502  0.00000000000E+00 -0.00000000000E+00 -0.36433065114E+02  0.36433065114E+02  0.00000000000E+00 0.  1.
         21    1    1    2  503  505  0.48050492752E+02 -0.13887403559E+02  0.17486713562E+03  0.18187969912E+03  0.00000000000E+00 0. -1.
         21    1    1    2  504  501 -0.31379794397E+02 -0.27526830137E+02  0.54096757352E+02  0.68329181393E+02  0.00000000000E+00 0. -1.
         21    1    1    2  505  502  0.10135665170E+03  0.68020598703E+02  0.14749088173E+03  0.19145112402E+03  0.00000000000E+00 0.  1.
          1    1    1    2  501    0 -0.11802735006E+03 -0.26606365007E+02  0.95156338373E+03  0.95922428413E+03  0.00000000000E+00 0.  1.
<scales pt_clust_3="47.51216" pt_clust_4="41.74228" pt_clust_5="94.98651" pt_clust_6="14000.00000"></scales>
<clustering>
<clus scale="   41.742">  2  4  1 -1</clus>
<clus scale="   47.512">  1  3  2 -1</clus>
<clus scale="   94.987">  2  5  1 -1</clus>
<clus scale="   41.742">  2  3  1 -1</clus>
</clustering>
</event>
<event>
 6    0  0.1631680E+002  0.8159189E+02  0.7546771E-02  0.1324594E+00
         21   -1    0    0  503  502  0.00000000000E+00  0.00000000000E+00  0.10145433044E+04  0.10145433044E+04  0.00000000000E+00 0. -1.
          2   -1    0    0  504    0 -0.00000000000E+00 -0.00000000000E+00 -0.22454570477E+04  0.22454570477E+04  0.00000000000E+00 0. -1.
         21    1    1    2  503  501  0.38752363300E+02  0.36585908843E+02 -0.16986061779E+03  0.17802500910E+03  0.00000000000E+00 0. -1.
         21    1    1    2  504  505 -0.14914468488E+03 -0.93283734531E+01 -0.22654929666E+03  0.27139590895E+03  0.00000000000E+00 0. -1.
         21    1    1    2  505  502  0.81128808031E+02 -0.14057634051E+01  0.98616222528E+03  0.98949471663E+03  0.00000000000E+00 0. -1.
          2    1    1    2  501    0  0.29263513547E+02 -0.25851771984E+02 -0.18206660541E+04  0.18210847174E+04  0.00000000000E+00 0. -1.
<scales pt_clust_3="57.01221" pt_clust_4="81.59189" pt_clust_5="14000.00000" pt_clust_6="39.04699"></scales>
<clustering>
<clus scale="   39.047">  2  6  1 -1</clus>
<clus scale="   57.012">  2  3  1 -1</clus>
<clus scale="   81.592">  2  4  1 -1</clus>
<clus scale="   81.592">  1  3  2 -1</clus>
</clustering>
</event>
<event>
 6    0  0.1631680E+002  0.9220176E+02  0.7546771E-02  0.1297606E+00
         21   -1    0    0  503  502  0.00000000000E+00  0.00000000000E+00  0.24855620896E+02  0.24855620896E+02  0.00000000000E+00 0.  1.
          1   -1    0    0  504    0 -0.00000000000E+00 -0.00000000000E+00 -0.10369728956E+04  0.10369728956E+04  0.00000000000E+00 0.  1.
         21    1    1    2  503  501  0.39227735803E+02 -0.41481688363E+02 -0.96000127759E+02  0.11169409230E+03  0.00000000000E+00 0.  1.
         21    1    1    2  504  505 -0.21087325610E+02  0.52930769074E+02 -0.61093275769E+03  0.61358387857E+03  0.00000000000E+00 0.  1.
         21    1    1    2  505  502 -0.45904994121E+02  0.51763733270E+02 -0.11483022015E+03  0.13406241840E+03  0.00000000000E+00 0.  1.
          1    1    1    2  501    0  0.27764583928E+02 -0.63212813982E+02 -0.19035416907E+03  0.20248812719E+03  0.00000000000E+00 0.  1.
<scales pt_clust_3="32.31446" pt_clust_4="56.97668" pt_clust_5="85.07873" pt_clust_6="32.31446"></scales>
<clustering>
<clus scale="   32.314">  3  6 -1 -1</clus>
<clus scale="   56.977">  2  4  1 -1</clus>
<clus scale="   85.079">  1  5  2 -1</clus>
<clus scale="   85.079">  1  3  2 -1</clus>
</clustering>
</event>
<event>
 6    0  0.1631680E+002  0.1516901E+03  0.7546771E-02  0.1198411E+00
         21   -1    0    0  504  502  0.00000000000E+00  0.00000000000E+00  0.11553481263E+04  0.11553481263E+04  0.00000000000E+00 0.  1.
          2   -1    0    0  505    0 -0.00000000000E+00 -0.00000000000E+00 -0.41780079177E+03  0.41780079177E+03  0.00000000000E+00 0.  1.
         21    1    1    2  503  501  0.10701541850E+03 -0.43493235524E+02 -0.36631200774E+02  0.12118500816E+03  0.00000000000E+00 0. -1.
         21    1    1    2  504  503  0.44522686778E+02  0.81162123705E+01  0.10596409647E+04  0.10606069567E+04  0.00000000000E+00 0.  1.
         21    1    1    2  505  502  0.37538839167E+02 -0.39509465959E+02 -0.10999129965E+03  0.12275279364E+03  0.00000000000E+00 0.  1.
          2    1    1    2  501    0 -0.18907694444E+03  0.74886489113E+02 -0.17547112974E+03  0.26860415958E+03  0.00000000000E+00 0.  1.
<scales pt_clust_3="14000.00000" pt_clust_4="45.25641" pt_clust_5="56.21715" pt_clust_6="151.69012"></scales>
<clustering>
<clus scale="   45.256">  1  4  2 -1</clus>
<clus scale="   56.217">  2  5  1 -1</clus>
<clus scale="  151.690">  2  6  1 -1</clus>
<clus scale="   45.256">  1  3  2 -1</clus>
</clustering>
</event>
<event>
 6    0  0.1631680E+002  0.1048354E+03  0.7546771E-02  0.1270444E+00
          2   -1    0    0  505    0 -0.00000000000E+00  0.00000000000E+00  0.14692807929E+04  0.14692807929E+04  0.00000000000E+00 0. -1.
         21   -1    0    0  504  502  0.00000000000E+00 -0.00000000000E+00 -0.55453238393E+03  0.55453238393E+03  0.00000000000E+00 0. -1.
         21    1    1    2  503  502 -0.66406344524E+02 -0.83811325217E+02 -0.31983511682E+03  0.33723677554E+03  0.00000000000E+00 0. -1.
         21    1    1    2  504  501  0.96295504515E+02  0.48394699818E+02 -0.21157755731E+03  0.23744459125E+03  0.00000000000E+00 0. -1.
         21    1    1    2  505  503 -0.37392540215E+02 -0.13391286140E+02  0.45071473828E+03  0.45246138389E+03  0.00000000000E+00 0. -1.
          2    1    1    2  501    0  0.75033802247E+01  0.48807911540E+02  0.99544634484E+03  0.99667042617E+03  0.00000000000E+00 0. -1.
<scales pt_clust_3="104.83536" pt_clust_4="14000.00000" pt_clust_5="39.71811" pt_clust_6="46.05495"></scales>
<clustering>
<clus scale="   39.718">  1  5  2 -1</clus>
<clus scale="   46.055">  1  6  2 -1</clus>
<clus scale="  104.835">  2  3  1 -1</clus>
<clus scale="  104.835">  2  3  1 -1</clus>
</clustering>
</event>
<event>
 6    0  0.1631680E+002  0.8321482E+02  0.7546771E-02  0.1320168E+00
          2   -1    0    0  504    0 -0.00000000000E+00  0.00000000000E+00  0.10094928433E+04  0.10094928433E+04  0.00000000000E+00 0.  1.
         21   -1    0    0  503  502  0.00000000000E+00 -0.00000000000E+00 -0.28329364208E+03  0.28329364208E+03  0.00000000000E+00 0.  1.
         21    1    1    2  503  501 -0.74504517701E+02  0.34300009649E+02 -0.12081739687E+03  0.14602827537E+03  0.00000000000E+00 0. -1.
         21    1    1    2  504  505  0.41310843018E+02 -0.13532423979E+02  0.67036388894E+02  0.79897369704E+02  0.00000000000E+00 0. -1.
         21    1    1    2  505  502  0.43436004596E+02 -0.85454683091E+02 -0.12610962013E+03  0.15840715150E+03  0.00000000000E+00 0.  1.
          2    1    1    2  501    0 -0.10242329913E+02  0.64687097421E+02  0.90608982932E+03  0.90845368880E+03  0.00000000000E+00 0.  1.
<scales pt_clust_3="83.21482" pt_clust_4="43.47082" pt_clust_5="14000.00000" pt_clust_6="59.56100"></scales>
<clustering>
<clus scale="   43.471">  1  4  2 -1</clus>
<clus scale="   59.561">  1  6  2 -1</clus>
<clus scale="   83.215">  2  3  1 -1</clus>
<clus scale="   83.215">  2  3  1 -1</clus>
</clustering>
</event>
<event>
 6    0  0.1631680E+002  0.1018672E+03  0.7546771E-02  0.1276418E+00
          1   -1    0    0  503    0 -0.00000000000E+00  0.00000000000E+00  0.95891877956E+03  0.95891877956E+03  0.00000000000E+00 0. -1.
         21   -1    0    0  504  502  0.00000000000E+00 -0.00000000000E+00 -0.78868079823E+02  0.78868079823E+02  0.00000000000E+00 0. -1.
         21    1    1    2  503  505  0.51850292934E+02  0.46834793708E+02  0.17495053838E+03  0.18838694663E+03  0.00000000000E+00 0. -1.
         21    1    1    2  504  501  0.34289467869E+02 -0.12199381977E+00  0.36996702850E+02  0.50443418907E+02  0.00000000000E+00 0. -1.
         21    1    1    2  505  502 -0.10359906772E+01  0.51645624896E+02 -0.48373441257E+02  0.70769581507E+02  0.00000000000E+00 0. -1.
          1    1    1    2  501    0 -0.85103770126E+02 -0.98358424784E+02  0.71647689977E+03  0.72818691235E+03  0.00000000000E+00 0. -1.
<scales pt_clust_3="101.86721" pt_clust_4="34.28968" pt_clust_5="58.31760" pt_clust_6="14000.00000"></scales>
<clustering>
<clus scale="   34.290">  2  4  1 -1</clus>
<clus scale="   58.318">  2  5  1 -1</clus>
<clus scale="  101.867">  2  3  1 -1</clus>
<clus scale="   34.290">  2  3  1 -1</clus>
</clustering>
</event>
<event>
 6    0  0.1631680E+002  0.6558326E+02  0.7546771E-02  0.1375791E+00
         21   -1    0    0  504  502  0.00000000000E+00  0.00000000000E+00  0.14632813620E+04  0.14632813620E+04  0.00000000000E+00 0.  1.
         -1   -1    0    0    0  501 -0.00000000000E+00 -0.00000000000E+00 -0.72055025158E+03  0.72055025158E+03  0.00000000000E+00 0. -1.
         21    1    1    2  503  501  0.72795104825E+02  0.95450421289E+01 -0.13621222254E+03  0.15473850421E+03  0.00000000000E+00 0.  1.
         21    1    1    2  504  503 -0.10429050711E+03 -0.52791340105E+02  0.74062565459E+02  0.13837882448E+03  0.00000000000E+00 0.  1.
         21    1    1    2  505  502  0.59108468666E+02  0.25468703789E+02  0.13465315273E+04  0.13480688484E+04  0.00000000000E+00 0.  1.
         -1    1    1    2    0  505 -0.27613066385E+02  0.17777594187E+02 -0.54165075975E+03  0.54264543657E+03  0.00000000000E+00 0. -1.
<scales pt_clust_3="55.73075" pt_clust_4="65.58326" pt_clust_5="14000.00000" pt_clust_6="32.84089"></scales>
<clustering>
<clus scale="   32.841">  2  6  1 -1</clus>
<clus scale="   55.731">  2  3  1 -1</clus>
<clus scale="   65.583">  2  4  1 -1</clus>
<clus scale="   65.583">  1  3  2 -1</clus>
</clustering>
</event>
<event>
 6    0  0.1631680E+002  0.5620028E+02  0.7546771E-02  0.1414506E+00
         21   -1    0    0  503  502  0.00000000000E+00  0.00000000000E+00  0.26225077902E+03  0.26225077902E+03  0.00000000000E+00 0.  1.
          1   -1    0    0  504    0 -0.00000000000E+00 -0.00000000000E+00 -0.35793686292E+03  0.35793686292E+03  0.00000000000E+00 0.  1.
         21    1    1    2  503  501  0.28993120936E+02  0.47988269145E+02  0.18461646655E+03  0.19294225758E+03  0.00000000000E+00 0.  1.
         21    1    1    2  504  505 -0.47988960833E+02  0.25481474949E+02 -0.13224843497E+03  0.14297515336E+03  0.00000000000E+00 0.  1.
         21    1    1    2  505  502 -0.66170282306E+02 -0.12543256774E+02  0.33088885021E+02  0.75038082751E+02  0.00000000000E+00 0.  1.
          1    1    1    2  501    0  0.85166122204E+02 -0.60926487320E+02 -0.18114300051E+03  0.20923214825E+03  0.00000000000E+00 0.  1.
<scales pt_clust_3="56.01928" pt_clust_4="54.33457" pt_clust_5="14000.00000" pt_clust_6="56.20028"></scales>
<clustering>
<clus scale="   54.335">  2  4  1 -1</clus>
<clus scale="   56.019">  1  3  2 -1</clus>
<clus scale="   56.200">  2  6  1 -1</clus>
<clus scale="   56.019">  1  3  2 -1</clus>
</clustering>
</event>
<event>
 6    0  0.1631680E+002  0.8325367E+02  0.7546771E-02  0.1320064E+00
         21   -1    0    0  501  502  0.00000000000E+00  0.00000000000E+00  0.16942569801E+04  0.16942569801E+04  0.00000000000E+00 0.  1.
          2   -1    0    0  504    0 -0.00000000000E+00 -0.00000000000E+00 -0.45261876011E+03  0.45261876011E+03  0.00000000000E+00 0.  1.
         21    1    1    2  503  502 -0.70509172313E+02 -0.48147985724E+02  0.15841926883E+04  0.15864918044E+04  0.00000000000E+00 0.  1.
         21    1    1    2  504  505 -0.32791981237E+02 -0.31895381178E+02 -0.49486881030E+02  0.67391251420E+02  0.00000000000E+00 0.  1.
         21    1    1    2  505  503  0.18573927507E+02  0.71519657079E+02  0.80833312236E+02  0.10951747120E+03  0.00000000000E+00 0. -1.
          2    1    1    2  501    0  0.84727226043E+02  0.85237098225E+01 -0.37390089950E+03  0.38347521316E+03  0.00000000000E+00 0.  1.
<scales pt_clust_3="83.25367" pt_clust_4="45.74527" pt_clust_5="14000.00000" pt_clust_6="57.63685"></scales>
<clustering>
<clus scale="   45.745">  2  4  1 -1</clus>
<clus scale="   57.637">  2  6  1 -1</clus>
<clus scale="   83.254">  1  3  2 -1</clus>
<clus scale="   83.254">  1  3  2 -1</clus>
</clustering>
</event>
<event>
 6    0  0.1631680E+002  0.3416492E+03  0.7546771E-02  0.1066096E+00
          2   -1    0    0  503    0 -0.00000000000E+00  0.00000000000E+00  0.24862155798E+04  0.24862155798E+04  0.00000000000E+00 0. -1.
         21   -1    0    0  501  502  0.00000000000E+00 -0.00000000000E+00 -0.79509315219E+03  0.79509315219E+03  0.00000000000E+00 0.  1.
         21    1    1    2  503  504 -0.18147485481E+02  0.26262711503E+02  0.71071399749E+03  0.71143056406E+03  0.00000000000E+00 0. -1.
         21    1    1    2  504  505  0.33435860846E+03  0.84379038723E+01  0.17238901996E+03  0.37627762554E+03  0.00000000000E+00 0. -1.
         21    1    1    2  505  502  0.95371628755E+01  0.30965138280E+02 -0.67400257377E+03  0.67478090275E+03  0.00000000000E+00 0.  1.
          2    1    1    2  501    0 -0.32574828586E+03 -0.65665753655E+02  0.14820219839E+04  0.15188196396E+04  0.00000000000E+00 0. -1.
<scales pt_clust_3="31.92274" pt_clust_4="341.64918" pt_clust_5="32.40491" pt_clust_6="14000.00000"></scales>
<clustering>
<clus scale="   31.923">  1  3  2 -1</clus>
<clus scale="   32.405">  2  5  1 -1</clus>
<clus scale="  341.649">  2  4  1 -1</clus>
<clus scale="   32.405">  2  3  1 -1</clus>
</clustering>
</event>
<event>
 6    0  0.1631680E+002  0.1208883E+03  0.7546771E-02  0.1241639E+00
         -3   -1    0    0    0  501 -0.00000000000E+00  0.00000000000E+00  0.27169864844E+04  0.27169864844E+04  0.00000000000E+00 0.  1.
         21   -1    0    0  503  502  0.00000000000E+00 -0.00000000000E+00 -0.16600030194E+02  0.16600030194E+02  0.00000000000E+00 0. -1.
         21    1    1    2  503  501  0.63071366147E+02 -0.66057168785E+02  0.15150744439E+03  0.17690690343E+03  0.00000000000E+00 0. -1.
         21    1    1    2  504  505 -0.32493059903E+02  0.38763807804E+02  0.11827238443E+04  0.11838049348E+04  0.00000000000E+00 0. -1.
         21    1    1    2  505  502  0.39806726394E+02  0.15234487310E+02  0.19784161190E+03  0.20238075123E+03  0.00000000000E+00 0. -1.
         -3    1    1    2    0  504 -0.70385032638E+02  0.12058873671E+02  0.11683135536E+04  0.11704939252E+04  0.00000000000E+00 0.  1.
<scales pt_clust_3="111.51032" pt_clust_4="39.29014" pt_clust_5="42.62235" pt_clust_6="39.29014"></scales>
<clustering>
<clus scale="   39.290">  4  6 -1 -1</clus>
<clus scale="   42.622">  2  5  1 -1</clus>
<clus scale="  111.510">  2  3  1 -1</clus>
<clus scale="   42.622">  2  3  1 -1</clus>
</clustering>
</event>
<event>
 6    0  0.1631680E+002  0.7057508E+02  0.7546771E-02  0.1358148E+00
         21   -1    0    0  505  502  0.00000000000E+00  0.00000000000E+00  0.29476950960E+03  0.29476950960E+03  0.00000000000E+00 0.  1.
          2   -1    0    0  504    0 -0.00000000000E+00 -0.00000000000E+00 -0.23656850889E+04  0.23656850889E+04  0.00000000000E+00 0. -1.
         21    1    1    2  503  502 -0.47863606353E+02  0.53989543470E+02  0.62863326607E+02  0.95695315713E+02  0.00000000000E+00 0.  1.
         21    1    1    2  504  503 -0.54931093488E+02  0.23607937333E+02 -0.70091524550E+03  0.70346068910E+03  0.00000000000E+00 0. -1.
         21    1    1    2  505  501  0.47273428622E+02 -0.17452012492E+02  0.21022098050E+03  0.21617634106E+03  0.00000000000E+00 0.  1.
          2    1    1    2  501    0  0.55521271220E+02 -0.60145468311E+02 -0.16430846409E+04  0.16451222526E+04  0.00000000000E+00 0. -1.
<scales pt_clust_3="37.07745" pt_clust_4="70.57508" pt_clust_5="50.39196" pt_clust_6="14000.00000"></scales>
<clustering>
<clus scale="   50.392">  1  5  2 -1</clus>
<clus scale="   37.077">  1  3  2 -1</clus>
<clus scale="   70.575">  1  4  2 -1</clus>
<clus scale="   50.392">  1  3  2 -1</clus>
</clustering>
</event>
<event>
 6    0  0.1952465E+002  0.1172779E+03  0.7546771E-02  0.1247656E+00
          1   -1    0    0  503    0 -0.00000000000E+00  0.00000000000E+00  0.51628857998E+03  0.51628857998E+03  0.00000000000E+00 0. -1.
         21   -1    0    0  504  502  0.00000000000E+00 -0.00000000000E+00 -0.14878916869E+04  0.14878916869E+04  0.00000000000E+00 0.  1.
         21    1    1    2  503  505 -0.11785527248E+02  0.35047502408E+02 -0.44676761658E+01  0.37244948757E+02  0.00000000000E+00 0. -1.
         21    1    1    2  504  501 -0.26184223426E+02 -0.67245313846E+02 -0.10318886091E+03  0.12591857213E+03  0.00000000000E+00 0. -1.
         21    1    1    2  505  502  0.69489672479E+02 -0.43889510538E+02 -0.13477498878E+04  0.13502536295E+04  0.00000000000E+00 0.  1.
          1    1    1    2  501    0 -0.31519921805E+02  0.76087321975E+02  0.48380331800E+03  0.49076311653E+03  0.00000000000E+00 0. -1.
<scales pt_clust_3="36.97602" pt_clust_4="71.52010" pt_clust_5="117.27794" pt_clust_6="14000.00000"></scales>
<clustering>
<clus scale="   36.976">  1  3  2 -1</clus>
<clus scale="   71.520">  2  4  1 -1</clus>
<clus scale="  117.278">  2  5  1 -1</clus>
<clus scale="   71.520">  2  3  1 -1</clus>
</clustering>
</event>
<event>
 6    0  0.1631680E+002  0.1248468E+03  0.7546771E-02  0.1235309E+00
         21   -1    0    0  503  502  0.00000000000E+00  0.00000000000E+00  0.11220187449E+03  0.11220187449E+03  0.00000000000E+00 0.  1.
          1   -1    0    0  505    0 -0.00000000000E+00 -0.00000000000E+00 -0.19063738080E+04  0.19063738080E+04  0.00000000000E+00 0. -1.
         21    1    1    2  503  501 -0.19368560555E+02  0.51096543983E+02 -0.95487760667E+01  0.55472309032E+02  0.00000000000E+00 0.  1.
         21    1    1    2  504  502 -0.99541094972E+02 -0.83023764415E+02  0.31373130866E+02  0.13336284485E+03  0.00000000000E+00 0.  1.
         21    1    1    2  505  504 -0.47369951424E+02  0.31380904838E+02 -0.40038009684E+03  0.40439200713E+03  0.00000000000E+00 0.  1.
          1    1    1    2  501    0  0.16627960695E+03  0.54631559307E+00 -0.14156161915E+04  0.14253485215E+04  0.00000000000E+00 0. -1.
<scales pt_clust_3="54.64429" pt_clust_4="124.84678" pt_clust_5="57.82313" pt_clust_6="14000.00000"></scales>
<clustering>
<clus scale="   54.644">  1  3  2 -1</clus>
<clus scale="   57.823">  2  5  1 -1</clus>
<clus scale="  124.847">  1  4  2 -1</clus>
<clus scale="   54.644">  1  3  2 -1</clus>
</clustering>
</event>
<event>
 6    0  0.1631680E+002  0.4138457E+03  0.7546771E-02  0.1039088E+00
         21   -1    0    0  501  502  0.00000000000E+00  0.00000000000E+00  0.22383668609E+03  0.22383668609E+03  0.00000000000E+00 0.  1.
          1   -1    0    0  505    0 -0.00000000000E+00 -0.00000000000E+00 -0.17725812247E+04  0.17725812247E+04  0.00000000000E+00 0. -1.
         21    1    1    2  503  504 -0.39223801406E+02 -0.18028910681E+01 -0.13854278512E+03  0.14399951501E+03  0.00000000000E+00 0. -1.
         21    1    1    2  504  502 -0.37534087257E+03 -0.15801590499E+03 -0.53702105381E+02  0.41077209371E+03  0.00000000000E+00 0.  1.
         21    1    1    2  505  503 -0.18386427802E+02  0.23820842103E+02 -0.47652538817E+02  0.56358297539E+02  0.00000000000E+00 0.  1.
          1    1    1    2  501    0  0.43295110178E+03  0.13599795396E+03 -0.13088471093E+04  0.13852880045E+04  0.00000000000E+00 0. -1.
<scales pt_clust_3="40.73374" pt_clust_4="14000.00000" pt_clust_5="30.09141" pt_clust_6="413.84573"></scales>
<clustering>
<clus scale="   30.091">  2  5  1 -1</clus>
<clus scale="   40.734">  2  3  1 -1</clus>
<clus scale="  413.846">  2  6  1 -1</clus>
<clus scale="  413.846">  1  3  2 -1</clus>
</clustering>
</event>
<event>
 6    0  0.1631680E+002  0.1394482E+03  0.7546771E-02  0.1214073E+00
         21   -1    0    0  503  502  0.00000000000E+00  0.00000000000E+00  0.30035526253E+03  0.30035526253E+03  0.00000000000E+00 0. -1.
          1   -1    0    0  504    0 -0.00000000000E+00 -0.00000000000E+00 -0.13465752625E+04  0.13465752625E+04  0.00000000000E+00 0. -1.
         21    1    1    2  503  505  0.30188749856E+02  0.14459938322E+03  0.17229981951E+03  0.22695279256E+03  0.00000000000E+00 0. -1.
         21    1    1    2  504  502 -0.73613999411E+02 -0.23752275060E+02  0.81577602982E+02  0.11241929011E+03  0.00000000000E+00 0. -1.
         21    1    1    2  505  501  0.13897222841E+02 -0.55228790518E+02 -0.33713301815E+03  0.34190937985E+03  0.00000000000E+00 0. -1.
          1    1    1    2  501    0  0.29528026714E+02 -0.65618317645E+02 -0.96296440431E+03  0.96564906251E+03  0.00000000000E+00 0. -1.
<scales pt_clust_3="128.37374" pt_clust_4="77.35109" pt_clust_5="48.45073" pt_clust_6="48.45073"></scales>
<clustering>
<clus scale="   48.451">  5  6 -1 -1</clus>
<clus scale="   77.351">  1  4  2 -1</clus>
<clus scale="  128.374">  1  3  2 -1</clus>
<clus scale="   77.351">  1  3  2 -1</clus>
</clustering>
</event>
<event>
 6    0  0.1631680E+002  0.1725161E+03  0.7546771E-02  0.1175249E+00
         21   -1    0    0  501  502  0.00000000000E+00  0.00000000000E+00  0.14271595423E+03  0.14271595423E+03  0.00000000000E+00 0.  1.
          2   -1    0    0  503    0 -0.00000000000E+00 -0.00000000000E+00 -0.21518918941E+04  0.21518918941E+04  0.00000000000E+00 0.  1.
         21    1    1    2  503  505  0.97318304421E+02 -0.41656784599E+02 -0.18653849904E+04  0.18683862830E+04  0.00000000000E+00 0.  1.
         21    1    1    2  504  502 -0.46383972175E+02  0.33052906586E+02  0.15943149462E+02  0.59145173289E+02  0.00000000000E+00 0.  1.
         21    1    1    2  505  504  0.20768256965E+01  0.12906072083E+03  0.33434100349E+02  0.13333724885E+03  0.00000000000E+00 0.  1.
          2    1    1    2  501    0 -0.53011157942E+02 -0.12045684281E+03 -0.19316819921E+03  0.23373914313E+03  0.00000000000E+00 0.  1.
<scales pt_clust_3="105.85906" pt_clust_4="53.00608" pt_clust_5="53.00608" pt_clust_6="152.95221"></scales>
<clustering>
<clus scale="   53.006">  4  5 -1 -1</clus>
<clus scale="  105.859">  2  3  1 -1</clus>
<clus scale="  152.952">  2  6  1 -1</clus>
<clus scale="  172.516">  1  3  2 -1</clus>
</clustering>
</event>
<event>
 6    0  0.1631680E+002  0.1108930E+03  0.7546771E-02  0.1258925E+00
          1   -1    0    0  504    0 -0.00000000000E+00  0.00000000000E+00  0.15302412051E+04  0.15302412051E+04  0.00000000000E+00 0. -1.
         21   -1    0    0  503  502  0.00000000000E+00 -0.00000000000E+00 -0.12839934428E+04  0.12839934428E+04  0.00000000000E+00 0. -1.
         21    1    1    2  503  501  0.10630092718E+03  0.49322584128E+02 -0.61720824861E+03  0.62823453150E+03  0.00000000000E+00 0. -1.
         21    1    1    2  504  505 -0.50555846987E+02  0.33647252368E+02  0.40510084243E+03  0.40962754277E+03  0.00000000000E+00 0. -1.
         21    1    1    2  505  502  0.32839505875E+01 -0.30997899266E+02 -0.65725491320E+03  0.65799367400E+03  0.00000000000E+00 0. -1.
          1    1    1    2  501    0 -0.59029030777E+02 -0.51971937230E+02  0.11156100817E+04  0.11183788996E+04  0.00000000000E+00 0. -1.
<scales pt_clust_3="110.89297" pt_clust_4="60.65729" pt_clust_5="31.17137" pt_clust_6="14000.00000"></scales>
<clustering>
<clus scale="   31.171">  2  5  1 -1</clus>
<clus scale="   60.657">  1  4  2 -1</clus>
<clus scale="  110.893">  2  3  1 -1</clus>
<clus scale="   31.171">  2  3  1 -1</clus>
</clustering>
</event>
<event>
 6    0  0.1631680E+002  0.2021315E+03  0.7546771E-02  0.1147953E+00
          2   -1    0    0  505    0 -0.00000000000E+00  0.00000000000E+00  0.14657442677E+04  0.14657442677E+04  0.00000000000E+00 0. -1.
         21   -1    0    0  503  502  0.00000000000E+00 -0.00000000000E+00 -0.93724386585E+02  0.93724386585E+02  0.00000000000E+00 0. -1.
         21    1    1    2  503  501  0.99260427929E+02 -0.90726177752E+02  0.14175663197E+02  0.13522137889E+03  0.00000000000E+00 0. -1.
         21    1    1    2  504  502 -0.13463062355E+03  0.82112530268E+02  0.49767634281E+03  0.52206284547E+03  0.00000000000E+00 0. -1.
         21    1    1    2  505  504 -0.34287079688E+02  0.48393184328E+01  0.82187863756E+03  0.82260775447E+03  0.00000000000E+00 0. -1.
          2    1    1    2  501    0  0.69657275308E+02  0.37743290511E+01  0.38289237527E+02  0.79576675436E+02  0.00000000000E+00 0. -1.
<scales pt_clust_3="60.86790" pt_clust_4="183.20839" pt_clust_5="34.62691" pt_clust_6="60.86790"></scales>
<clustering>
<clus scale="   34.627">  1  5  2 -1</clus>
<clus scale="   60.868">  3  6 -1 -1</clus>
<clus scale="  183.208">  1  4  2 -1</clus>
<clus scale="  202.131">  2  3  1 -1</clus>
</clustering>
</event>
<event>
 6    0  0.1631680E+002  0.1401210E+03  0.7546771E-02  0.1213166E+00
          2   -1    0    0  502    0 -0.00000000000E+00  0.00000000000E+00  0.31439441216E+03  0.31439441216E+03  0.00000000000E+00 0. -1.
         21   -1    0    0  504  502  0.00000000000E+00 -0.00000000000E+00 -0.13778261912E+04  0.13778261912E+04  0.00000000000E+00 0. -1.
         21    1    1    2  503  501 -0.11152680429E+03 -0.27836391776E+02  0.53413067443E+02  0.12675191737E+03  0.00000000000E+00 0. -1.
         21    1    1    2  504  505  0.60615235596E+01 -0.37018032145E+02 -0.88785647477E+03  0.88864852251E+03  0.00000000000E+00 0. -1.
         21    1    1    2  505  503 -0.20247710457E+02 -0.50130780774E+02 -0.41850518768E+03  0.42198300567E+03  0.00000000000E+00 0. -1.
          2    1    1    2  501    0  0.12571299119E+03  0.11498520470E+03  0.18951681598E+03  0.25483715780E+03  0.00000000000E+00 0. -1.
<scales pt_clust_3="140.12103" pt_clust_4="37.51102" pt_clust_5="83.27684" pt_clust_6="14000.00000"></scales>
<clustering>
<clus scale="   37.511">  2  4  1 -1</clus>
<clus scale="   83.277">  2  5  1 -1</clus>
<clus scale="  140.121">  2  3  1 -1</clus>
<clus scale="   37.511">  2  3  1 -1</clus>
</clustering>
</event>
<event>
 6    0  0.1631680E+002  0.7931054E+02  0.7546771E-02  0.1331019E+00
         21   -1    0    0  501  502  0.00000000000E+00  0.00000000000E+00  0.23758210058E+03  0.23758210058E+03  0.00000000000E+00 0. -1.
          2   -1    0    0  503    0 -0.00000000000E+00 -0.00000000000E+00 -0.10639787782E+04  0.10639787782E+04  0.00000000000E+00 0.  1.
         21    1    1    2  503  505 -0.23551311344E+02 -0.19596778548E+02 -0.42035908341E+03  0.42147414749E+03  0.00000000000E+00 0. -1.
         21    1    1    2  504  502  0.66275939797E+01 -0.77808293706E+02  0.21409386216E+03  0.22789084533E+03  0.00000000000E+00 0. -1.
         21    1    1    2  505  504 -0.77500041530E+00  0.12352178910E+03 -0.23244497470E+03  0.26322784669E+03  0.00000000000E+00 0. -1.
          2    1    1    2  501    0  0.17698717780E+02 -0.26116716848E+02 -0.38768648170E+03  0.38896803931E+03  0.00000000000E+00 0.  1.
<scales pt_clust_3="30.63818" pt_clust_4="14000.00000" pt_clust_5="79.31054" pt_clust_6="38.10959"></scales>
<clustering>
<clus scale="   30.638">  2  3  1 -1</clus>
<clus scale="   38.110">  2  6  1 -1</clus>
<clus scale="   79.311">  2  5  1 -1</clus>
<clus scale="   79.311">  1  3  2 -1</clus>
</clustering>
</event>
<event>
 6    0  0.1631680E+002  0.5526583E+02  0.7546771E-02  0.1418846E+00
         21   -1    0    0  504  502  0.00000000000E+00  0.00000000000E+00  0.77258354407E+02  0.77258354407E+02  0.00000000000E+00 0.  1.
          2   -1    0    0  503    0 -0.00000000000E+00 -0.00000000000E+00 -0.29178749560E+04  0.29178749560E+04  0.00000000000E+00 0.  1.
         21    1    1    2  503  505 -0.78712608865E+02  0.27311615906E+02 -0.13264390116E+04  0.13290530654E+04  0.00000000000E+00 0.  1.
         21    1    1    2  504  501  0.89080127312E+02 -0.30157690875E+02  0.11233198059E+02  0.94715047059E+02  0.00000000000E+00 0.  1.
         21    1    1    2  505  502 -0.44638619920E+02  0.62948396467E+00  0.91565183126E+00  0.44652447376E+02  0.00000000000E+00 0.  1.
          2    1    1    2  501    0  0.34271101473E+02  0.22165910042E+01 -0.15263264399E+04  0.15267127506E+04  0.00000000000E+00 0.  1.
<scales pt_clust_3="55.26583" pt_clust_4="14000.00000" pt_clust_5="44.10497" pt_clust_6="34.34271"></scales>
<clustering>
<clus scale="   34.343">  2  6  1 -1</clus>
<clus scale="   44.105">  1  5  2 -1</clus>
<clus scale="   55.266">  2  3  1 -1</clus>
<clus scale="   44.105">  1  3  2 -1</clus>
</clustering>
</event>
<event>
 6    0  0.1631680E+002  0.1415272E+03  0.7546771E-02  0.1211289E+00
         21   -1    0    0  505  502  0.00000000000E+00  0.00000000000E+00  0.37608693874E+03  0.37608693874E+03  0.00000000000E+00 0. -1.
         -4   -1    0    0    0  501 -0.00000000000E+00 -0.00000000000E+00 -0.25854612260E+03  0.25854612260E+03  0.00000000000E+00 0. -1.
         21    1    1    2  503  504 -0.48611393637E+02  0.13035630076E+03 -0.87497988531E+02  0.16435245887E+03  0.00000000000E+00 0. -1.
         21    1    1    2  504  501 -0.28554119966E+02  0.11985317891E+02 -0.64280852198E+02  0.71351338959E+02  0.00000000000E+00 0. -1.
         21    1    1    2  505  503  0.72775771233E+02 -0.58772556931E+01  0.25071815394E+03  0.26113300773E+03  0.00000000000E+00 0. -1.
         -4    1    1    2    0  502  0.43897423708E+01 -0.13646436295E+03  0.18601502926E+02  0.13779625578E+03  0.00000000000E+00 0. -1.
<scales pt_clust_3="141.52724" pt_clust_4="30.96749" pt_clust_5="72.20977" pt_clust_6="14000.00000"></scales>
<clustering>
<clus scale="   30.967">  2  4  1 -1</clus>
<clus scale="   72.210">  1  5  2 -1</clus>
<clus scale="  141.527">  2  3  1 -1</clus>
<clus scale="   72.210">  1  3  2 -1</clus>
</clustering>
</event>
<event>
 6    0  0.1631680E+002  0.7228401E+02  0.7546771E-02  0.1352494E+00
          2   -1    0    0  504    0 -0.00000000000E+00  0.00000000000E+00  0.16149337241E+04  0.16149337241E+04  0.00000000000E+00 0. -1.
         21   -1    0    0  501  502  0.00000000000E+00 -0.00000000000E+00 -0.38002564064E+02  0.38002564064E+02  0.00000000000E+00 0.  1.
         21    1    1    2  503  505 -0.75808469233E+01 -0.61757035945E+02  0.16735354561E+03  0.17854582033E+03  0.00000000000E+00 0.  1.
         21    1    1    2  504  503  0.32674542621E+02 -0.23172884247E+02  0.52996274843E+03  0.53147448013E+03  0.00000000000E+00 0.  1.
         21    1    1    2  505  502  0.43972482991E+02  0.62985345908E+02  0.18835920218E+02  0.79091876637E+02  0.00000000000E+00 0.  1.
          2    1    1    2  501    0 -0.69066178689E+02  0.21944574283E+02  0.86077894580E+03  0.86382411110E+03  0.00000000000E+00 0. -1.
<scales pt_clust_3="72.28401" pt_clust_4="40.05756" pt_clust_5="14000.00000" pt_clust_6="43.22249"></scales>
<clustering>
<clus scale="   40.058">  1  4  2 -1</clus>
<clus scale="   43.222">  1  6  2 -1</clus>
<clus scale="   72.284">  1  3  2 -1</clus>
<clus scale="   72.284">  2  3  1 -1</clus>
</clustering>
</event>
<event>
 6    0  0.1631680E+002  0.8107612E+02  0.7546771E-02  0.1326025E+00
          3   -1    0    0  503    0 -0.00000000000E+00  0.00000000000E+00  0.14138572786E+03  0.14138572786E+03  0.00000000000E+00 0.  1.
         21   -1    0    0  505  502  0.00000000000E+00 -0.00000000000E+00 -0.50107246846E+03  0.50107246846E+03  0.00000000000E+00 0.  1.
         21    1    1    2  503  502  0.14131938951E+02  0.63078276647E+02 -0.17919413415E+01  0.64666774599E+02  0.00000000000E+00 0.  1.
         21    1    1    2  504  501  0.91738407803E+02 -0.23187519794E+01 -0.22146070369E+03  0.23972099481E+03  0.00000000000E+00 0.  1.
         21    1    1    2  505  504 -0.71210047722E+02  0.23282666711E+02 -0.20882646110E+03  0.22185906409E+03  0.00000000000E+00 0.  1.
          3    1    1    2  501    0 -0.34660299032E+02 -0.84042191379E+02  0.72392365525E+02  0.11621136281E+03  0.00000000000E+00 0.  1.
<scales pt_clust_3="64.64194" pt_clust_4="14000.00000" pt_clust_5="81.07612" pt_clust_6="37.47605"></scales>
<clustering>
<clus scale="   64.642">  1  3  2 -1</clus>
<clus scale="   37.476">  1  6  2 -1</clus>
<clus scale="   81.076">  2  5  1 -1</clus>
<clus scale="   81.076">  2  3  1 -1</clus>
</clustering>
</event>
<event>
 6    0  0.1631680E+002  0.8313320E+02  0.7546771E-02  0.1320388E+00
         -3   -1    0    0    0  501 -0.00000000000E+00  0.00000000000E+00  0.43737345653E+02  0.43737345653E+02  0.00000000000E+00 0. -1.
         21   -1    0    0  505  502  0.00000000000E+00 -0.00000000000E+00 -0.16597048788E+04  0.16597048788E+04  0.00000000000E+00 0. -1.
         21    1    1    2  503  501  0.16745085318E+02  0.37039906103E+02 -0.46122573171E+02  0.61478811653E+02  0.00000000000E+00 0. -1.
         21    1    1    2  504  502 -0.45371797676E+02 -0.77587614855E+02 -0.72157299819E+03  0.72714924859E+03  0.00000000000E+00 0. -1.
         21    1    1    2  505  503 -0.15166457917E+02  0.86069490194E+02 -0.84714084138E+03  0.85163700232E+03  0.00000000000E+00 0. -1.
         -3    1    1    2    0  504  0.43793170275E+02 -0.45521781442E+02 -0.11311203817E+01  0.63177161868E+02  0.00000000000E+00 0. -1.
<scales pt_clust_3="40.64914" pt_clust_4="83.13320" pt_clust_5="14000.00000" pt_clust_6="59.78000"></scales>
<clustering>
<clus scale="   40.649">  1  3  2 -1</clus>
<clus scale="   59.780">  1  6  2 -1</clus>
<clus scale="   83.133">  1  4  2 -1</clus>
<clus scale="   83.133">  2  3  1 -1</clus>
</clustering>
</event>
<event>
 6    0  0.1631680E+002  0.9533787E+02  0.7546771E-02  0.1290417E+00
         21   -1    0    0  505  502  0.00000000000E+00  0.00000000000E+00  0.30833177549E+03  0.30833177549E+03  0.00000000000E+00 0.  1.
          1   -1    0    0  504    0 -0.00000000000E+00 -0.00000000000E+00 -0.33832276102E+04  0.33832276102E+04  0.00000000000E+00 0.  1.
         21    1    1    2  503  502 -0.34954237701E+02  0.51976049015E+01  0.25458212788E+03  0.25702309948E+03  0.00000000000E+00 0.  1.
         21    1    1    2  504  503 -0.75646666372E+02  0.63089861394E+02 -0.43997492706E+03  0.45086659356E+03  0.00000000000E+00 0. -1.
         21    1    1    2  505  501  0.15082304009E+02 -0.53352453098E+02  0.29678953888E+02  0.62887204181E+02  0.00000000000E+00 0. -1.
          1    1    1    2  501    0  0.95518600064E+02 -0.14935013197E+02 -0.29191819894E+04  0.29207824885E+04  0.00000000000E+00 0.  1.
<scales pt_clust_3="35.33856" pt_clust_4="95.33787" pt_clust_5="51.24232" pt_clust_6="14000.00000"></scales>
<clustering>
<clus scale="   35.339">  1  3  2 -1</clus>
<clus scale="   51.242">  1  5  2 -1</clus>
<clus scale="   95.338">  1  4  2 -1</clus>
<clus scale="   35.339">  1  3  2 -1</clus>
</clustering>
</event>
<event>
 6    0  0.1631680E+002  0.1501221E+03  0.7546771E-02  0.1200323E+00
         21   -1    0    0  505  502  0.00000000000E+00  0.00000000000E+00  0.60078431640E+03  0.60078431640E+03  0.00000000000E+00 0. -1.
          2   -1    0    0  503    0 -0.00000000000E+00 -0.00000000000E+00 -0.54191035946E+03  0.54191035946E+03  0.00000000000E+00 0. -1.
         21    1    1    2  503  504 -0.33731587729E+02 -0.96292460354E+02 -0.59901749741E+02  0.11831431677E+03  0.00000000000E+00 0. -1.
         21    1    1    2  504  502 -0.21108111202E+02 -0.32081362018E+02  0.10505137014E+03  0.11185059908E+03  0.00000000000E+00 0. -1.
         21    1    1    2  505  501 -0.45624660513E+02  0.16795761356E+03  0.43979916386E+03  0.47298485614E+03  0.00000000000E+00 0. -1.
          2    1    1    2  501    0  0.10046435944E+03 -0.39583791192E+02 -0.42607482732E+03  0.43954490387E+03  0.00000000000E+00 0. -1.
<scales pt_clust_3="104.24125" pt_clust_4="38.40268" pt_clust_5="14000.00000" pt_clust_6="150.12211"></scales>
<clustering>
<clus scale="   38.403">  1  4  2 -1</clus>
<clus scale="  104.241">  2  3  1 -1</clus>
<clus scale="  150.122">  2  6  1 -1</clus>
<clus scale="   38.403">  1  3  2 -1</clus>
</clustering>
</event>
<event>
 6    0  0.1631680E+002  0.1301709E+03  0.7546771E-02  0.1227202E+00
         21   -1    0    0  505  502  0.00000000000E+00  0.00000000000E+00  0.17070490653E+03  0.17070490653E+03  0.00000000000E+00 0. -1.
          2   -1    0    0  503    0 -0.00000000000E+00 -0.00000000000E+00 -0.58189655019E+03  0.58189655019E+03  0.00000000000E+00 0. -1.
         21    1    1    2  503  502 -0.11243796523E+03  0.30294354770E+02 -0.22994529330E+03  0.25774964959E+03  0.00000000000E+00 0. -1.
         21    1    1    2  504  501 -0.32442603884E+02 -0.58997106951E+02  0.96620593708E+02  0.11776553105E+03  0.00000000000E+00 0. -1.
         21    1    1    2  505  504 -0.15002130046E+02 -0.33863324424E+02  0.13063064037E+02  0.39273811745E+02  0.00000000000E+00 0. -1.
          2    1    1    2  501    0  0.15988269916E+03  0.62566076605E+02 -0.29093000811E+03  0.33781246432E+03  0.00000000000E+00 0. -1.
<scales pt_clust_3="130.17090" pt_clust_4="112.38706" pt_clust_5="31.08714" pt_clust_6="14000.00000"></scales>
<clustering>
<clus scale="   31.087">  4  5 -1 -1</clus>
<clus scale="  112.387">  1  4  2 -1</clus>
<clus scale="  130.171">  2  3  1 -1</clus>
<clus scale="  112.387">  1  3  2 -1</clus>
</clustering>
</event>
<event>
 6    0  0.1631680E+002  0.7108368E+02  0.7546771E-02  0.1356446E+00
         21   -1    0    0  505  502  0.00000000000E+00  0.00000000000E+00  0.53107930288E+02  0.53107930288E+02  0.00000000000E+00 0. -1.
         -1   -1    0    0    0  501 -0.00000000000E+00 -0.00000000000E+00 -0.26715222095E+04  0.26715222095E+04  0.00000000000E+00 0.  1.
         21    1    1    2  503  501  0.18406291027E+02 -0.26282915302E+02 -0.50170903582E+03  0.50273406470E+03  0.00000000000E+00 0.  1.
         21    1    1    2  504  502 -0.77554386706E+01  0.37957216780E+02 -0.23212170149E+02  0.45163059879E+02  0.00000000000E+00 0. -1.
         21    1    1    2  505  503  0.60956383626E+02 -0.81632316477E+02 -0.23803409576E+02  0.10462369763E+03  0.00000000000E+00 0. -1.
         -1    1    1    2    0  504 -0.71607235983E+02  0.69958014999E+02 -0.20696896637E+04  0.20721093176E+04  0.00000000000E+00 0.  1.
<scales pt_clust_3="32.08712" pt_clust_4="38.27805" pt_clust_5="14000.00000" pt_clust_6="71.08368"></scales>
<clustering>
<clus scale="   32.087">  2  3  1 -1</clus>
<clus scale="   38.278">  1  4  2 -1</clus>
<clus scale="   71.084">  2  6  1 -1</clus>
<clus scale="   38.278">  1  3  2 -1</clus>
</clustering>
</event>
<event>
 6    0  0.1631680E+002  0.1141377E+03  0.7546771E-02  0.1253094E+00
         21   -1    0    0  501  502  0.00000000000E+00  0.00000000000E+00  0.15390473796E+03  0.15390473796E+03  0.00000000000E+00 0.  1.
          3   -1    0    0  503    0 -0.00000000000E+00 -0.00000000000E+00 -0.17571933961E+03  0.17571933961E+03  0.00000000000E+00 0.  1.
         21    1    1    2  503  505 -0.24586541874E+02 -0.33359781429E+02 -0.59229744147E+02  0.72287866547E+02  0.00000000000E+00 0.  1.
         21    1    1    2  504  502 -0.59714888815E+02  0.41242456909E+01  0.49637116705E+02  0.77760662957E+02  0.00000000000E+00 0.  1.
         21    1    1    2  505  504 -0.35808238717E+02 -0.24699683382E+02  0.13243149608E+02  0.45471808087E+02  0.00000000000E+00 0.  1.
          3    1    1    2  501    0  0.12010966941E+03  0.53935219120E+02 -0.25465123815E+02  0.13410373998E+03  0.00000000000E+00 0.  1.
<scales pt_clust_3="41.44120" pt_clust_4="34.98639" pt_clust_5="34.98639" pt_clust_6="106.50403"></scales>
<clustering>
<clus scale="   34.986">  4  5 -1 -1</clus>
<clus scale="   41.441">  2  3  1 -1</clus>
<clus scale="  106.504">  2  6  1 -1</clus>
<clus scale="  114.138">  1  3  2 -1</clus>
</clustering>
</event>
<event>
 6    0  0.1631680E+002  0.9553269E+02  0.7546771E-02  0.1289981E+00
          1   -1    0    0  503    0 -0.00000000000E+00  0.00000000000E+00  0.65798739543E+03  0.65798739543E+03  0.00000000000E+00 0.  1.
         21   -1    0    0  501  502  0.00000000000E+00 -0.00000000000E+00 -0.47518333682E+03  0.47518333682E+03  0.00000000000E+00 0.  1.
         21    1    1    2  503  505  0.89184215411E+01  0.29900289731E+02  0.96564991413E+02  0.10148085108E+03  0.00000000000E+00 0.  1.
         21    1    1    2  504  502  0.37813810502E+02  0.38405275870E+02 -0.36651941123E+03  0.37046096730E+03  0.00000000000E+00 0.  1.
         21    1    1    2  505  504  0.55749088777E+02 -0.64916195100E+02 -0.80930673314E+02  0.11777880611E+03  0.00000000000E+00 0.  1.
          1    1    1    2  501    0 -0.10248132082E+03 -0.33893705003E+01  0.53368915174E+03  0.54345010777E+03  0.00000000000E+00 0.  1.
<scales pt_clust_3="31.20201" pt_clust_4="53.99386" pt_clust_5="95.53269" pt_clust_6="14000.00000"></scales>
<clustering>
<clus scale="   31.202">  1  3  2 -1</clus>
<clus scale="   53.994">  2  4  1 -1</clus>
<clus scale="   95.533">  2  5  1 -1</clus>
<clus scale="   53.994">  2  3  1 -1</clus>
</clustering>
</event>
<event>
 6    0  0.1631680E+002  0.1584064E+03  0.7546771E-02  0.1190508E+00
          1   -1    0    0  503    0 -0.00000000000E+00  0.00000000000E+00  0.37285010815E+04  0.37285010815E+04  0.00000000000E+00 0. -1.
         21   -1    0    0  504  502  0.00000000000E+00 -0.00000000000E+00 -0.13908823458E+03  0.13908823458E+03  0.00000000000E+00 0.  1.
         21    1    1    2  503  505 -0.38116495576E+02  0.15544238756E+02  0.15657763257E+03  0.16189825698E+03  0.00000000000E+00 0.  1.
         21    1    1    2  504  501 -0.20322803825E+02 -0.41102415142E+02 -0.12498417627E+03  0.13312952041E+03  0.00000000000E+00 0.  1.
         21    1    1    2  505  502 -0.49608662262E+02 -0.12743984576E+03  0.15569111699E+04  0.15629057312E+04  0.00000000000E+00 0. -1.
          1    1    1    2  501    0  0.10804796166E+03  0.15299802214E+03  0.20009082208E+04  0.20096558075E+04  0.00000000000E+00 0. -1.
<scales pt_clust_3="41.16419" pt_clust_4="45.85561" pt_clust_5="14000.00000" pt_clust_6="158.40638"></scales>
<clustering>
<clus scale="   41.164">  1  3  2 -1</clus>
<clus scale="   45.856">  2  4  1 -1</clus>
<clus scale="  158.406">  2  6  1 -1</clus>
<clus scale="   45.856">  2  3  1 -1</clus>
</clustering>
</event>
<event>
 6    0  0.1631680E+002  0.1067200E+03  0.7546771E-02  0.1266767E+00
         21   -1    0    0  503  502  0.00000000000E+00  0.00000000000E+00  0.88122320672E+02  0.88122320672E+02  0.00000000000E+00 0.  1.
          2   -1    0    0  504    0 -0.00000000000E+00 -0.00000000000E+00 -0.10044376875E+04  0.10044376875E+04  0.00000000000E+00 0.  1.
         21    1    1    2  503  501  0.61444233197E+02  0.14302954504E+02  0.70542912467E+01  0.63480164821E+02  0.00000000000E+00 0.  1.
         21    1    1    2  504  505 -0.81973907583E+01  0.10045531556E+03 -0.71762870640E+03  0.72467194502E+03  0.00000000000E+00 0.  1.
         21    1    1    2  505  502 -0.18730980628E+02  0.48106971832E+02 -0.21034527382E+02  0.55745687872E+02  0.00000000000E+00 0.  1.
          2    1    1    2  501    0 -0.34515861811E+02 -0.16286524189E+03 -0.18470642424E+03  0.24866221041E+03  0.00000000000E+00 0.  1.
<scales pt_clust_3="64.65728" pt_clust_4="14000.00000" pt_clust_5="51.62490" pt_clust_6="106.72000"></scales>
<clustering>
<clus scale="   51.625">  1  5  2 -1</clus>
<clus scale="   64.657">  1  3  2 -1</clus>
<clus scale="  106.720">  1  6  2 -1</clus>
<clus scale="   51.625">  1  3  2 -1</clus>
</clustering>
</event>
<event>
 6    0  0.1631680E+002  0.1275574E+03  0.7546771E-02  0.1231126E+00
         -1   -1    0    0    0  501 -0.00000000000E+00  0.00000000000E+00  0.27262801187E+03  0.27262801187E+03  0.00000000000E+00 0. -1.
         21   -1    0    0  504  502  0.00000000000E+00 -0.00000000000E+00 -0.19264535522E+03  0.19264535522E+03  0.00000000000E+00 0. -1.
         21    1    1    2  503  501  0.10332064439E+03 -0.78322598616E+01  0.50354220074E+02  0.11520437201E+03  0.00000000000E+00 0. -1.
         21    1    1    2  504  503  0.79109101629E+02 -0.51035417773E+01 -0.78093308608E+02  0.11127830403E+03  0.00000000000E+00 0. -1.
         21    1    1    2  505  502 -0.29965928527E+02 -0.19699713827E+02 -0.16464713105E+02  0.39460389950E+02  0.00000000000E+00 0. -1.
         -1    1    1    2    0  505 -0.15246381749E+03  0.32635515465E+02  0.12418645829E+03  0.19933030110E+03  0.00000000000E+00 0. -1.
<scales pt_clust_3="14000.00000" pt_clust_4="64.02400" pt_clust_5="35.86134" pt_clust_6="127.55740"></scales>
<clustering>
<clus scale="   35.861">  2  5  1 -1</clus>
<clus scale="   64.024">  2  4  1 -1</clus>
<clus scale="  127.557">  2  6  1 -1</clus>
<clus scale="   35.861">  2  3  1 -1</clus>
</clustering>
</event>
<event>
 6    0  0.1631680E+002  0.1045354E+03  0.7546771E-02  0.1271038E+00
         -3   -1    0    0    0  501 -0.00000000000E+00  0.00000000000E+00  0.38941109956E+03  0.38941109956E+03  0.00000000000E+00 0.  1.
         21   -1    0    0  503  502  0.00000000000E+00 -0.00000000000E+00 -0.13725812774E+03  0.13725812774E+03  0.00000000000E+00 0.  1.
         21    1    1    2  503  505 -0.29162969937E+02  0.79340527483E+01  0.15867411648E+02  0.34135066442E+02  0.00000000000E+00 0. -1.
         21    1    1    2  504  502 -0.57541121598E+02 -0.77968362486E+02 -0.93283370789E+02  0.13450588645E+03  0.00000000000E+00 0.  1.
         21    1    1    2  505  501  0.49534506226E+02 -0.10312400248E+02  0.10237037772E+03  0.11419153708E+03  0.00000000000E+00 0.  1.
         -3    1    1    2    0  504  0.37169585309E+02  0.80346709986E+02  0.22719855323E+03  0.24383673732E+03  0.00000000000E+00 0.  1.
<scales pt_clust_3="30.22297" pt_clust_4="14000.00000" pt_clust_5="49.20495" pt_clust_6="104.53538"></scales>
<clustering>
<clus scale="   30.223">  2  3  1 -1</clus>
<clus scale="   49.205">  1  5  2 -1</clus>
<clus scale="  104.535">  1  6  2 -1</clus>
<clus scale="   30.223">  2  3  1 -1</clus>
</clustering>
</event>
<event>
 6    0  0.1631680E+002  0.4942808E+02  0.7546771E-02  0.1448451E+00
          1   -1    0    0  505    0 -0.00000000000E+00  0.00000000000E+00  0.16347424535E+04  0.16347424535E+04  0.00000000000E+00 0. -1.
         21   -1    0    0  504  502  0.00000000000E+00 -0.00000000000E+00 -0.38700445717E+03  0.38700445717E+03  0.00000000000E+00 0. -1.
         21    1    1    2  503  502 -0.30030569748E+02  0.23751161503E+02 -0.14110168604E+03  0.14620409910E+03  0.00000000000E+00 0. -1.
         21    1    1    2  504  501  0.47563366152E+02 -0.68405246826E+02 -0.22657153885E+03  0.24140466817E+03  0.00000000000E+00 0. -1.
         21    1    1    2  505  503  0.22018995532E+02 -0.38467545701E+02  0.53319600353E+02  0.69336628259E+02  0.00000000000E+00 0. -1.
          1    1    1    2  501    0 -0.39551791935E+02  0.83121631023E+02  0.15620916209E+04  0.15648015151E+04  0.00000000000E+00 0. -1.
<scales pt_clust_3="38.28776" pt_clust_4="14000.00000" pt_clust_5="43.15691" pt_clust_6="49.42808"></scales>
<clustering>
<clus scale="   38.288">  2  3  1 -1</clus>
<clus scale="   43.157">  1  5  2 -1</clus>
<clus scale="   49.428">  1  6  2 -1</clus>
<clus scale="   38.288">  2  3  1 -1</clus>
</clustering>
</event>
<event>
 6    0  0.1631680E+002  0.1115901E+03  0.7546771E-02  0.1257653E+00
         21   -1    0    0  504  502  0.00000000000E+00  0.00000000000E+00  0.33040793125E+03  0.33040793125E+03  0.00000000000E+00 0.  1.
         -1   -1    0    0    0  501 -0.00000000000E+00 -0.00000000000E+00 -0.42260930489E+03  0.42260930489E+03  0.00000000000E+00 0.  1.
         21    1    1    2  503  502  0.13836993433E+02 -0.49456836403E+02  0.13231022761E+03  0.14192757795E+03  0.00000000000E+00 0.  1.
         21    1    1    2  504  501  0.79664136500E+02 -0.15392912523E+02 -0.25386349689E+03  0.26651452391E+03  0.00000000000E+00 0.  1.
         21    1    1    2  505  503 -0.94411106831E+02 -0.42555233770E+02  0.15048849654E+03  0.18267783830E+03  0.00000000000E+00 0.  1.
         -1    1    1    2    0  505  0.90997689773E+00  0.10740498270E+03 -0.12113660090E+03  0.16189729598E+03  0.00000000000E+00 0.  1.
<scales pt_clust_3="51.35602" pt_clust_4="81.90309" pt_clust_5="111.59009" pt_clust_6="14000.00000"></scales>
<clustering>
<clus scale="   51.356">  1  3  2 -1</clus>
<clus scale="   81.903">  2  4  1 -1</clus>
<clus scale="  111.590">  1  5  2 -1</clus>
<clus scale="   51.356">  1  3  2 -1</clus>
</clustering>
</event>
<event>
 6    0  0.1631680E+002  0.1009598E+03  0.7546771E-02  0.1278290E+00
          1   -1    0    0  502    0 -0.00000000000E+00  0.00000000000E+00  0.17570663231E+04  0.17570663231E+04  0.00000000000E+00 0. -1.
         21   -1    0    0  505  502  0.00000000000E+00 -0.00000000000E+00 -0.35154242663E+03  0.35154242663E+03  0.00000000000E+00 0.  1.
         21    1    1    2  503  501 -0.61242787288E+02 -0.56880450952E+02  0.24653128784E+03  0.26031469529E+03  0.00000000000E+00 0. -1.
         21    1    1    2  504  503  0.64972890023E+02  0.45774842397E+02  0.58045130890E+01  0.79690055883E+02  0.00000000000E+00 0.  1.
         21    1    1    2  505  504  0.63947779103E+02 -0.36721583655E+02 -0.30209413905E+03  0.31096408475E+03  0.00000000000E+00 0.  1.
          1    1    1    2  501    0 -0.67677881837E+02  0.47827192210E+02  0.14552822346E+04  0.14576399139E+04  0.00000000000E+00 0. -1.
<scales pt_clust_3="100.95982" pt_clust_4="14000.00000" pt_clust_5="73.74139" pt_clust_6="80.94933"></scales>
<clustering>
<clus scale="   73.741">  2  5  1 -1</clus>
<clus scale="   80.949">  1  6  2 -1</clus>
<clus scale="  100.960">  1  3  2 -1</clus>
<clus scale="   73.741">  2  3  1 -1</clus>
</clustering>
</event>
<event>
 6    0  0.1631680E+002  0.1051667E+03  0.7546771E-02  0.1269792E+00
          2   -1    0    0  505    0 -0.00000000000E+00  0.00000000000E+00  0.22245912000E+03  0.22245912000E+03  0.00000000000E+00 0.  1.
         21   -1    0    0  504  502  0.00000000000E+00 -0.00000000000E+00 -0.11448483787E+03  0.11448483787E+03  0.00000000000E+00 0.  1.
         21    1    1    2  503  502  0.33409888970E+02 -0.37480121309E+02 -0.43904695170E+02  0.66697844286E+02  0.00000000000E+00 0.  1.
         21    1    1    2  504  501  0.84215868411E+01  0.61548062309E+02  0.66206999351E+02  0.90787960997E+02  0.00000000000E+00 0.  1.
         21    1    1    2  505  503 -0.79769386410E+02 -0.50005598384E+02  0.15260758087E+02  0.95376127073E+02  0.00000000000E+00 0.  1.
          2    1    1    2  501    0  0.37937910599E+02  0.25937657384E+02  0.70411219868E+02  0.84082025514E+02  0.00000000000E+00 0.  1.
<scales pt_clust_3="50.20936" pt_clust_4="39.52790" pt_clust_5="94.59396" pt_clust_6="39.52790"></scales>
<clustering>
<clus scale="   39.528">  4  6 -1 -1</clus>
<clus scale="   50.209">  2  3  1 -1</clus>
<clus scale="   94.594">  2  5  1 -1</clus>
<clus scale="   50.209">  2  3  1 -1</clus>
</clustering>
</event>
<event>
 6    0  0.1631680E+002  0.1306902E+03  0.7546771E-02  0.1226435E+00
          1   -1    0    0  503    0 -0.00000000000E+00  0.00000000000E+00  0.17964470523E+04  0.17964470523E+04  0.00000000000E+00 0.  1.
         21   -1    0    0  504  502  0.00000000000E+00 -0.00000000000E+00 -0.38801775906E+03  0.38801775906E+03  0.00000000000E+00 0.  1.
         21    1    1    2  503  505  0.55352433247E+02  0.24453083054E+02  0.23692977220E+03  0.24453540049E+03  0.00000000000E+00 0.  1.
         21    1    1    2  504  501 -0.44901814542E+02  0.65328661467E+02  0.15614816070E+03  0.17511783190E+03  0.00000000000E+00 0. -1.
         21    1    1    2  505  502 -0.11911587828E+02 -0.13528915187E+03 -0.36203603048E+03  0.38667186075E+03  0.00000000000E+00 0.  1.
          1    1    1    2  501    0  0.14609691226E+01  0.45507407344E+02  0.13773873908E+04  0.13781397182E+04  0.00000000000E+00 0.  1.
<scales pt_clust_3="75.62966" pt_clust_4="14000.00000" pt_clust_5="130.69022" pt_clust_6="45.53085"></scales>
<clustering>
<clus scale="   45.531">  1  6  2 -1</clus>
<clus scale="   75.630">  1  3  2 -1</clus>
<clus scale="  130.690">  2  5  1 -1</clus>
<clus scale="  130.690">  2  3  1 -1</clus>
</clustering>
</event>
<event>
 6    0  0.1631680E+002  0.1734881E+03  0.7546771E-02  0.1174258E+00
         21   -1    0    0  503  502  0.00000000000E+00  0.00000000000E+00  0.64890468360E+02  0.64890468360E+02  0.00000000000E+00 0.  1.
          1   -1    0    0  505    0 -0.00000000000E+00 -0.00000000000E+00 -0.79550016161E+03  0.79550016161E+03  0.00000000000E+00 0.  1.
         21    1    1    2  503  501  0.83776957604E+02  0.23002359327E+02 -0.88109083312E+02  0.12373721236E+03  0.00000000000E+00 0.  1.
         21    1    1    2  504  502 -0.14676824593E+03  0.40182538990E+02 -0.14486936116E+03  0.21010160936E+03  0.00000000000E+00 0.  1.
         21    1    1    2  505  504 -0.25520765064E+02 -0.26963970303E+02 -0.34111678249E+03  0.34313120587E+03  0.00000000000E+00 0.  1.
          1    1    1    2  501    0  0.88512053388E+02 -0.36220928013E+02 -0.15651446629E+03  0.18342060238E+03  0.00000000000E+00 0.  1.
<scales pt_clust_3="63.56439" pt_clust_4="159.53410" pt_clust_5="37.12634" pt_clust_6="63.56439"></scales>
<clustering>
<clus scale="   37.126">  2  5  1 -1</clus>
<clus scale="   63.564">  3  6 -1 -1</clus>
<clus scale="  159.534">  1  4  2 -1</clus>
<clus scale="  159.534">  1  3  2 -1</clus>
</clustering>
</event>
<event>
 6    0  0.1631680E+002  0.9572200E+02  0.7546771E-02  0.1289558E+00
         21   -1    0    0  505  502  0.00000000000E+00  0.00000000000E+00  0.98655342466E+03  0.98655342466E+03  0.00000000000E+00 0.  1.
          4   -1    0    0  503    0 -0.00000000000E+00 -0.00000000000E+00 -0.39629151641E+03  0.39629151641E+03  0.00000000000E+00 0. -1.
         21    1    1    2  503  504 -0.98554416122E+01  0.41125640310E+02 -0.27729399053E+02  0.50570422107E+02  0.00000000000E+00 0.  1.
         21    1    1    2  504  502  0.68244667741E+02 -0.69957896042E+02  0.84175237497E+03  0.84740692861E+03  0.00000000000E+00 0.  1.
         21    1    1    2  505  501 -0.11175272224E+03 -0.49057868730E+01  0.10300297532E+03  0.15206035182E+03  0.00000000000E+00 0.  1.
          4    1    1    2  501    0  0.53363496107E+02  0.33738042605E+02 -0.32676404298E+03  0.33280723853E+03  0.00000000000E+00 0. -1.
<scales pt_clust_3="42.29005" pt_clust_4="14000.00000" pt_clust_5="95.72200" pt_clust_6="84.27364"></scales>
<clustering>
<clus scale="   42.290">  2  3  1 -1</clus>
<clus scale="   84.274">  2  6  1 -1</clus>
<clus scale="   95.722">  2  5  1 -1</clus>
<clus scale="   95.722">  1  3  2 -1</clus>
</clustering>
</event>
<event>
 6    0  0.1631680E+002  0.7661115E+02  0.7546771E-02  0.1338953E+00
         21   -1    0    0  503  502  0.00000000000E+00  0.00000000000E+00  0.22084095183E+03  0.22084095183E+03  0.00000000000E+00 0. -1.
          2   -1    0    0  504    0 -0.00000000000E+00 -0.00000000000E+00 -0.23271598416E+04  0.23271598416E+04  0.00000000000E+00 0. -1.
         21    1    1    2  503  505  0.17892454582E+02 -0.27337981384E+02  0.11879322157E+03  0.12320444249E+03  0.00000000000E+00 0. -1.
         21    1    1    2  504  502  0.42763985751E+02  0.55785160511E+02 -0.68560043113E+02  0.98189725135E+02  0.00000000000E+00 0. -1.
         21    1    1    2  505  501 -0.56213092213E+02  0.48855765050E+02  0.67914559604E+02  0.10079278209E+03  0.00000000000E+00 0. -1.
          2    1    1    2  501    0 -0.44433481204E+01 -0.77302944177E+02 -0.22244666278E+04  0.22258138437E+04  0.00000000000E+00 0. -1.
<scales pt_clust_3="32.67270" pt_clust_4="14000.00000" pt_clust_5="48.50171" pt_clust_6="76.61115"></scales>
<clustering>
<clus scale="   32.673">  1  3  2 -1</clus>
<clus scale="   48.502">  1  5  2 -1</clus>
<clus scale="   76.611">  2  6  1 -1</clus>
<clus scale="   32.673">  1  3  2 -1</clus>
</clustering>
</event>
<event>
 6    0  0.1631680E+002  0.1686274E+03  0.7546771E-02  0.1179287E+00
          2   -1    0    0  503    0 -0.00000000000E+00  0.00000000000E+00  0.19509732629E+04  0.19509732629E+04  0.00000000000E+00 0. -1.
         21   -1    0    0  505  502  0.00000000000E+00 -0.00000000000E+00 -0.40208304346E+02  0.40208304346E+02  0.00000000000E+00 0.  1.
         21    1    1    2  503  504  0.12767956510E+03 -0.61348099023E+02  0.30498753253E+03  0.33627824133E+03  0.00000000000E+00 0.  1.
         21    1    1    2  504  502 -0.15492176819E+02 -0.28899576016E+02  0.38532468420E+02  0.50595890733E+02  0.00000000000E+00 0.  1.
         21    1    1    2  505  501  0.39821952567E+02 -0.14368429100E+01  0.16003023612E+02  0.42941229472E+02  0.00000000000E+00 0.  1.
          2    1    1    2  501    0 -0.15200934085E+03  0.91684517949E+02  0.15512419340E+04  0.15613662057E+04  0.00000000000E+00 0. -1.
<scales pt_clust_3="14000.00000" pt_clust_4="32.79014" pt_clust_5="36.07369" pt_clust_6="168.62741"></scales>
<clustering>
<clus scale="   32.790">  2  4  1 -1</clus>
<clus scale="   36.074">  2  5  1 -1</clus>
<clus scale="  168.627">  1  6  2 -1</clus>
<clus scale="   32.790">  2  3  1 -1</clus>
</clustering>
</event>
<event>
 6    0  0.1631680E+002  0.1480630E+03  0.7546771E-02  0.1202874E+00
          2   -1    0    0  504    0 -0.00000000000E+00  0.00000000000E+00  0.12980239401E+03  0.12980239401E+03  0.00000000000E+00 0. -1.
         21   -1    0    0  503  502  0.00000000000E+00 -0.00000000000E+00 -0.20938067574E+04  0.20938067574E+04  0.00000000000E+00 0. -1.
         21    1    1    2  503  501  0.14972760574E+03  0.28046185348E+02 -0.18482884930E+04  0.18545552830E+04  0.00000000000E+00 0. -1.
         21    1    1    2  504  505 -0.32980571756E+02 -0.40781343696E+02  0.28158269933E+02  0.59529188409E+02  0.00000000000E+00 0. -1.
         21    1    1    2  505  502 -0.52095024647E+02 -0.71222283648E+02 -0.17760655107E+03  0.19831941979E+03  0.00000000000E+00 0.  1.
          2    1    1    2  501    0 -0.64652009332E+02  0.83957441996E+02  0.33732410680E+02  0.11120526025E+03  0.00000000000E+00 0. -1.
<scales pt_clust_3="148.06301" pt_clust_4="52.44841" pt_clust_5="94.55331" pt_clust_6="14000.00000"></scales>
<clustering>
<clus scale="   52.448">  1  4  2 -1</clus>
<clus scale="   94.553">  1  5  2 -1</clus>
<clus scale="  148.063">  2  3  1 -1</clus>
<clus scale="  148.063">  2  3  1 -1</clus>
</clustering>
</event>
<event>
 6    0  0.1631680E+002  0.1161142E+03  0.7546771E-02  0.1249649E+00
         21   -1    0    0  503  502  0.00000000000E+00  0.00000000000E+00  0.17335959962E+03  0.17335959962E+03  0.00000000000E+00 0. -1.
         -1   -1    0    0    0  501 -0.00000000000E+00 -0.00000000000E+00 -0.72831027470E+03  0.72831027470E+03  0.00000000000E+00 0. -1.
         21    1    1    2  503  501 -0.12828019291E+02  0.74168790939E+02  0.44723985647E+02  0.87554568815E+02  0.00000000000E+00 0.  1.
         21    1    1    2  504  505  0.17709873225E+02  0.42408165972E+02 -0.44734737498E+02  0.64134927222E+02  0.00000000000E+00 0. -1.
         21    1    1    2  505  502  0.33903831852E+02 -0.27082010530E+01  0.88803568336E+02  0.95094047744E+02  0.00000000000E+00 0. -1.
         -1    1    1    2    0  504 -0.38785685785E+02 -0.11386875586E+03 -0.64374349157E+03  0.65488633053E+03  0.00000000000E+00 0. -1.
<scales pt_clust_3="116.11425" pt_clust_4="47.37330" pt_clust_5="34.01182" pt_clust_6="14000.00000"></scales>
<clustering>
<clus scale="   34.012">  1  5  2 -1</clus>
<clus scale="   47.373">  1  4  2 -1</clus>
<clus scale="  116.114">  1  3  2 -1</clus>
<clus scale="   34.012">  1  3  2 -1</clus>
</clustering>
</event>
<event>
 6    0  0.1631680E+002  0.1037980E+03  0.7546771E-02  0.1272506E+00
         21   -1    0    0  503  502  0.00000000000E+00  0.00000000000E+00  0.32195684522E+03  0.32195684522E+03  0.00000000000E+00 0. -1.
          1   -1    0    0  504    0 -0.00000000000E+00 -0.00000000000E+00 -0.13674039158E+03  0.13674039158E+03  0.00000000000E+00 0. -1.
         21    1    1    2  503  505 -0.10281047365E+02  0.29298854140E+02  0.40136479309E+02  0.50745046656E+02  0.00000000000E+00 0. -1.
         21    1    1    2  504  502 -0.42135400667E+02  0.10255723233E+02  0.67474529403E+01  0.43887355463E+02  0.00000000000E+00 0. -1.
         21    1    1    2  505  501 -0.77250069661E+02 -0.73322818900E+02  0.19213037440E+03  0.21967678485E+03  0.00000000000E+00 0. -1.
          1    1    1    2  501    0  0.12966651769E+03  0.33768241527E+02 -0.53797853003E+02  0.14438804983E+03  0.00000000000E+00 0. -1.
<scales pt_clust_3="31.05033" pt_clust_4="44.97780" pt_clust_5="14000.00000" pt_clust_6="103.79801"></scales>
<clustering>
<clus scale="   31.050">  1  3  2 -1</clus>
<clus scale="   44.978">  2  4  1 -1</clus>
<clus scale="  103.798">  2  6  1 -1</clus>
<clus scale="   31.050">  1  3  2 -1</clus>
</clustering>
</event>
<event>
 6    0  0.1631680E+002  0.8121339E+02  0.7546771E-02  0.1325643E+00
         21   -1    0    0  504  502  0.00000000000E+00  0.00000000000E+00  0.37464195957E+03  0.37464195957E+03  0.00000000000E+00 0.  1.
          1   -1    0    0  503    0 -0.00000000000E+00 -0.00000000000E+00 -0.56435768150E+03  0.56435768150E+03  0.00000000000E+00 0.  1.
         21    1    1    2  503  502 -0.25926877752E+02 -0.36470910043E+02 -0.27249655690E+03  0.27614616381E+03  0.00000000000E+00 0.  1.
         21    1    1    2  504  505 -0.35435779843E+02  0.82121295996E+02  0.31910213208E+03  0.33139971703E+03  0.00000000000E+00 0.  1.
         21    1    1    2  505  501 -0.39298728747E+01 -0.59308851449E+02  0.22967445858E+02  0.63721953283E+02  0.00000000000E+00 0.  1.
          1    1    1    2  501    0  0.65292530469E+02  0.13658465496E+02 -0.25928874298E+03  0.26773180694E+03  0.00000000000E+00 0.  1.
<scales pt_clust_3="44.74741" pt_clust_4="14000.00000" pt_clust_5="81.21339" pt_clust_6="46.05774"></scales>
<clustering>
<clus scale="   44.747">  2  3  1 -1</clus>
<clus scale="   46.058">  2  6  1 -1</clus>
<clus scale="   81.213">  2  5  1 -1</clus>
<clus scale="   81.213">  1  3  2 -1</clus>
</clustering>
</event>
<event>
 6    0  0.1631680E+002  0.3717658E+03  0.7546771E-02  0.1054020E+00
          2   -1    0    0  505    0 -0.00000000000E+00  0.00000000000E+00  0.17411077122E+04  0.17411077122E+04  0.00000000000E+00 0.  1.
         21   -1    0    0  501  502  0.00000000000E+00 -0.00000000000E+00 -0.17936057202E+03  0.17936057202E+03  0.00000000000E+00 0.  1.
         21    1    1    2  503  502 -0.11029536708E+03 -0.99593432637E+02  0.42307427983E+02  0.15451161214E+03  0.00000000000E+00 0.  1.
         21    1    1    2  504  503  0.20197598172E+01 -0.21572769741E+03  0.36401352989E+02  0.21878660233E+03  0.00000000000E+00 0.  1.
         21    1    1    2  505  504 -0.12461803059E+02 -0.51615186541E+02  0.14193803419E+03  0.15154481043E+03  0.00000000000E+00 0.  1.
          2    1    1    2  501    0  0.12073741033E+03  0.36693631659E+03  0.13411003250E+04  0.13956252593E+04  0.00000000000E+00 0.  1.
<scales pt_clust_3="123.06800" pt_clust_4="123.06800" pt_clust_5="53.09825" pt_clust_6="340.88754"></scales>
<clustering>
<clus scale="   53.098">  1  5  2 -1</clus>
<clus scale="  123.068">  3  4 -1 -1</clus>
<clus scale="  340.888">  1  6  2 -1</clus>
<clus scale="  371.766">  2  3  1 -1</clus>
</clustering>
</event>
<event>
 6    0  0.1631680E+002  0.8868856E+02  0.7546771E-02  0.1306059E+00
          2   -1    0    0  502    0 -0.00000000000E+00  0.00000000000E+00  0.23817679638E+04  0.23817679638E+04  0.00000000000E+00 0.  1.
         21   -1    0    0  504  502  0.00000000000E+00 -0.00000000000E+00 -0.24422497865E+02  0.24422497865E+02  0.00000000000E+00 0.  1.
         21    1    1    2  503  501 -0.51475329269E+02  0.65425892559E+00  0.56838830648E+03  0.57071481891E+03  0.00000000000E+00 0.  1.
         21    1    1    2  504  505  0.88829641079E+02 -0.36216357369E+02  0.11003542794E+03  0.14597987902E+03  0.00000000000E+00 0.  1.
         21    1    1    2  505  503 -0.68799732260E+02  0.26295418743E+02  0.26095358606E+03  0.27114871617E+03  0.00000000000E+00 0.  1.
          2    1    1    2  501    0  0.31445420450E+02  0.92666797011E+01  0.14179681454E+04  0.14183470475E+04  0.00000000000E+00 0.  1.
<scales pt_clust_3="33.45585" pt_clust_4="88.68856" pt_clust_5="14000.00000" pt_clust_6="32.78240"></scales>
<clustering>
<clus scale="   32.782">  1  6  2 -1</clus>
<clus scale="   33.456">  1  3  2 -1</clus>
<clus scale="   88.689">  2  4  1 -1</clus>
<clus scale="   88.689">  2  3  1 -1</clus>
</clustering>
</event>
<event>
 6    0  0.1631680E+002  0.1730387E+03  0.7546771E-02  0.1174716E+00
         -1   -1    0    0    0  501 -0.00000000000E+00  0.00000000000E+00  0.65768292514E+02  0.65768292514E+02  0.00000000000E+00 0. -1.
         21   -1    0    0  504  502  0.00000000000E+00 -0.00000000000E+00 -0.19307161330E+04  0.19307161330E+04  0.00000000000E+00 0. -1.
         21    1    1    2  503  501  0.14622321804E+03 -0.81211692314E+02 -0.27500353927E+03  0.32187499915E+03  0.00000000000E+00 0.  1.
         21    1    1    2  504  505 -0.60273742628E+02  0.11833159837E+03 -0.13465625762E+04  0.13530949940E+04  0.00000000000E+00 0. -1.
         21    1    1    2  505  503 -0.24107709759E+01  0.38549497630E+02 -0.19511307321E+03  0.19889943922E+03  0.00000000000E+00 0. -1.
         -1    1    1    2    0  502 -0.83538704439E+02 -0.75669403690E+02 -0.48268651815E+02  0.12261499314E+03  0.00000000000E+00 0. -1.
<scales pt_clust_3="162.97392" pt_clust_4="31.36296" pt_clust_5="31.36296" pt_clust_6="112.71457"></scales>
<clustering>
<clus scale="   31.363">  4  5 -1 -1</clus>
<clus scale="  112.715">  1  6  2 -1</clus>
<clus scale="  162.974">  1  3  2 -1</clus>
<clus scale="  173.039">  2  3  1 -1</clus>
</clustering>
</event>
<event>
 6    0  0.1631680E+002  0.1667199E+03  0.7546771E-02  0.1181312E+00
          3   -1    0    0  503    0 -0.00000000000E+00  0.00000000000E+00  0.56540371106E+03  0.56540371106E+03  0.00000000000E+00 0. -1.
         21   -1    0    0  501  502  0.00000000000E+00 -0.00000000000E+00 -0.11152326901E+03  0.11152326901E+03  0.00000000000E+00 0.  1.
         21    1    1    2  503  504  0.33125301310E+02 -0.16927710352E+02  0.67829728810E+02  0.77360875610E+02  0.00000000000E+00 0. -1.
         21    1    1    2  504  505 -0.13992993024E+03  0.11886446037E+03  0.16119718456E+03  0.24432289624E+03  0.00000000000E+00 0. -1.
         21    1    1    2  505  502  0.14023565226E+03 -0.76065348969E+02  0.38447664542E+02  0.16410423026E+03  0.00000000000E+00 0.  1.
          3    1    1    2  501    0 -0.33431023331E+02 -0.25871401050E+02  0.18640586414E+03  0.19113897797E+03  0.00000000000E+00 0. -1.
<scales pt_clust_3="37.19991" pt_clust_4="14000.00000" pt_clust_5="166.71995" pt_clust_6="38.43341"></scales>
<clustering>
<clus scale="   37.200">  1  3  2 -1</clus>
<clus scale="   38.433">  1  6  2 -1</clus>
<clus scale="  166.720">  2  5  1 -1</clus>
<clus scale="  166.720">  2  3  1 -1</clus>
</clustering>
</event>
<event>
 6    0  0.1631680E+002  0.1341974E+03  0.7546771E-02  0.1221357E+00
         21   -1    0    0  501  502  0.00000000000E+00  0.00000000000E+00  0.14859399850E+03  0.14859399850E+03  0.00000000000E+00 0. -1.
          1   -1    0    0  505    0 -0.00000000000E+00 -0.00000000000E+00 -0.90475397384E+03  0.90475397384E+03  0.00000000000E+00 0. -1.
         21    1    1    2  503  502  0.49765159983E+02  0.46223250458E+02  0.23847867482E+02  0.71985281930E+02  0.00000000000E+00 0. -1.
         21    1    1    2  504  503  0.43730752056E+02 -0.17200501845E+03 -0.41999802270E+02  0.18237896929E+03  0.00000000000E+00 0. -1.
         21    1    1    2  505  504 -0.92284549203E+02  0.23138783637E+02 -0.66798113193E+03  0.67472263482E+03  0.00000000000E+00 0. -1.
          1    1    1    2  501    0 -0.12113628363E+01  0.10264298435E+03 -0.70026908630E+02  0.12426108630E+03  0.00000000000E+00 0. -1.
<scales pt_clust_3="67.92025" pt_clust_4="134.19739" pt_clust_5="93.92075" pt_clust_6="14000.00000"></scales>
<clustering>
<clus scale="   67.920">  1  3  2 -1</clus>
<clus scale="   93.921">  2  5  1 -1</clus>
<clus scale="  134.197">  1  4  2 -1</clus>
<clus scale="   67.920">  1  3  2 -1</clus>
</clustering>
</event>
<event>
 6    0  0.1631680E+002  0.1277354E+03  0.7546771E-02  0.1230855E+00
          2   -1    0    0  505    0 -0.00000000000E+00  0.00000000000E+00  0.13836906095E+04  0.13836906095E+04  0.00000000000E+00 0.  1.
         21   -1    0    0  503  502  0.00000000000E+00 -0.00000000000E+00 -0.11108907023E+03  0.11108907023E+03  0.00000000000E+00 0.  1.
         21    1    1    2  503  504 -0.46944007884E+02  0.69810885301E+02 -0.38797464915E+02  0.92642014586E+02  0.00000000000E+00 0.  1.
         21    1    1    2  504  501  0.13306730791E+02  0.40810226113E+02 -0.23447768120E+02  0.48911567850E+02  0.00000000000E+00 0.  1.
         21    1    1    2  505  502 -0.46778826828E+02  0.76995814779E+01  0.10648501823E+03  0.11656157730E+03  0.00000000000E+00 0.  1.
          2    1    1    2  501    0  0.80416103921E+02 -0.11832069289E+03  0.12283617540E+04  0.12366645200E+04  0.00000000000E+00 0.  1.
<scales pt_clust_3="37.76033" pt_clust_4="37.76033" pt_clust_5="47.40825" pt_clust_6="116.28359"></scales>
<clustering>
<clus scale="   37.760">  3  4 -1 -1</clus>
<clus scale="   47.408">  1  5  2 -1</clus>
<clus scale="  116.284">  1  6  2 -1</clus>
<clus scale="  127.735">  2  3  1 -1</clus>
</clustering>
</event>
<event>
 6    0  0.1631680E+002  0.1689215E+03  0.7546771E-02  0.1178977E+00
          2   -1    0    0  505    0 -0.00000000000E+00  0.00000000000E+00  0.12464808621E+04  0.12464808621E+04  0.00000000000E+00 0. -1.
         21   -1    0    0  501  502  0.00000000000E+00 -0.00000000000E+00 -0.43111656125E+03  0.43111656125E+03  0.00000000000E+00 0. -1.
         21    1    1    2  503  504  0.27191297551E+02  0.12578911666E+03 -0.29365253321E+03  0.32061515684E+03  0.00000000000E+00 0. -1.
         21    1    1    2  504  502 -0.23895775572E+02  0.31720102719E+02 -0.10849882790E+03  0.11553860247E+03  0.00000000000E+00 0.  1.
         21    1    1    2  505  503 -0.41522414579E+02  0.73560141476E+01  0.71576182147E+02  0.83074494926E+02  0.00000000000E+00 0. -1.
          2    1    1    2  501    0  0.38226892601E+02 -0.16486523353E+03  0.11459394798E+04  0.11583691691E+04  0.00000000000E+00 0. -1.
<scales pt_clust_3="33.71875" pt_clust_4="33.71875" pt_clust_5="42.16897" pt_clust_6="157.63917"></scales>
<clustering>
<clus scale="   33.719">  3  4 -1 -1</clus>
<clus scale="   42.169">  1  5  2 -1</clus>
<clus scale="  157.639">  1  6  2 -1</clus>
<clus scale="  168.922">  2  3  1 -1</clus>
</clustering>
</event>
<event>
 6    0  0.1631680E+002  0.9342319E+02  0.7546771E-02  0.1294767E+00
          2   -1    0    0  505    0 -0.00000000000E+00  0.00000000000E+00  0.56605860592E+03  0.56605860592E+03  0.00000000000E+00 0. -1.
         21   -1    0    0  503  502  0.00000000000E+00 -0.00000000000E+00 -0.63577847727E+02  0.63577847727E+02  0.00000000000E+00 0. -1.
         21    1    1    2  503  501  0.68312385960E+01 -0.57868732124E+02  0.71026956246E+02  0.91871020958E+02  0.00000000000E+00 0. -1.
         21    1    1    2  504  502  0.42770324203E+02 -0.44915528222E+02  0.19927855444E+01  0.62053819400E+02  0.00000000000E+00 0. -1.
         21    1    1    2  505  504 -0.10109947762E+03  0.28357796675E+02  0.29924196913E+03  0.31712935073E+03  0.00000000000E+00 0. -1.
          2    1    1    2  501    0  0.51497914818E+02  0.74426463671E+02  0.13021904727E+03  0.15858226256E+03  0.00000000000E+00 0. -1.
<scales pt_clust_3="58.27054" pt_clust_4="93.42319" pt_clust_5="14000.00000" pt_clust_6="79.51473"></scales>
<clustering>
<clus scale="   58.271">  2  3  1 -1</clus>
<clus scale="   79.515">  2  6  1 -1</clus>
<clus scale="   93.423">  2  4  1 -1</clus>
<clus scale="   58.271">  2  3  1 -1</clus>
</clustering>
</event>
<event>
 6    0  0.1631680E+002  0.7098228E+02  0.7546771E-02  0.1356784E+00
         -4   -1    0    0    0  501 -0.00000000000E+00  0.00000000000E+00  0.14964492389E+04  0.14964492389E+04  0.00000000000E+00 0. -1.
         21   -1    0    0  503  502  0.00000000000E+00 -0.00000000000E+00 -0.64546534989E+02  0.64546534989E+02  0.00000000000E+00 0. -1.
         21    1    1    2  503  505  0.43128666108E+02 -0.26486523725E+02  0.22826053743E+00  0.50612941844E+02  0.00000000000E+00 0. -1.
         21    1    1    2  504  502  0.20267898846E+02  0.61162715239E+02 -0.45498335007E+01  0.64593857633E+02  0.00000000000E+00 0. -1.
         21    1    1    2  505  501  0.33453870246E+02  0.18766231839E+00  0.96851515791E+02  0.10246664219E+03  0.00000000000E+00 0. -1.
         -4    1    1    2    0  504 -0.96850435200E+02 -0.34863853833E+02  0.13393727610E+04  0.13433223322E+04  0.00000000000E+00 0. -1.
<scales pt_clust_3="51.13046" pt_clust_4="14000.00000" pt_clust_5="33.45440" pt_clust_6="70.98228"></scales>
<clustering>
<clus scale="   33.454">  1  5  2 -1</clus>
<clus scale="   51.130">  2  3  1 -1</clus>
<clus scale="   70.982">  1  6  2 -1</clus>
<clus scale="   51.130">  2  3  1 -1</clus>
</clustering>
</event>
<event>
 6    0  0.1631680E+002  0.1445808E+03  0.7546771E-02  0.1207295E+00
          2   -1    0    0  505    0 -0.00000000000E+00  0.00000000000E+00  0.12226239498E+04  0.12226239498E+04  0.00000000000E+00 0.  1.
         21   -1    0    0  501  502  0.00000000000E+00 -0.00000000000E+00 -0.22910729761E+03  0.22910729761E+03  0.00000000000E+00 0. -1.
         21    1    1    2  503  502  0.43445850421E+02 -0.21114214028E+01 -0.10173503338E+03  0.11064364888E+03  0.00000000000E+00 0. -1.
         21    1    1    2  504  503  0.76517086426E+02  0.86436217830E+02 -0.84744494638E+02  0.14320514530E+03  0.00000000000E+00 0. -1.
         21    1    1    2  505  504 -0.18089657708E+02  0.37924847349E+02  0.15444962314E+03  0.16006316206E+03  0.00000000000E+00 0. -1.
          2    1    1    2  501    0 -0.10187327914E+03 -0.12224964378E+03  0.10255465571E+04  0.10378192912E+04  0.00000000000E+00 0.  1.
<scales pt_clust_3="43.41416" pt_clust_4="144.58083" pt_clust_5="42.01821" pt_clust_6="14000.00000"></scales>
<clustering>
<clus scale="   42.018">  1  5  2 -1</clus>
<clus scale="   43.414">  2  3  1 -1</clus>
<clus scale="  144.581">  2  4  1 -1</clus>
<clus scale="   43.414">  2  3  1 -1</clus>
</clustering>
</event>
<event>
 6    0  0.1631680E+002  0.1559462E+03  0.7546771E-02  0.1193351E+00
         21   -1    0    0  503  502  0.00000000000E+00  0.00000000000E+00  0.31357168844E+03  0.31357168844E+03  0.00000000000E+00 0. -1.
          4   -1    0    0  505    0 -0.00000000000E+00 -0.00000000000E+00 -0.13668945101E+04  0.13668945101E+04  0.00000000000E+00 0. -1.
         21    1    1    2  503  501  0.78077596428E+00  0.33257131544E+02  0.15422685551E+03  0.15777379177E+03  0.00000000000E+00 0. -1.
         21    1    1    2  504  502  0.50272882411E+01  0.12482844514E+03  0.11951572788E+03  0.17289136344E+03  0.00000000000E+00 0. -1.
         21    1    1    2  505  504  0.46254542490E+02  0.20904543856E-01 -0.68328769530E+03  0.68485148586E+03  0.00000000000E+00 0. -1.
          4    1    1    2  501    0 -0.52062606696E+02 -0.15810648123E+03 -0.64377770976E+03  0.66494955749E+03  0.00000000000E+00 0. -1.
<scales pt_clust_3="33.26630" pt_clust_4="14000.00000" pt_clust_5="46.25879" pt_clust_6="155.94619"></scales>
<clustering>
<clus scale="   33.266">  1  3  2 -1</clus>
<clus scale="   46.259">  2  5  1 -1</clus>
<clus scale="  155.946">  2  6  1 -1</clus>
<clus scale="   33.266">  1  3  2 -1</clus>
</clustering>
</event>
<event>
 6    0  0.1631680E+002  0.6858563E+02  0.7546771E-02  0.1364970E+00
          3   -1    0    0  503    0 -0.00000000000E+00  0.00000000000E+00  0.57675891922E+03  0.57675891922E+03  0.00000000000E+00 0.  1.
         21   -1    0    0  505  502  0.00000000000E+00 -0.00000000000E+00 -0.56739133789E+02  0.56739133789E+02  0.00000000000E+00 0.  1.
         21    1    1    2  503  504  0.10605728521E+02  0.49336822454E+02  0.18425879563E+03  0.19104425481E+03  0.00000000000E+00 0.  1.
         21    1    1    2  504  502 -0.31313853490E+02 -0.30083919225E+01 -0.23473473753E+00  0.31458908798E+02  0.00000000000E+00 0.  1.
         21    1    1    2  505  501  0.21518590509E+02  0.64239818150E+02  0.12196576598E+02  0.68837202544E+02  0.00000000000E+00 0.  1.
          3    1    1    2  501    0 -0.81046554049E+00 -0.11056824868E+03  0.32379914794E+03  0.34215768686E+03  0.00000000000E+00 0.  1.
<scales pt_clust_3="49.73609" pt_clust_4="31.45803" pt_clust_5="14000.00000" pt_clust_6="68.58563"></scales>
<clustering>
<clus scale="   31.458">  2  4  1 -1</clus>
<clus scale="   49.736">  1  3  2 -1</clus>
<clus scale="   68.586">  1  6  2 -1</clus>
<clus scale="   31.458">  2  3  1 -1</clus>
</clustering>
</event>
<event>
 6    0  0.1631680E+002  0.1255016E+03  0.7546771E-02  0.1234287E+00
         21   -1    0    0  501  502  0.00000000000E+00  0.00000000000E+00  0.29673285115E+03  0.29673285115E+03  0.00000000000E+00 0. -1.
          1   -1    0    0  503    0 -0.00000000000E+00 -0.00000000000E+00 -0.67445380196E+03  0.67445380196E+03  0.00000000000E+00 0. -1.
         21    1    1    2  503  505  0.21030995217E+02 -0.25794153962E+02 -0.56198558297E+02  0.65314003806E+02  0.00000000000E+00 0.  1.
         21    1    1    2  504  502 -0.29552639045E+02  0.11227209856E+02  0.23205940666E+03  0.23420285425E+03  0.00000000000E+00 0. -1.
         21    1    1    2  505  504 -0.10194975857E+03 -0.25014275692E+02  0.82799133114E+00  0.10497691570E+03  0.00000000000E+00 0. -1.
          1    1    1    2  501    0  0.11047140239E+03  0.39581219798E+02 -0.55440979050E+03  0.56669287936E+03  0.00000000000E+00 0. -1.
<scales pt_clust_3="31.33993" pt_clust_4="31.61343" pt_clust_5="14000.00000" pt_clust_6="125.50162"></scales>
<clustering>
<clus scale="   31.613">  1  4  2 -1</clus>
<clus scale="   31.340">  2  3  1 -1</clus>
<clus scale="  125.502">  2  6  1 -1</clus>
<clus scale="   31.613">  1  3  2 -1</clus>
</clustering>
</event>
<event>
 6    0  0.1631680E+002  0.1409426E+03  0.7546771E-02  0.1212066E+00
          1   -1    0    0  505    0 -0.00000000000E+00  0.00000000000E+00  0.51202746733E+03  0.51202746733E+03  0.00000000000E+00 0.  1.
         21   -1    0    0  504  502  0.00000000000E+00 -0.00000000000E+00 -0.29452525177E+03  0.29452525177E+03  0.00000000000E+00 0. -1.
         21    1    1    2  503  501  0.11798095056E+03  0.16358281640E+02 -0.20855255067E+03  0.24016924130E+03  0.00000000000E+00 0. -1.
         21    1    1    2  504  503  0.25518497954E+02 -0.38596113034E+02 -0.46332809701E+02  0.65479637552E+02  0.00000000000E+00 0.  1.
         21    1    1    2  505  502 -0.20959213431E+02  0.33513405393E+02  0.16788780294E+03  0.17247826339E+03  0.00000000000E+00 0.  1.
          1    1    1    2  501    0 -0.12254023509E+03 -0.11275573998E+02  0.30449977299E+03  0.32842557686E+03  0.00000000000E+00 0.  1.
<scales pt_clust_3="140.94256" pt_clust_4="45.16274" pt_clust_5="39.52767" pt_clust_6="14000.00000"></scales>
<clustering>
<clus scale="   39.528">  1  5  2 -1</clus>
<clus scale="   45.163">  2  4  1 -1</clus>
<clus scale="  140.943">  2  3  1 -1</clus>
<clus scale="   45.163">  2  3  1 -1</clus>
</clustering>
</event>
<event>
 6    0  0.1631680E+002  0.1161962E+03  0.7546771E-02  0.1249507E+00
          2   -1    0    0  503    0 -0.00000000000E+00  0.00000000000E+00  0.83981751909E+02  0.83981751909E+02  0.00000000000E+00 0.  1.
         21   -1    0    0  504  502  0.00000000000E+00 -0.00000000000E+00 -0.54285125736E+03  0.54285125736E+03  0.00000000000E+00 0.  1.
         21    1    1    2  503  502 -0.23467262940E+02  0.20733267479E+02 -0.27063059548E+02  0.41388283394E+02  0.00000000000E+00 0.  1.
         21    1    1    2  504  505  0.74280104900E+02 -0.28932432497E+02 -0.21518471759E+03  0.22947566825E+03  0.00000000000E+00 0.  1.
         21    1    1    2  505  501  0.59582814114E+02  0.59630996447E+02 -0.21846744595E+03  0.23416659116E+03  0.00000000000E+00 0.  1.
          2    1    1    2  501    0 -0.11039565607E+03 -0.51431831429E+02  0.18457176353E+01  0.12180246647E+03  0.00000000000E+00 0.  1.
<scales pt_clust_3="31.31423" pt_clust_4="76.98847" pt_clust_5="14000.00000" pt_clust_6="116.19622"></scales>
<clustering>
<clus scale="   31.314">  1  3  2 -1</clus>
<clus scale="   76.988">  2  4  1 -1</clus>
<clus scale="  116.196">  1  6  2 -1</clus>
<clus scale="   76.988">  2  3  1 -1</clus>
</clustering>
</event>
<event>
 6    0  0.1631680E+002  0.1861946E+03  0.7546771E-02  0.1161939E+00
          2   -1    0    0  505    0 -0.00000000000E+00  0.00000000000E+00  0.27559807281E+04  0.27559807281E+04  0.00000000000E+00 0. -1.
         21   -1    0    0  503  502  0.00000000000E+00 -0.00000000000E+00 -0.96774797868E+02  0.96774797868E+02  0.00000000000E+00 0.  1.
         21    1    1    2  503  501  0.72133234943E+02  0.10953898974E+03  0.88671224252E+02  0.15831797077E+03  0.00000000000E+00 0.  1.
         21    1    1    2  504  502 -0.50257218089E+02  0.91950310277E+02 -0.73257452500E+01  0.10504434337E+03  0.00000000000E+00 0.  1.
         21    1    1    2  505  504  0.32653999809E+02 -0.43237663887E+02  0.26492250234E+03  0.27040656710E+03  0.00000000000E+00 0. -1.
          2    1    1    2  501    0 -0.54530016663E+02 -0.15825163613E+03  0.23129379489E+04  0.23189866447E+04  0.00000000000E+00 0. -1.
<scales pt_clust_3="14000.00000" pt_clust_4="103.73621" pt_clust_5="54.18283" pt_clust_6="186.19460"></scales>
<clustering>
<clus scale="   54.183">  1  5  2 -1</clus>
<clus scale="  103.736">  2  4  1 -1</clus>
<clus scale="  186.195">  1  6  2 -1</clus>
<clus scale="  103.736">  2  3  1 -1</clus>
</clustering>
</event>
<event>
 6    0  0.1631680E+002  0.9482944E+02  0.7546771E-02  0.1291561E+00
         21   -1    0    0  503  502  0.00000000000E+00  0.00000000000E+00  0.37775728918E+03  0.37775728918E+03  0.00000000000E+00 0.  1.
         -2   -1    0    0    0  501 -0.00000000000E+00 -0.00000000000E+00 -0.31833944949E+03  0.31833944949E+03  0.00000000000E+00 0. -1.
         21    1    1    2  503  501  0.51888888857E+02 -0.36590836264E+02  0.31765502744E+03  0.32393836226E+03  0.00000000000E+00 0.  1.
         21    1    1    2  504  502 -0.18756861883E+02 -0.23704311971E+02  0.68277962379E+01  0.30989241281E+02  0.00000000000E+00 0.  1.
         21    1    1    2  505  504  0.38063723325E+02  0.11398308707E+03 -0.11337558698E+03  0.16521203011E+03  0.00000000000E+00 0.  1.
         -2    1    1    2    0  505 -0.71195750299E+02 -0.53687938833E+02 -0.15168939702E+03  0.17595710501E+03  0.00000000000E+00 0. -1.
<scales pt_clust_3="67.61799" pt_clust_4="30.22771" pt_clust_5="14000.00000" pt_clust_6="94.82944"></scales>
<clustering>
<clus scale="   30.228">  1  4  2 -1</clus>
<clus scale="   67.618">  1  3  2 -1</clus>
<clus scale="   94.829">  2  6  1 -1</clus>
<clus scale="   30.228">  1  3  2 -1</clus>
</clustering>
</event>
<event>
 6    0  0.1631680E+002  0.1480330E+03  0.7546771E-02  0.1202911E+00
         21   -1    0    0  505  502  0.00000000000E+00  0.00000000000E+00  0.53020361036E+03  0.53020361036E+03  0.00000000000E+00 0.  1.
          2   -1    0    0  504    0 -0.00000000000E+00 -0.00000000000E+00 -0.12699665048E+04  0.12699665048E+04  0.00000000000E+00 0.  1.
         21    1    1    2  503  502  0.36920054497E+01  0.35519417166E+02  0.46550477432E+03  0.46687252523E+03  0.00000000000E+00 0.  1.
         21    1    1    2  504  503 -0.12071566402E+03  0.58965019708E+02 -0.50278029985E+02  0.14344694276E+03  0.00000000000E+00 0.  1.
         21    1    1    2  505  501  0.16237221503E+03 -0.47681612118E+02 -0.43252195944E+03  0.46444969345E+03  0.00000000000E+00 0.  1.
          2    1    1    2  501    0 -0.45348556455E+02 -0.46802824756E+02 -0.72246767929E+03  0.72540095368E+03  0.00000000000E+00 0.  1.
<scales pt_clust_3="35.71078" pt_clust_4="14000.00000" pt_clust_5="148.03297" pt_clust_6="64.52766"></scales>
<clustering>
<clus scale="   35.711">  1  3  2 -1</clus>
<clus scale="   64.528">  2  6  1 -1</clus>
<clus scale="  148.033">  2  5  1 -1</clus>
<clus scale="   35.711">  1  3  2 -1</clus>
</clustering>
</event>
<event>
 6    0  0.1631680E+002  0.7516055E+02  0.7546771E-02  0.1343375E+00
         21   -1    0    0  505  502  0.00000000000E+00  0.00000000000E+00  0.17316735084E+03  0.17316735084E+03  0.00000000000E+00 0. -1.
          2   -1    0    0  504    0 -0.00000000000E+00 -0.00000000000E+00 -0.18523528419E+04  0.18523528419E+04  0.00000000000E+00 0. -1.
         21    1    1    2  503  501  0.79738947235E+02 -0.26916442369E+02 -0.16973756521E+02  0.85853963137E+02  0.00000000000E+00 0. -1.
         21    1    1    2  504  502 -0.15791230128E+02  0.85420584274E+02 -0.38388049146E+03  0.39358642112E+03  0.00000000000E+00 0. -1.
         21    1    1    2  505  503 -0.36798636470E+02 -0.35423422801E+02  0.12876846065E+03  0.13852896805E+03  0.00000000000E+00 0. -1.
          2    1    1    2  501    0 -0.27149080638E+02 -0.23080719104E+02 -0.14070997037E+04  0.14075508404E+04  0.00000000000E+00 0. -1.
<scales pt_clust_3="14000.00000" pt_clust_4="75.16055" pt_clust_5="51.46800" pt_clust_6="35.63414"></scales>
<clustering>
<clus scale="   35.634">  2  6  1 -1</clus>
<clus scale="   51.468">  1  5  2 -1</clus>
<clus scale="   75.161">  2  4  1 -1</clus>
<clus scale="   51.468">  1  3  2 -1</clus>
</clustering>
</event>
<event>
 6    0  0.1631680E+002  0.1413492E+03  0.7546771E-02  0.1211525E+00
          2   -1    0    0  503    0 -0.00000000000E+00  0.00000000000E+00  0.16266743899E+03  0.16266743899E+03  0.00000000000E+00 0.  1.
         21   -1    0    0  501  502  0.00000000000E+00 -0.00000000000E+00 -0.39919795673E+03  0.39919795673E+03  0.00000000000E+00 0.  1.
         21    1    1    2  503  504 -0.50543702342E+02  0.21333076220E+02  0.94610823760E+02  0.10936623775E+03  0.00000000000E+00 0.  1.
         21    1    1    2  504  505 -0.41332885888E+02  0.45193723009E+02 -0.98590356746E+02  0.11606437222E+03  0.00000000000E+00 0.  1.
         21    1    1    2  505  502 -0.11980665875E+02  0.66439424745E+02 -0.10540160840E+03  0.12516881627E+03  0.00000000000E+00 0.  1.
          2    1    1    2  501    0  0.10385725410E+03 -0.13296622397E+03 -0.12714937637E+03  0.21126596947E+03  0.00000000000E+00 0.  1.
<scales pt_clust_3="54.86133" pt_clust_4="34.02870" pt_clust_5="34.02870" pt_clust_6="136.75953"></scales>
<clustering>
<clus scale="   34.029">  4  5 -1 -1</clus>
<clus scale="   54.861">  1  3  2 -1</clus>
<clus scale="  136.760">  1  6  2 -1</clus>
<clus scale="  141.349">  2  3  1 -1</clus>
</clustering>
</event>
<event>
 6    0  0.1631680E+002  0.7308403E+02  0.7546771E-02  0.1349909E+00
         21   -1    0    0  501  502  0.00000000000E+00  0.00000000000E+00  0.10881794628E+03  0.10881794628E+03  0.00000000000E+00 0.  1.
          3   -1    0    0  503    0 -0.00000000000E+00 -0.00000000000E+00 -0.43167096998E+03  0.43167096998E+03  0.00000000000E+00 0. -1.
         21    1    1    2  503  504 -0.95380444185E+00  0.42487193145E+02 -0.72008726678E+02  0.83614161731E+02  0.00000000000E+00 0. -1.
         21    1    1    2  504  505  0.25364558753E+02 -0.43283773754E+02 -0.25046180257E+02  0.56072783564E+02  0.00000000000E+00 0. -1.
         21    1    1    2  505  502 -0.42925978111E+02  0.74083470422E+02  0.60405453389E+02  0.10478463144E+03  0.00000000000E+00 0.  1.
          3    1    1    2  501    0  0.18515223800E+02 -0.73286889813E+02 -0.28620357015E+03  0.29601733952E+03  0.00000000000E+00 0. -1.
<scales pt_clust_3="42.49790" pt_clust_4="73.08403" pt_clust_5="14000.00000" pt_clust_6="42.23573"></scales>
<clustering>
<clus scale="   42.498">  2  3  1 -1</clus>
<clus scale="   42.236">  2  6  1 -1</clus>
<clus scale="   73.084">  2  4  1 -1</clus>
<clus scale="   73.084">  1  3  2 -1</clus>
</clustering>
</event>
<event>
 6    0  0.1631680E+002  0.5979753E+02  0.7546771E-02  0.1398683E+00
         21   -1    0    0  503  502  0.00000000000E+00  0.00000000000E+00  0.85886345985E+03  0.85886345985E+03  0.00000000000E+00 0. -1.
          2   -1    0    0  504    0 -0.00000000000E+00 -0.00000000000E+00 -0.24253934967E+04  0.24253934967E+04  0.00000000000E+00 0. -1.
         21    1    1    2  503  501 -0.58966736619E+02 -0.62319022613E+01  0.16883869480E+03  0.17894808603E+03  0.00000000000E+00 0. -1.
         21    1    1    2  504  505 -0.11438379330E+02 -0.43102365793E+02 -0.69294088222E+02  0.82403404792E+02  0.00000000000E+00 0. -1.
         21    1    1    2  505  502  0.45109777437E+02 -0.48169394601E+02  0.67572520771E+03  0.67894015858E+03  0.00000000000E+00 0. -1.
          2    1    1    2  501    0  0.25295338511E+02  0.97503662655E+02 -0.23417998511E+04  0.23439653071E+04  0.00000000000E+00 0. -1.
<scales pt_clust_3="14000.00000" pt_clust_4="44.59429" pt_clust_5="59.79753" pt_clust_6="56.26481"></scales>
<clustering>
<clus scale="   44.594">  2  4  1 -1</clus>
<clus scale="   56.265">  2  6  1 -1</clus>
<clus scale="   59.798">  1  5  2 -1</clus>
<clus scale="   59.798">  1  3  2 -1</clus>
</clustering>
</event>
<event>
 6    0  0.1631680E+002  0.2712109E+03  0.7546771E-02  0.1100589E+00
         21   -1    0    0  505  502  0.00000000000E+00  0.00000000000E+00  0.19574935861E+03  0.19574935861E+03  0.00000000000E+00 0. -1.
          1   -1    0    0  503    0 -0.00000000000E+00 -0.00000000000E+00 -0.82561537367E+03  0.82561537367E+03  0.00000000000E+00 0. -1.
         21    1    1    2  503  504 -0.48879472932E+02  0.21594357829E+02 -0.11410295359E+03  0.12599604431E+03  0.00000000000E+00 0. -1.
         21    1    1    2  504  502  0.36418235819E+01  0.25307481539E+03 -0.16570973107E+02  0.25364290294E+03  0.00000000000E+00 0. -1.
         21    1    1    2  505  501  0.43595972881E+02  0.16286871073E+02  0.16696039825E+02  0.49443187261E+02  0.00000000000E+00 0. -1.
          1    1    1    2  501    0  0.16416764699E+01 -0.29095604429E+03 -0.51588812818E+03  0.59228259776E+03  0.00000000000E+00 0. -1.
<scales pt_clust_3="52.23349" pt_clust_4="14000.00000" pt_clust_5="46.53892" pt_clust_6="271.21088"></scales>
<clustering>
<clus scale="   46.539">  1  5  2 -1</clus>
<clus scale="   52.233">  2  3  1 -1</clus>
<clus scale="  271.211">  2  6  1 -1</clus>
<clus scale="   46.539">  1  3  2 -1</clus>
</clustering>
</event>
<event>
 6    0  0.1631680E+002  0.9604610E+02  0.7546771E-02  0.1288837E+00
         21   -1    0    0  504  502  0.00000000000E+00  0.00000000000E+00  0.10302768164E+03  0.10302768164E+03  0.00000000000E+00 0. -1.
          2   -1    0    0  503    0 -0.00000000000E+00 -0.00000000000E+00 -0.15333714835E+04  0.15333714835E+04  0.00000000000E+00 0.  1.
         21    1    1    2  503  505 -0.44680922180E+02 -0.18369485428E+02 -0.10903613784E+04  0.10914310598E+04  0.00000000000E+00 0.  1.
         21    1    1    2  504  501  0.10210823581E+03 -0.10872966196E+02  0.59922338669E+02  0.11889070563E+03  0.00000000000E+00 0. -1.
         21    1    1    2  505  502 -0.45022886516E+02 -0.33077920584E+02 -0.67346603401E+02  0.87502994978E+02  0.00000000000E+00 0.  1.
          2    1    1    2  501    0 -0.12404427111E+02  0.62320372209E+02 -0.33255815870E+03  0.33857440471E+03  0.00000000000E+00 0.  1.
<scales pt_clust_3="48.30966" pt_clust_4="14000.00000" pt_clust_5="64.10397" pt_clust_6="96.04610"></scales>
<clustering>
<clus scale="   48.310">  2  3  1 -1</clus>
<clus scale="   64.104">  2  5  1 -1</clus>
<clus scale="   96.046">  2  6  1 -1</clus>
<clus scale="   96.046">  1  3  2 -1</clus>
</clustering>
</event>
<event>
 6    0  0.1631680E+002  0.2110362E+03  0.7546771E-02  0.1140748E+00
          2   -1    0    0  504    0 -0.00000000000E+00  0.00000000000E+00  0.50249250430E+03  0.50249250430E+03  0.00000000000E+00 0. -1.
         21   -1    0    0  501  502  0.00000000000E+00 -0.00000000000E+00 -0.14514916931E+04  0.14514916931E+04  0.00000000000E+00 0. -1.
         21    1    1    2  503  505 -0.15025115957E+03 -0.65201498192E+02  0.48637173388E+02  0.17085731168E+03  0.00000000000E+00 0. -1.
         21    1    1    2  504  503 -0.58357585886E+02 -0.72758623034E+02  0.20814414052E+03  0.22808640531E+03  0.00000000000E+00 0. -1.
         21    1    1    2  505  502  0.10376904217E+02  0.21822431042E+03 -0.13022328691E+04  0.13204317382E+04  0.00000000000E+00 0. -1.
          2    1    1    2  501    0  0.19823184124E+03 -0.80264189192E+02  0.96452366396E+02  0.23460874223E+03  0.00000000000E+00 0. -1.
<scales pt_clust_3="196.34572" pt_clust_4="93.27071" pt_clust_5="211.03621" pt_clust_6="14000.00000"></scales>
<clustering>
<clus scale="   93.271">  1  4  2 -1</clus>
<clus scale="  196.346">  1  3  2 -1</clus>
<clus scale="  211.036">  2  5  1 -1</clus>
<clus scale="  211.036">  2  3  1 -1</clus>
</clustering>
</event>
<event>
 6    0  0.1631680E+002  0.1634952E+03  0.7546771E-02  0.1184806E+00
         21   -1    0    0  505  502  0.00000000000E+00  0.00000000000E+00  0.27000476451E+03  0.27000476451E+03  0.00000000000E+00 0.  1.
         -2   -1    0    0    0  501 -0.00000000000E+00 -0.00000000000E+00 -0.12818692298E+04  0.12818692298E+04  0.00000000000E+00 0.  1.
         21    1    1    2  503  502  0.14855832099E+03 -0.17178400086E+02  0.85475879067E+02  0.17225213516E+03  0.00000000000E+00 0.  1.
         21    1    1    2  504  501  0.81559124203E+01  0.70715709312E+02 -0.39444334786E+03  0.40081515081E+03  0.00000000000E+00 0.  1.
         21    1    1    2  505  504 -0.17835261977E+03  0.50402333471E+02  0.70398315151E+02  0.19825734532E+03  0.00000000000E+00 0.  1.
         -2    1    1    2    0  503  0.21638386362E+02 -0.10393964270E+03 -0.77329531169E+03  0.78054936306E+03  0.00000000000E+00 0.  1.
<scales pt_clust_3="14000.00000" pt_clust_4="71.18448" pt_clust_5="163.49518" pt_clust_6="50.76887"></scales>
<clustering>
<clus scale="   71.184">  2  4  1 -1</clus>
<clus scale="   50.769">  2  6  1 -1</clus>
<clus scale="  163.495">  2  5  1 -1</clus>
<clus scale="  163.495">  1  3  2 -1</clus>
</clustering>
</event>
<event>
 6    0  0.1631680E+002  0.9863905E+02  0.7546771E-02  0.1283184E+00
         21   -1    0    0  505  502  0.00000000000E+00  0.00000000000E+00  0.16450820204E+03  0.16450820204E+03  0.00000000000E+00 0. -1.
          2   -1    0    0  504    0 -0.00000000000E+00 -0.00000000000E+00 -0.16731127323E+04  0.16731127323E+04  0.00000000000E+00 0.  1.
         21    1    1    2  503  502 -0.24457087292E+02 -0.74417819898E+02 -0.10028271328E+03  0.12725086884E+03  0.00000000000E+00 0. -1.
         21    1    1    2  504  503  0.25977291210E+02 -0.28770689040E+02 -0.22078883321E+03  0.22416574466E+03  0.00000000000E+00 0.  1.
         21    1    1    2  505  501  0.78093174747E+02  0.67846244582E+02  0.12980766569E+03  0.16598700828E+03  0.00000000000E+00 0. -1.
          2    1    1    2  501    0 -0.79613378665E+02  0.35342264356E+02 -0.13173406494E+04  0.13202173125E+04  0.00000000000E+00 0.  1.
<scales pt_clust_3="98.63905" pt_clust_4="38.76303" pt_clust_5="14000.00000" pt_clust_6="56.74588"></scales>
<clustering>
<clus scale="   38.763">  2  4  1 -1</clus>
<clus scale="   56.746">  2  6  1 -1</clus>
<clus scale="   98.639">  2  3  1 -1</clus>
<clus scale="   98.639">  1  3  2 -1</clus>
</clustering>
</event>
<event>
 6    0  0.1631680E+002  0.7743063E+02  0.7546771E-02  0.1336505E+00
          2   -1    0    0  505    0 -0.00000000000E+00  0.00000000000E+00  0.14065154012E+04  0.14065154012E+04  0.00000000000E+00 0. -1.
         21   -1    0    0  503  502  0.00000000000E+00 -0.00000000000E+00 -0.36551789757E+02  0.36551789757E+02  0.00000000000E+00 0. -1.
         21    1    1    2  503  501 -0.18446700073E+02  0.44313334370E+02  0.25808840914E+02  0.54498152408E+02  0.00000000000E+00 0. -1.
         21    1    1    2  504  502  0.71099285071E+02  0.13049365793E+02  0.54772893348E+02  0.90694344537E+02  0.00000000000E+00 0. -1.
         21    1    1    2  505  504  0.32991792314E+02 -0.15066832969E+02  0.68790372486E+03  0.68885920367E+03  0.00000000000E+00 0. -1.
          2    1    1    2  501    0 -0.85644377312E+02 -0.42295867194E+02  0.60147815228E+03  0.60901549030E+03  0.00000000000E+00 0. -1.
<scales pt_clust_3="46.53327" pt_clust_4="14000.00000" pt_clust_5="36.26938" pt_clust_6="77.43063"></scales>
<clustering>
<clus scale="   36.269">  1  5  2 -1</clus>
<clus scale="   46.533">  2  3  1 -1</clus>
<clus scale="   77.431">  1  6  2 -1</clus>
<clus scale="   46.533">  2  3  1 -1</clus>
</clustering>
</event>
<event>
 6    0  0.1631680E+002  0.5521506E+02  0.7546771E-02  0.1419085E+00
         -3   -1    0    0    0  501 -0.00000000000E+00  0.00000000000E+00  0.81796805339E+03  0.81796805339E+03  0.00000000000E+00 0. -1.
         21   -1    0    0  504  502  0.00000000000E+00 -0.00000000000E+00 -0.10448747918E+03  0.10448747918E+03  0.00000000000E+00 0. -1.
         21    1    1    2  503  505  0.69979916059E+02 -0.53057370777E+02  0.40838578688E+02  0.96850724079E+02  0.00000000000E+00 0. -1.
         21    1    1    2  504  503 -0.36412931193E+02  0.18957789772E+02 -0.63859216272E+02  0.75916393842E+02  0.00000000000E+00 0. -1.
         21    1    1    2  505  501  0.37693584932E+02  0.38417287764E+02  0.16058529446E+03  0.16936449197E+03  0.00000000000E+00 0. -1.
         -3    1    1    2    0  502 -0.71260569799E+02 -0.43177067588E+01  0.57591591733E+03  0.58032392268E+03  0.00000000000E+00 0. -1.
<scales pt_clust_3="55.21506" pt_clust_4="41.05240" pt_clust_5="52.53909" pt_clust_6="14000.00000"></scales>
<clustering>
<clus scale="   41.052">  2  4  1 -1</clus>
<clus scale="   52.539">  1  5  2 -1</clus>
<clus scale="   55.215">  2  3  1 -1</clus>
<clus scale="   41.052">  2  3  1 -1</clus>
</clustering>
</event>
<event>
 6    0  0.1631680E+002  0.1009695E+03  0.7546771E-02  0.1278270E+00
          1   -1    0    0  504    0 -0.00000000000E+00  0.00000000000E+00  0.39533560852E+02  0.39533560852E+02  0.00000000000E+00 0.  1.
         21   -1    0    0  503  502  0.00000000000E+00 -0.00000000000E+00 -0.21845728545E+04  0.21845728545E+04  0.00000000000E+00 0. -1.
         21    1    1    2  503  501 -0.90288354892E+02  0.57252140894E+01 -0.10468006010E+04  0.10507027474E+04  0.00000000000E+00 0. -1.
         21    1    1    2  504  505 -0.56692633269E+02  0.24392865918E+02 -0.99241198556E+02  0.11686694171E+03  0.00000000000E+00 0.  1.
         21    1    1    2  505  502  0.27949518390E+02 -0.95308334201E+02 -0.84685817322E+03  0.85266266465E+03  0.00000000000E+00 0. -1.
          1    1    1    2  501    0  0.11903146977E+03  0.65190254193E+02 -0.15213932087E+03  0.20387406160E+03  0.00000000000E+00 0.  1.
<scales pt_clust_3="94.17029" pt_clust_4="61.71764" pt_clust_5="14000.00000" pt_clust_6="100.96949"></scales>
<clustering>
<clus scale="   61.718">  1  4  2 -1</clus>
<clus scale="   94.170">  2  3  1 -1</clus>
<clus scale="  100.969">  1  6  2 -1</clus>
<clus scale="   94.170">  2  3  1 -1</clus>
</clustering>
</event>
<event>
 6    0  0.1631680E+002  0.1125233E+03  0.7546771E-02  0.1255967E+00
          2   -1    0    0  503    0 -0.00000000000E+00  0.00000000000E+00  0.51117546865E+03  0.51117546865E+03  0.00000000000E+00 0.  1.
         21   -1    0    0  504  502  0.00000000000E+00 -0.00000000000E+00 -0.80178293564E+03  0.80178293564E+03  0.00000000000E+00 0.  1.
         21    1    1    2  503  505  0.95718009779E+02 -0.16597294209E+02  0.36525119548E+03  0.37794952490E+03  0.00000000000E+00 0.  1.
         21    1    1    2  504  501 -0.88791714189E+02 -0.72555116363E+02 -0.73624373065E+03  0.74511948326E+03  0.00000000000E+00 0.  1.
         21    1    1    2  505  502  0.31126170478E+02  0.97883476324E+02  0.24731452322E+01  0.10274302834E+03  0.00000000000E+00 0.  1.
          2    1    1    2  501    0 -0.38052466068E+02 -0.87310657521E+01  0.77911922943E+02  0.87146367794E+02  0.00000000000E+00 0.  1.
<scales pt_clust_3="67.22375" pt_clust_4="112.52331" pt_clust_5="14000.00000" pt_clust_6="39.04128"></scales>
<clustering>
<clus scale="   39.041">  1  6  2 -1</clus>
<clus scale="   67.224">  1  3  2 -1</clus>
<clus scale="  112.523">  2  4  1 -1</clus>
<clus scale="  112.523">  2  3  1 -1</clus>
</clustering>
</event>
<event>
 6    0  0.1631680E+002  0.3011560E+03  0.7546771E-02  0.1084664E+00
          2   -1    0    0  504    0 -0.00000000000E+00  0.00000000000E+00  0.18745482453E+04  0.18745482453E+04  0.00000000000E+00 0.  1.
         21   -1    0    0  505  502  0.00000000000E+00 -0.00000000000E+00 -0.30756522467E+03  0.30756522467E+03  0.00000000000E+00 0. -1.
         21    1    1    2  503  502 -0.24058415287E+01  0.24440240422E+03  0.19549283014E+03  0.31297886494E+03  0.00000000000E+00 0. -1.
         21    1    1    2  504  503  0.34727201558E+02 -0.93574009843E+01  0.86782404171E+03  0.86856899948E+03  0.00000000000E+00 0.  1.
         21    1    1    2  505  501 -0.93515418730E+01 -0.32517138560E+03 -0.13714979522E+03  0.35303533489E+03  0.00000000000E+00 0. -1.
          2    1    1    2  501    0 -0.22969818156E+02  0.90126382366E+02  0.64081594403E+03  0.64753027070E+03  0.00000000000E+00 0.  1.
<scales pt_clust_3="301.15598" pt_clust_4="35.96581" pt_clust_5="14000.00000" pt_clust_6="84.13990"></scales>
<clustering>
<clus scale="   35.966">  1  4  2 -1</clus>
<clus scale="   84.140">  1  6  2 -1</clus>
<clus scale="  301.156">  1  3  2 -1</clus>
<clus scale="  301.156">  2  3  1 -1</clus>
</clustering>
</event>
<event>
 6    0  0.1631680E+002  0.2546417E+03  0.7546771E-02  0.1110406E+00
          4   -1    0    0  505    0 -0.00000000000E+00  0.00000000000E+00  0.12359275509E+04  0.12359275509E+04  0.00000000000E+00 0. -1.
         21   -1    0    0  503  502  0.00000000000E+00 -0.00000000000E+00 -0.18705412211E+03  0.18705412211E+03  0.00000000000E+00 0. -1.
         21    1    1    2  503  501  0.27445082657E+03  0.67168380554E+02  0.84970293262E+02  0.29505050125E+03  0.00000000000E+00 0. -1.
         21    1    1    2  504  502 -0.33316675636E+02 -0.74568299210E+02 -0.25065362994E+02  0.85432456037E+02  0.00000000000E+00 0.  1.
         21    1    1    2  505  504  0.39120216778E+02  0.28347324504E+02  0.16453448737E+03  0.17148049364E+03  0.00000000000E+00 0. -1.
          4    1    1    2  501    0 -0.28025436771E+03 -0.20947405847E+02  0.82443401118E+03  0.87101822210E+03  0.00000000000E+00 0. -1.
<scales pt_clust_3="14000.00000" pt_clust_4="80.49305" pt_clust_5="48.31110" pt_clust_6="254.64166"></scales>
<clustering>
<clus scale="   48.311">  1  5  2 -1</clus>
<clus scale="   80.493">  2  4  1 -1</clus>
<clus scale="  254.642">  1  6  2 -1</clus>
<clus scale="   80.493">  2  3  1 -1</clus>
</clustering>
</event>
<event>
 6    0  0.1631680E+002  0.9277457E+02  0.7546771E-02  0.1296268E+00
         21   -1    0    0  501  502  0.00000000000E+00  0.00000000000E+00  0.12215913228E+03  0.12215913228E+03  0.00000000000E+00 0. -1.
          4   -1    0    0  504    0 -0.00000000000E+00 -0.00000000000E+00 -0.46162056077E+03  0.46162056077E+03  0.00000000000E+00 0. -1.
         21    1    1    2  503  502  0.26406120871E+02  0.89003619084E+02  0.74897106141E+02  0.11928329279E+03  0.00000000000E+00 0. -1.
         21    1    1    2  504  505  0.88301748841E+01  0.35929039329E+02 -0.40829814041E+02  0.55099379037E+02  0.00000000000E+00 0. -1.
         21    1    1    2  505  503 -0.45043904948E+02 -0.26725347539E+02 -0.55088348554E+02  0.76012655003E+02  0.00000000000E+00 0. -1.
          4    1    1    2  501    0  0.98076091931E+01 -0.98207310874E+02 -0.31844037203E+03  0.33338436623E+03  0.00000000000E+00 0. -1.
<scales pt_clust_3="14000.00000" pt_clust_4="36.99821" pt_clust_5="48.44781" pt_clust_6="92.77457"></scales>
<clustering>
<clus scale="   36.998">  2  4  1 -1</clus>
<clus scale="   48.448">  2  5  1 -1</clus>
<clus scale="   92.775">  2  6  1 -1</clus>
<clus scale="   92.775">  1  3  2 -1</clus>
</clustering>
</event>
<event>
 6    0  0.1631680E+002  0.1218810E+03  0.7546771E-02  0.1240026E+00
         21   -1    0    0  505  502  0.00000000000E+00  0.00000000000E+00  0.10304611463E+03  0.10304611463E+03  0.00000000000E+00 0.  1.
         -4   -1    0    0    0  501 -0.00000000000E+00 -0.00000000000E+00 -0.14658293051E+04  0.14658293051E+04  0.00000000000E+00 0. -1.
         21    1    1    2  503  501 -0.10815293406E+03  0.24254460419E+02 -0.72862465264E+03  0.73700693378E+03  0.00000000000E+00 0. -1.
         21    1    1    2  504  502  0.10943680666E+03  0.11306778854E+03 -0.16892995009E+03  0.23086374226E+03  0.00000000000E+00 0. -1.
         21    1    1    2  505  503 -0.11856691263E+03 -0.10524989125E+02 -0.16486137882E+02  0.12016938424E+03  0.00000000000E+00 0.  1.
         -4    1    1    2    0  504  0.11728304003E+03 -0.12679725983E+03 -0.44874244983E+03  0.48083535941E+03  0.00000000000E+00 0. -1.
<scales pt_clust_3="110.83923" pt_clust_4="121.88102" pt_clust_5="14000.00000" pt_clust_6="121.59850"></scales>
<clustering>
<clus scale="  110.839">  2  3  1 -1</clus>
<clus scale="  121.598">  2  6  1 -1</clus>
<clus scale="  121.881">  2  4  1 -1</clus>
<clus scale="  121.881">  1  3  2 -1</clus>
</clustering>
</event>
<event>
 6    0  0.1631680E+002  0.1335071E+03  0.7546771E-02  0.1222343E+00
         -3   -1    0    0    0  501 -0.00000000000E+00  0.00000000000E+00  0.43830182578E+03  0.43830182578E+03  0.00000000000E+00 0. -1.
         21   -1    0    0  505  502  0.00000000000E+00 -0.00000000000E+00 -0.23788010301E+03  0.23788010301E+03  0.00000000000E+00 0. -1.
         21    1    1    2  503  501  0.23614908796E+02  0.27921663443E+02  0.67820181507E+02  0.77051023527E+02  0.00000000000E+00 0. -1.
         21    1    1    2  504  502  0.13331017708E+02  0.13943605294E+03 -0.56250551078E+02  0.15094453746E+03  0.00000000000E+00 0. -1.
         21    1    1    2  505  503  0.78424557011E+01 -0.12935097239E+03 -0.93493998356E+02  0.15979457406E+03  0.00000000000E+00 0. -1.
         -3    1    1    2    0  504 -0.44788382205E+02 -0.38006743990E+02  0.28234609069E+03  0.28839179374E+03  0.00000000000E+00 0. -1.
<scales pt_clust_3="36.56888" pt_clust_4="14000.00000" pt_clust_5="133.50708" pt_clust_6="30.96278"></scales>
<clustering>
<clus scale="   36.569">  1  3  2 -1</clus>
<clus scale="   30.963">  1  6  2 -1</clus>
<clus scale="  133.507">  2  5  1 -1</clus>
<clus scale="  133.507">  2  3  1 -1</clus>
</clustering>
</event>
<event>
 6    0  0.1631680E+002  0.1102201E+03  0.7546771E-02  0.1260163E+00
          1   -1    0    0  503    0 -0.00000000000E+00  0.00000000000E+00  0.38247506087E+03  0.38247506087E+03  0.00000000000E+00 0. -1.
         21   -1    0    0  505  502  0.00000000000E+00 -0.00000000000E+00 -0.24744524849E+03  0.24744524849E+03  0.00000000000E+00 0. -1.
         21    1    1    2  503  504 -0.35674911759E+02  0.48377360779E+01  0.11474434818E+03  0.12025958781E+03  0.00000000000E+00 0. -1.
         21    1    1    2  504  502  0.10888458398E+03  0.65878108502E+02 -0.15761445544E+03  0.20257861282E+03  0.00000000000E+00 0. -1.
         21    1    1    2  505  501 -0.81180894035E+02 -0.33241423750E+02 -0.32253743502E+02  0.93464612443E+02  0.00000000000E+00 0. -1.
          1    1    1    2  501    0  0.79712218176E+01 -0.37474420830E+02  0.21015366314E+03  0.21361749630E+03  0.00000000000E+00 0. -1.
<scales pt_clust_3="36.00143" pt_clust_4="14000.00000" pt_clust_5="110.22015" pt_clust_6="39.39436"></scales>
<clustering>
<clus scale="   36.001">  1  3  2 -1</clus>
<clus scale="   39.394">  1  6  2 -1</clus>
<clus scale="  110.220">  1  5  2 -1</clus>
<clus scale="  110.220">  2  3  1 -1</clus>
</clustering>
</event>
<event>
 6    0  0.1631680E+002  0.7847201E+02  0.7546771E-02  0.1333444E+00
          1   -1    0    0  503    0 -0.00000000000E+00  0.00000000000E+00  0.46798476737E+03  0.46798476737E+03  0.00000000000E+00 0.  1.
         21   -1    0    0  504  502  0.00000000000E+00 -0.00000000000E+00 -0.10255449453E+04  0.10255449453E+04  0.00000000000E+00 0.  1.
         21    1    1    2  503  505 -0.82143097341E+01  0.29216752905E+02  0.28762259076E+02  0.41813407920E+02  0.00000000000E+00 0.  1.
         21    1    1    2  504  501  0.15544019730E+02 -0.62188573995E+02 -0.56018483161E+02  0.85129934457E+02  0.00000000000E+00 0.  1.
         21    1    1    2  505  502 -0.77879081920E+02  0.10718723617E+03 -0.93744738720E+03  0.94676388755E+03  0.00000000000E+00 0.  1.
          1    1    1    2  501    0  0.70549371924E+02 -0.74215415082E+02  0.40714343334E+03  0.41982248275E+03  0.00000000000E+00 0.  1.
<scales pt_clust_3="30.34952" pt_clust_4="63.08125" pt_clust_5="78.47201" pt_clust_6="14000.00000"></scales>
<clustering>
<clus scale="   30.350">  1  3  2 -1</clus>
<clus scale="   63.081">  2  4  1 -1</clus>
<clus scale="   78.472">  2  5  1 -1</clus>
<clus scale="   63.081">  2  3  1 -1</clus>
</clustering>
</event>
<event>
 6    0  0.1631680E+002  0.1690209E+03  0.7546771E-02  0.1178873E+00
          1   -1    0    0  505    0 -0.00000000000E+00  0.00000000000E+00  0.36884846997E+03  0.36884846997E+03  0.00000000000E+00 0.  1.
         21   -1    0    0  501  502  0.00000000000E+00 -0.00000000000E+00 -0.21195219174E+03  0.21195219174E+03  0.00000000000E+00 0.  1.
         21    1    1    2  503  504 -0.40010433391E+02  0.21052279768E+03  0.11093226840E+03  0.24130199190E+03  0.00000000000E+00 0.  1.
         21    1    1    2  504  502 -0.76489831770E+02 -0.89805990434E+02 -0.30710940365E+02  0.12189738365E+03  0.00000000000E+00 0. -1.
         21    1    1    2  505  503 -0.12436352721E+02 -0.35407507602E+02  0.47052060557E+02  0.60185138251E+02  0.00000000000E+00 0.  1.
          1    1    1    2  501    0  0.12893661788E+03 -0.85309299639E+02  0.29622889638E+02  0.15741614792E+03  0.00000000000E+00 0.  1.
<scales pt_clust_3="14000.00000" pt_clust_4="123.04577" pt_clust_5="37.52805" pt_clust_6="169.02092"></scales>
<clustering>
<clus scale="   37.528">  1  5  2 -1</clus>
<clus scale="  123.046">  2  4  1 -1</clus>
<clus scale="  169.021">  2  6  1 -1</clus>
<clus scale="  123.046">  2  3  1 -1</clus>
</clustering>
</event>
<event>
 6    0  0.1631680E+002  0.7705709E+02  0.7546771E-02  0.1337617E+00
         21   -1    0    0  503  502  0.00000000000E+00  0.00000000000E+00  0.53932901403E+02  0.53932901403E+02  0.00000000000E+00 0.  1.
          4   -1    0    0  504    0 -0.00000000000E+00 -0.00000000000E+00 -0.77031533618E+03  0.77031533618E+03  0.00000000000E+00 0. -1.
         21    1    1    2  503  505 -0.31138814758E+02  0.69095142055E+02 -0.27504193905E+02  0.80624097654E+02  0.00000000000E+00 0.  1.
         21    1    1    2  504  502 -0.31672101933E+02  0.52163404042E+02 -0.13514482189E+03  0.14828440797E+03  0.00000000000E+00 0.  1.
         21    1    1    2  505  501 -0.31057848812E+02 -0.94791092510E+02 -0.15104946354E+03  0.18101348466E+03  0.00000000000E+00 0. -1.
          4    1    1    2  501    0  0.93868765503E+02 -0.26467453587E+02 -0.40268395544E+03  0.41432624730E+03  0.00000000000E+00 0. -1.
<scales pt_clust_3="77.05709" pt_clust_4="61.02575" pt_clust_5="14000.00000" pt_clust_6="73.66205"></scales>
<clustering>
<clus scale="   61.026">  2  4  1 -1</clus>
<clus scale="   73.662">  2  6  1 -1</clus>
<clus scale="   77.057">  1  3  2 -1</clus>
<clus scale="   77.057">  1  3  2 -1</clus>
</clustering>
</event>
<event>
 6    0  0.1631680E+002  0.7280032E+02  0.7546771E-02  0.1350821E+00
          2   -1    0    0  504    0 -0.00000000000E+00  0.00000000000E+00  0.19051277378E+04  0.19051277378E+04  0.00000000000E+00 0.  1.
         21   -1    0    0  503  502  0.00000000000E+00 -0.00000000000E+00 -0.50666990781E+03  0.50666990781E+03  0.00000000000E+00 0. -1.
         21    1    1    2  503  505 -0.11982320270E+02  0.59070537178E+02 -0.45006688664E+03  0.45408491145E+03  0.00000000000E+00 0. -1.
         21    1    1    2  504  502  0.32814634519E+02  0.70873745143E+02  0.14517832527E+03  0.16485337157E+03  0.00000000000E+00 0. -1.
         21    1    1    2  505  501 -0.43386662236E+02 -0.95729476362E+02  0.17541277557E+02  0.10655623643E+03  0.00000000000E+00 0. -1.
          2    1    1    2  501    0  0.22554347987E+02 -0.34214805959E+02  0.16858051138E+04  0.16863031261E+04  0.00000000000E+00 0.  1.
<scales pt_clust_3="59.92512" pt_clust_4="72.80032" pt_clust_5="14000.00000" pt_clust_6="40.97989"></scales>
<clustering>
<clus scale="   40.980">  1  6  2 -1</clus>
<clus scale="   59.925">  2  3  1 -1</clus>
<clus scale="   72.800">  1  4  2 -1</clus>
<clus scale="   59.925">  2  3  1 -1</clus>
</clustering>
</event>
<event>
 6    0  0.1631680E+002  0.8501692E+02  0.7546771E-02  0.1315388E+00
         21   -1    0    0  505  502  0.00000000000E+00  0.00000000000E+00  0.11559041986E+03  0.11559041986E+03  0.00000000000E+00 0. -1.
          2   -1    0    0  503    0 -0.00000000000E+00 -0.00000000000E+00 -0.58598516718E+03  0.58598516718E+03  0.00000000000E+00 0. -1.
         21    1    1    2  503  504  0.37073792211E+02  0.17708225083E+01 -0.59553645394E+02  0.70172919000E+02  0.00000000000E+00 0. -1.
         21    1    1    2  504  502  0.36356324954E+02 -0.21553463937E+02  0.40587654834E+02  0.58597712385E+02  0.00000000000E+00 0. -1.
         21    1    1    2  505  501 -0.10556651473E+03  0.68108509544E+02 -0.83135784141E+01  0.12590541565E+03  0.00000000000E+00 0.  1.
          2    1    1    2  501    0  0.32136397563E+02 -0.48325868115E+02 -0.44311517834E+03  0.44689954000E+03  0.00000000000E+00 0. -1.
<scales pt_clust_3="37.11606" pt_clust_4="42.80197" pt_clust_5="85.01692" pt_clust_6="14000.00000"></scales>
<clustering>
<clus scale="   37.116">  2  3  1 -1</clus>
<clus scale="   42.802">  1  4  2 -1</clus>
<clus scale="   85.017">  1  5  2 -1</clus>
<clus scale="   42.802">  1  3  2 -1</clus>
</clustering>
</event>
<event>
 6    0  0.1631680E+002  0.9413401E+02  0.7546771E-02  0.1293139E+00
         21   -1    0    0  505  502  0.00000000000E+00  0.00000000000E+00  0.16577843274E+03  0.16577843274E+03  0.00000000000E+00 0.  1.
         -1   -1    0    0    0  501 -0.00000000000E+00 -0.00000000000E+00 -0.56543996097E+03  0.56543996097E+03  0.00000000000E+00 0. -1.
         21    1    1    2  503  502  0.34501204847E+02 -0.53070987062E+02 -0.10680550200E+02  0.64194524348E+02  0.00000000000E+00 0. -1.
         21    1    1    2  504  501 -0.23269637071E+02  0.30655489403E+02 -0.43036082992E+02  0.57735080144E+02  0.00000000000E+00 0.  1.
         21    1    1    2  505  504 -0.53790019192E+02  0.10292427663E+03  0.10054294236E+03  0.15360877626E+03  0.00000000000E+00 0.  1.
         -1    1    1    2    0  503  0.42558451416E+02 -0.80508778972E+02 -0.44648783739E+03  0.45568001296E+03  0.00000000000E+00 0. -1.
<scales pt_clust_3="94.13401" pt_clust_4="38.48682" pt_clust_5="14000.00000" pt_clust_6="58.06359"></scales>
<clustering>
<clus scale="   38.487">  2  4  1 -1</clus>
<clus scale="   58.064">  2  6  1 -1</clus>
<clus scale="   94.134">  2  3  1 -1</clus>
<clus scale="   94.134">  1  3  2 -1</clus>
</clustering>
</event>
<event>
 6    0  0.1631680E+002  0.1219791E+03  0.7546771E-02  0.1239867E+00
          1   -1    0    0  505    0 -0.00000000000E+00  0.00000000000E+00  0.79412484796E+02  0.79412484796E+02  0.00000000000E+00 0. -1.
         21   -1    0    0  503  502  0.00000000000E+00 -0.00000000000E+00 -0.15205106286E+04  0.15205106286E+04  0.00000000000E+00 0.  1.
         21    1    1    2  503  501 -0.31502400280E+02 -0.51195141890E+02 -0.70206110216E+03  0.70462978573E+03  0.00000000000E+00 0.  1.
         21    1    1    2  504  502  0.15422872620E+03  0.44318020932E+02 -0.70096161820E+03  0.71909510995E+03  0.00000000000E+00 0.  1.
         21    1    1    2  505  504 -0.32547158214E+02  0.58832599566E+02 -0.70886018327E+01  0.67607991802E+02  0.00000000000E+00 0. -1.
          1    1    1    2  501    0 -0.90179167706E+02 -0.51955478608E+02 -0.30986821585E+02  0.10859022588E+03  0.00000000000E+00 0. -1.
<scales pt_clust_3="60.11110" pt_clust_4="14000.00000" pt_clust_5="65.92832" pt_clust_6="121.97907"></scales>
<clustering>
<clus scale="   60.111">  2  3  1 -1</clus>
<clus scale="   65.928">  1  5  2 -1</clus>
<clus scale="  121.979">  1  6  2 -1</clus>
<clus scale="   60.111">  2  3  1 -1</clus>
</clustering>
</event>
<event>
 6    0  0.1631680E+002  0.6768548E+02  0.7546771E-02  0.1368145E+00
          2   -1    0    0  505    0 -0.00000000000E+00  0.00000000000E+00  0.77779002509E+03  0.77779002509E+03  0.00000000000E+00 0. -1.
         21   -1    0    0  503  502  0.00000000000E+00 -0.00000000000E+00 -0.44195496669E+02  0.44195496669E+02  0.00000000000E+00 0. -1.
         21    1    1    2  503  501 -0.24072020893E+02  0.64155304826E+02  0.93113539345E+02  0.11560924071E+03  0.00000000000E+00 0. -1.
         21    1    1    2  504  502 -0.30526526874E+01 -0.48981249815E+02 -0.80000635963E+00  0.49082802814E+02  0.00000000000E+00 0. -1.
         21    1    1    2  505  504 -0.55935552994E+02  0.10510513521E+02  0.27622108484E+03  0.28202365981E+03  0.00000000000E+00 0. -1.
          2    1    1    2  501    0  0.83060226574E+02 -0.25684568532E+02  0.36505991059E+03  0.37526981843E+03  0.00000000000E+00 0. -1.
<scales pt_clust_3="43.95102" pt_clust_4="49.07628" pt_clust_5="67.68548" pt_clust_6="14000.00000"></scales>
<clustering>
<clus scale="   49.076">  2  4  1 -1</clus>
<clus scale="   43.951">  2  3  1 -1</clus>
<clus scale="   67.685">  1  5  2 -1</clus>
<clus scale="   49.076">  2  3  1 -1</clus>
</clustering>
</event>
<event>
 6    0  0.1631680E+002  0.9474130E+02  0.7546771E-02  0.1291760E+00
          1   -1    0    0  503    0 -0.00000000000E+00  0.00000000000E+00  0.11781941317E+04  0.11781941317E+04  0.00000000000E+00 0. -1.
         21   -1    0    0  505  502  0.00000000000E+00 -0.00000000000E+00 -0.32613745537E+02  0.32613745537E+02  0.00000000000E+00 0. -1.
         21    1    1    2  503  504  0.17116291370E+02  0.55262364177E+02  0.14492956641E+03  0.15604959322E+03  0.00000000000E+00 0.  1.
         21    1    1    2  504  502  0.50588334621E+01  0.43777738718E+02  0.14480335254E+02  0.46387092087E+02  0.00000000000E+00 0. -1.
         21    1    1    2  505  501  0.47514136633E+02  0.35895604943E+01  0.75423603270E+02  0.89214337719E+02  0.00000000000E+00 0.  1.
          1    1    1    2  501    0 -0.69689261465E+02 -0.10262966339E+03  0.91074688126E+03  0.91915685424E+03  0.00000000000E+00 0. -1.
<scales pt_clust_3="94.74130" pt_clust_4="44.06906" pt_clust_5="54.14969" pt_clust_6="14000.00000"></scales>
<clustering>
<clus scale="   44.069">  2  4  1 -1</clus>
<clus scale="   54.150">  2  5  1 -1</clus>
<clus scale="   94.741">  2  3  1 -1</clus>
<clus scale="   44.069">  2  3  1 -1</clus>
</clustering>
</event>
<event>
 6    0  0.1631680E+002  0.1226859E+03  0.7546771E-02  0.1238731E+00
          3   -1    0    0  503    0 -0.00000000000E+00  0.00000000000E+00  0.38787188629E+02  0.38787188629E+02  0.00000000000E+00 0. -1.
         21   -1    0    0  505  502  0.00000000000E+00 -0.00000000000E+00 -0.36542056676E+04  0.36542056676E+04  0.00000000000E+00 0. -1.
         21    1    1    2  503  504  0.59758920938E+02 -0.25208726582E+02 -0.28549517678E+03  0.29276971239E+03  0.00000000000E+00 0. -1.
         21    1    1    2  504  502 -0.77805478361E+02 -0.56652393885E+02 -0.11441279364E+03  0.14951078070E+03  0.00000000000E+00 0. -1.
         21    1    1    2  505  501 -0.42970743131E+02  0.12043833472E+03 -0.31519088367E+04  0.31545017343E+04  0.00000000000E+00 0. -1.
          3    1    1    2  501    0  0.61017300554E+02 -0.38577214258E+02 -0.63601671829E+02  0.96210628759E+02  0.00000000000E+00 0. -1.
<scales pt_clust_3="64.85837" pt_clust_4="84.23215" pt_clust_5="122.68586" pt_clust_6="14000.00000"></scales>
<clustering>
<clus scale="   64.858">  1  3  2 -1</clus>
<clus scale="   84.232">  1  4  2 -1</clus>
<clus scale="  122.686">  2  5  1 -1</clus>
<clus scale="  122.686">  2  3  1 -1</clus>
</clustering>
</event>
<event>
 6    0  0.1631680E+002  0.6541372E+02  0.7546771E-02  0.1376422E+00
          2   -1    0    0  504    0 -0.00000000000E+00  0.00000000000E+00  0.16394168590E+04  0.16394168590E+04  0.00000000000E+00 0. -1.
         21   -1    0    0  505  502  0.00000000000E+00 -0.00000000000E+00 -0.83988425274E+03  0.83988425274E+03  0.00000000000E+00 0.  1.
         21    1    1    2  503  501  0.13801549857E+02 -0.10305995343E+03 -0.15507497239E+03  0.18670855321E+03  0.00000000000E+00 0.  1.
         21    1    1    2  504  502 -0.28335550930E+01  0.63328277498E+02  0.41709865720E+03  0.42188836154E+03  0.00000000000E+00 0. -1.
         21    1    1    2  505  503  0.10527344384E+02  0.61351225080E+02 -0.66495080759E+03  0.66785804952E+03  0.00000000000E+00 0.  1.
          2    1    1    2  501    0 -0.21495339148E+02 -0.21619549152E+02  0.12024597291E+04  0.12028461475E+04  0.00000000000E+00 0. -1.
<scales pt_clust_3="65.41372" pt_clust_4="48.60988" pt_clust_5="14000.00000" pt_clust_6="30.48696"></scales>
<clustering>
<clus scale="   30.487">  1  6  2 -1</clus>
<clus scale="   48.610">  1  4  2 -1</clus>
<clus scale="   65.414">  1  3  2 -1</clus>
<clus scale="   65.414">  2  3  1 -1</clus>
</clustering>
</event>
<event>
 6    0  0.1631680E+002  0.8485551E+02  0.7546771E-02  0.1315811E+00
         -3   -1    0    0    0  501 -0.00000000000E+00  0.00000000000E+00  0.77454430936E+03  0.77454430936E+03  0.00000000000E+00 0. -1.
         21   -1    0    0  505  502  0.00000000000E+00 -0.00000000000E+00 -0.41263795978E+02  0.41263795978E+02  0.00000000000E+00 0.  1.
         21    1    1    2  503  501 -0.23643840525E+02  0.25209881087E+02  0.94304756911E+02  0.10043881956E+03  0.00000000000E+00 0.  1.
         21    1    1    2  504  502  0.28898144046E+02  0.10999267710E+02  0.44908428932E+02  0.54523881085E+02  0.00000000000E+00 0.  1.
         21    1    1    2  505  503 -0.96281558144E+02 -0.50044047481E+02  0.70859237081E+02  0.12959774923E+03  0.00000000000E+00 0.  1.
         -3    1    1    2    0  504  0.91027254623E+02  0.13834898685E+02  0.52320809046E+03  0.53124765546E+03  0.00000000000E+00 0. -1.
<scales pt_clust_3="33.66048" pt_clust_4="30.92065" pt_clust_5="84.85551" pt_clust_6="14000.00000"></scales>
<clustering>
<clus scale="   30.921">  2  4  1 -1</clus>
<clus scale="   33.660">  1  3  2 -1</clus>
<clus scale="   84.856">  2  5  1 -1</clus>
<clus scale="   30.921">  2  3  1 -1</clus>
</clustering>
</event>
<event>
 6    0  0.1631680E+002  0.1127622E+03  0.7546771E-02  0.1255539E+00
          1   -1    0    0  503    0 -0.00000000000E+00  0.00000000000E+00  0.40562111343E+03  0.40562111343E+03  0.00000000000E+00 0. -1.
         21   -1    0    0  504  502  0.00000000000E+00 -0.00000000000E+00 -0.38729884180E+03  0.38729884180E+03  0.00000000000E+00 0.  1.
         21    1    1    2  503  505 -0.91015733595E+01 -0.36486569146E+02  0.67977108300E+02  0.77685234237E+02  0.00000000000E+00 0. -1.
         21    1    1    2  504  501 -0.14338715206E+03  0.43957660838E+02 -0.14640367731E+03  0.20958575346E+03  0.00000000000E+00 0.  1.
         21    1    1    2  505  502  0.35594790231E+02 -0.26076119102E+02 -0.19019733443E+03  0.19524850602E+03  0.00000000000E+00 0.  1.
          1    1    1    2  501    0  0.11689393519E+03  0.18605027410E+02  0.28694617506E+03  0.31040046152E+03  0.00000000000E+00 0. -1.
<scales pt_clust_3="37.60463" pt_clust_4="14000.00000" pt_clust_5="44.23300" pt_clust_6="112.76217"></scales>
<clustering>
<clus scale="   37.605">  1  3  2 -1</clus>
<clus scale="   44.233">  2  5  1 -1</clus>
<clus scale="  112.762">  1  6  2 -1</clus>
<clus scale="   44.233">  2  3  1 -1</clus>
</clustering>
</event>
<event>
 6    0  0.1631680E+002  0.7203793E+02  0.7546771E-02  0.1353297E+00
          2   -1    0    0  504    0 -0.00000000000E+00  0.00000000000E+00  0.11711750435E+04  0.11711750435E+04  0.00000000000E+00 0.  1.
         21   -1    0    0  505  502  0.00000000000E+00 -0.00000000000E+00 -0.25964340957E+02  0.25964340957E+02  0.00000000000E+00 0.  1.
         21    1    1    2  503  502 -0.74111273989E+02  0.97132690675E+01  0.74673981587E+02  0.10565525095E+03  0.00000000000E+00 0.  1.
         21    1    1    2  504  503 -0.43841605287E+02  0.39382580126E+02  0.35579731158E+03  0.36064497903E+03  0.00000000000E+00 0. -1.
         21    1    1    2  505  501  0.27190186706E+02 -0.21807861035E+02  0.60921885176E+02  0.70188069852E+02  0.00000000000E+00 0.  1.
          2    1    1    2  501    0  0.90762692569E+02 -0.27287988158E+02  0.65381752415E+03  0.66065108457E+03  0.00000000000E+00 0.  1.
<scales pt_clust_3="54.70968" pt_clust_4="72.03793" pt_clust_5="34.85526" pt_clust_6="14000.00000"></scales>
<clustering>
<clus scale="   34.855">  2  5  1 -1</clus>
<clus scale="   54.710">  2  3  1 -1</clus>
<clus scale="   72.038">  1  4  2 -1</clus>
<clus scale="   34.855">  2  3  1 -1</clus>
</clustering>
</event>
<event>
 6    0  0.1631680E+002  0.1136282E+03  0.7546771E-02  0.1253995E+00
          2   -1    0    0  504    0 -0.00000000000E+00  0.00000000000E+00  0.27696833705E+04  0.27696833705E+04  0.00000000000E+00 0. -1.
         21   -1    0    0  503  502  0.00000000000E+00 -0.00000000000E+00 -0.21749663074E+03  0.21749663074E+03  0.00000000000E+00 0. -1.
         21    1    1    2  503  501 -0.65030462615E+02  0.76325460771E+02  0.59910034721E+03  0.60743375199E+03  0.00000000000E+00 0. -1.
         21    1    1    2  504  505  0.37385183851E+02 -0.85998632584E+01  0.13324236056E+03  0.13865473763E+03  0.00000000000E+00 0. -1.
         21    1    1    2  505  502  0.22463836852E+02  0.57538761199E+02 -0.20411340048E+03  0.21325480829E+03  0.00000000000E+00 0. -1.
          2    1    1    2  501    0  0.51814419111E+01 -0.12526435871E+03  0.20239574325E+04  0.20278367033E+04  0.00000000000E+00 0. -1.
<scales pt_clust_3="113.62821" pt_clust_4="38.36156" pt_clust_5="61.77811" pt_clust_6="14000.00000"></scales>
<clustering>
<clus scale="   38.362">  1  4  2 -1</clus>
<clus scale="   61.778">  2  5  1 -1</clus>
<clus scale="  113.628">  2  3  1 -1</clus>
<clus scale="   61.778">  2  3  1 -1</clus>
</clustering>
</event>
<event>
 6    0  0.1631680E+002  0.1461110E+03  0.7546771E-02  0.1205335E+00
          2   -1    0    0  505    0 -0.00000000000E+00  0.00000000000E+00  0.15910063290E+04  0.15910063290E+04  0.00000000000E+00 0.  1.
         21   -1    0    0  501  502  0.00000000000E+00 -0.00000000000E+00 -0.18404873115E+02  0.18404873115E+02  0.00000000000E+00 0.  1.
         21    1    1    2  503  502 -0.17495233640E+02  0.73454035796E+02  0.29841081571E+03  0.30781584350E+03  0.00000000000E+00 0.  1.
         21    1    1    2  504  503 -0.51180633417E+02  0.44955074453E+02  0.23916631238E+03  0.24867838856E+03  0.00000000000E+00 0.  1.
         21    1    1    2  505  504  0.32937466979E+02 -0.14198627285E+03  0.68862007326E+03  0.70387682425E+03  0.00000000000E+00 0.  1.
          2    1    1    2  501    0  0.35738400078E+02  0.23577162596E+02  0.34640425451E+03  0.34904014580E+03  0.00000000000E+00 0.  1.
<scales pt_clust_3="42.04562" pt_clust_4="42.04562" pt_clust_5="139.24391" pt_clust_6="42.81490"></scales>
<clustering>
<clus scale="   42.046">  3  4 -1 -1</clus>
<clus scale="   42.815">  1  6  2 -1</clus>
<clus scale="  139.244">  1  5  2 -1</clus>
<clus scale="  146.111">  2  3  1 -1</clus>
</clustering>
</event>
<event>
 6    0  0.1631680E+002  0.1642930E+03  0.7546771E-02  0.1183933E+00
         -4   -1    0    0    0  501 -0.00000000000E+00  0.00000000000E+00  0.24214142046E+03  0.24214142046E+03  0.00000000000E+00 0.  1.
         21   -1    0    0  503  502  0.00000000000E+00 -0.00000000000E+00 -0.75992554580E+03  0.75992554580E+03  0.00000000000E+00 0.  1.
         21    1    1    2  503  505 -0.50963257490E+02 -0.99244892353E+01 -0.36506161428E+03  0.36873531336E+03  0.00000000000E+00 0.  1.
         21    1    1    2  504  501  0.47769947657E+02 -0.15188425087E+02  0.28134234446E+02  0.57482095505E+02  0.00000000000E+00 0.  1.
         21    1    1    2  505  504 -0.91680910705E+02 -0.50790785457E+02 -0.35126129809E+03  0.36656458205E+03  0.00000000000E+00 0. -1.
         -4    1    1    2    0  502  0.94874220537E+02  0.75903699779E+02  0.17040455259E+03  0.20928497534E+03  0.00000000000E+00 0.  1.
<scales pt_clust_3="41.72078" pt_clust_4="50.12640" pt_clust_5="41.72078" pt_clust_6="153.22686"></scales>
<clustering>
<clus scale="   41.721">  3  5 -1 -1</clus>
<clus scale="   50.126">  1  4  2 -1</clus>
<clus scale="  153.227">  1  6  2 -1</clus>
<clus scale="  164.293">  2  3  1 -1</clus>
</clustering>
</event>
<event>
 6    0  0.1631680E+002  0.1835323E+03  0.7546771E-02  0.1164428E+00
         21   -1    0    0  503  502  0.00000000000E+00  0.00000000000E+00  0.59374087291E+03  0.59374087291E+03  0.00000000000E+00 0.  1.
          2   -1    0    0  504    0 -0.00000000000E+00 -0.00000000000E+00 -0.56018522336E+03  0.56018522336E+03  0.00000000000E+00 0.  1.
         21    1    1    2  503  501  0.39478833437E+02 -0.33080876626E+02  0.32406571968E+03  0.32813337739E+03  0.00000000000E+00 0.  1.
         21    1    1    2  504  505  0.20036068429E+02 -0.28735568648E+02 -0.38323222485E+03  0.38482998208E+03  0.00000000000E+00 0.  1.
         21    1    1    2  505  502  0.87783992922E+02  0.16889638404E+03  0.15813403735E+03  0.24746392005E+03  0.00000000000E+00 0.  1.
          2    1    1    2  501    0 -0.14729889479E+03 -0.10707993877E+03 -0.65411882635E+02  0.19349881675E+03  0.00000000000E+00 0.  1.
<scales pt_clust_3="51.89704" pt_clust_4="35.03109" pt_clust_5="14000.00000" pt_clust_6="183.53235"></scales>
<clustering>
<clus scale="   35.031">  2  4  1 -1</clus>
<clus scale="   51.897">  1  3  2 -1</clus>
<clus scale="  183.532">  2  6  1 -1</clus>
<clus scale="   51.897">  1  3  2 -1</clus>
</clustering>
</event>
<event>
 6    0  0.1631680E+002  0.6684704E+02  0.7546771E-02  0.1371155E+00
         21   -1    0    0  505  502  0.00000000000E+00  0.00000000000E+00  0.23885731962E+04  0.23885731962E+04  0.00000000000E+00 0. -1.
          2   -1    0    0  504    0 -0.00000000000E+00 -0.00000000000E+00 -0.26418306695E+03  0.26418306695E+03  0.00000000000E+00 0.  1.
         21    1    1    2  503  502 -0.60204942425E+02  0.51122880054E+02  0.22472657669E+04  0.22486532883E+04  0.00000000000E+00 0. -1.
         21    1    1    2  504  503  0.31864895065E+02 -0.92156157853E+02 -0.13674309278E+03  0.16794880884E+03  0.00000000000E+00 0.  1.
         21    1    1    2  505  501  0.33164713889E+02 -0.12982831759E+02  0.11554972127E+03  0.12091397874E+03  0.00000000000E+00 0. -1.
          2    1    1    2  501    0 -0.48246665292E+01  0.54016109558E+02 -0.10168226618E+03  0.11524018723E+03  0.00000000000E+00 0.  1.
<scales pt_clust_3="47.04684" pt_clust_4="14000.00000" pt_clust_5="35.61534" pt_clust_6="66.84704"></scales>
<clustering>
<clus scale="   35.615">  1  5  2 -1</clus>
<clus scale="   47.047">  1  3  2 -1</clus>
<clus scale="   66.847">  2  6  1 -1</clus>
<clus scale="   35.615">  1  3  2 -1</clus>
</clustering>
</event>
<event>
 6    0  0.1631680E+002  0.1317812E+03  0.7546771E-02  0.1224836E+00
          1   -1    0    0  504    0 -0.00000000000E+00  0.00000000000E+00  0.10442077005E+03  0.10442077005E+03  0.00000000000E+00 0.  1.
         21   -1    0    0  505  502  0.00000000000E+00 -0.00000000000E+00 -0.70817841638E+03  0.70817841638E+03  0.00000000000E+00 0.  1.
         21    1    1    2  503  502 -0.81619821555E+01  0.13571744951E+03 -0.16342759335E+03  0.21258979825E+03  0.00000000000E+00 0.  1.
         21    1    1    2  504  503  0.37614406950E+02 -0.26751155856E+02  0.22372211721E+02  0.51293116567E+02  0.00000000000E+00 0.  1.
         21    1    1    2  505  501  0.11112584200E+03 -0.90193231257E+02 -0.30317827027E+03  0.33526233801E+03  0.00000000000E+00 0.  1.
          1    1    1    2  501    0 -0.14057826680E+03 -0.18773062393E+02 -0.15952399443E+03  0.21345393360E+03  0.00000000000E+00 0.  1.
<scales pt_clust_3="126.10911" pt_clust_4="46.15699" pt_clust_5="14000.00000" pt_clust_6="131.78122"></scales>
<clustering>
<clus scale="   46.157">  1  4  2 -1</clus>
<clus scale="  126.109">  1  3  2 -1</clus>
<clus scale="  131.781">  1  6  2 -1</clus>
<clus scale="  131.781">  2  3  1 -1</clus>
</clustering>
</event>
<event>
 6    0  0.1631680E+002  0.9615282E+02  0.7546771E-02  0.1288601E+00
          1   -1    0    0  504    0 -0.00000000000E+00  0.00000000000E+00  0.10945125931E+04  0.10945125931E+04  0.00000000000E+00 0.  1.
         21   -1    0    0  505  502  0.00000000000E+00 -0.00000000000E+00 -0.67785960622E+02  0.67785960622E+02  0.00000000000E+00 0.  1.
         21    1    1    2  503  501  0.19998101130E+02 -0.50414959753E+02  0.89537452367E+02  0.10468308169E+03  0.00000000000E+00 0.  1.
         21    1    1    2  504  502  0.22025178379E+02  0.98688009505E+02  0.90473125930E+02  0.13568278527E+03  0.00000000000E+00 0.  1.
         21    1    1    2  505  503  0.35195033728E+01  0.36201643127E+02 -0.25520484206E+02  0.44432431660E+02  0.00000000000E+00 0.  1.
          1    1    1    2  501    0 -0.45542782882E+02 -0.84474692879E+02  0.87223653838E+03  0.87750025509E+03  0.00000000000E+00 0.  1.
<scales pt_clust_3="46.92601" pt_clust_4="14000.00000" pt_clust_5="36.37232" pt_clust_6="96.15282"></scales>
<clustering>
<clus scale="   36.372">  2  5  1 -1</clus>
<clus scale="   46.926">  2  3  1 -1</clus>
<clus scale="   96.153">  1  6  2 -1</clus>
<clus scale="   36.372">  2  3  1 -1</clus>
</clustering>
</event>
<event>
 6    0  0.1631680E+002  0.1651977E+03  0.7546771E-02  0.1182950E+00
         21   -1    0    0  505  502  0.00000000000E+00  0.00000000000E+00  0.58345960429E+03  0.58345960429E+03  0.00000000000E+00 0. -1.
         -1   -1    0    0    0  501 -0.00000000000E+00 -0.00000000000E+00 -0.39721725907E+03  0.39721725907E+03  0.00000000000E+00 0. -1.
         21    1    1    2  503  502  0.81679863824E+00 -0.43435268099E+02 -0.10068080793E+03  0.10965361262E+03  0.00000000000E+00 0.  1.
         21    1    1    2  504  501  0.74321525379E+02  0.82047372761E+02  0.22094052999E+03  0.24712381169E+03  0.00000000000E+00 0. -1.
         21    1    1    2  505  504  0.29877566208E+02  0.27947180088E+02  0.32976018230E+03  0.33228826592E+03  0.00000000000E+00 0. -1.
         -1    1    1    2    0  503 -0.10501589023E+03 -0.66559284749E+02 -0.26377755915E+03  0.29161117314E+03  0.00000000000E+00 0. -1.
<scales pt_clust_3="42.88256" pt_clust_4="148.53624" pt_clust_5="40.91105" pt_clust_6="42.88256"></scales>
<clustering>
<clus scale="   40.911">  1  5  2 -1</clus>
<clus scale="   42.883">  3  6 -1 -1</clus>
<clus scale="  148.536">  1  4  2 -1</clus>
<clus scale="   40.911">  1  3  2 -1</clus>
</clustering>
</event>
<event>
 6    0  0.1631680E+002  0.9719582E+02  0.7546771E-02  0.1286306E+00
         21   -1    0    0  503  502  0.00000000000E+00  0.00000000000E+00  0.36198513527E+03  0.36198513527E+03  0.00000000000E+00 0.  1.
          2   -1    0    0  505    0 -0.00000000000E+00 -0.00000000000E+00 -0.10074352455E+04  0.10074352455E+04  0.00000000000E+00 0. -1.
         21    1    1    2  503  501  0.82098811447E+02 -0.53595493821E+02  0.13754167380E+03  0.16890945454E+03  0.00000000000E+00 0.  1.
         21    1    1    2  504  502 -0.91501919311E+02  0.33946475301E+02  0.17223828330E+03  0.19796714539E+03  0.00000000000E+00 0.  1.
         21    1    1    2  505  504  0.78557095612E+02  0.25911240692E+02 -0.54318183630E+02  0.98959965329E+02  0.00000000000E+00 0.  1.
          2    1    1    2  501    0 -0.69153987748E+02 -0.62622221718E+01 -0.90091188374E+03  0.90358381555E+03  0.00000000000E+00 0. -1.
<scales pt_clust_3="97.19582" pt_clust_4="14000.00000" pt_clust_5="35.34705" pt_clust_6="69.43695"></scales>
<clustering>
<clus scale="   69.437">  2  6  1 -1</clus>
<clus scale="   35.347">  2  5  1 -1</clus>
<clus scale="   97.196">  2  3  1 -1</clus>
<clus scale="   97.196">  1  3  2 -1</clus>
</clustering>
</event>
<event>
 6    0  0.1631680E+002  0.7753728E+02  0.7546771E-02  0.1336189E+00
          2   -1    0    0  503    0 -0.00000000000E+00  0.00000000000E+00  0.22965040271E+04  0.22965040271E+04  0.00000000000E+00 0. -1.
         21   -1    0    0  504  502  0.00000000000E+00 -0.00000000000E+00 -0.24619578457E+03  0.24619578457E+03  0.00000000000E+00 0. -1.
         21    1    1    2  503  502 -0.41585221523E+02  0.15889075288E+02  0.16869906303E+04  0.16875779034E+04  0.00000000000E+00 0. -1.
         21    1    1    2  504  505 -0.84395628144E+02  0.57761968904E+01 -0.17129305634E+03  0.19104265924E+03  0.00000000000E+00 0. -1.
         21    1    1    2  505  501  0.62369458503E+02  0.33758681636E+02 -0.41268251993E+02  0.82052827875E+02  0.00000000000E+00 0.  1.
          2    1    1    2  501    0  0.63611391164E+02 -0.55423953815E+02  0.57587892061E+03  0.58202642118E+03  0.00000000000E+00 0. -1.
<scales pt_clust_3="44.51734" pt_clust_4="14000.00000" pt_clust_5="77.53728" pt_clust_6="46.97319"></scales>
<clustering>
<clus scale="   44.517">  1  3  2 -1</clus>
<clus scale="   46.973">  1  6  2 -1</clus>
<clus scale="   77.537">  1  5  2 -1</clus>
<clus scale="   77.537">  2  3  1 -1</clus>
</clustering>
</event>
<event>
 6    0  0.1631680E+002  0.7110194E+02  0.7546771E-02  0.1356385E+00
         21   -1    0    0  501  502  0.00000000000E+00  0.00000000000E+00  0.36255337290E+03  0.36255337290E+03  0.00000000000E+00 0. -1.
          2   -1    0    0  503    0 -0.00000000000E+00 -0.00000000000E+00 -0.67867193246E+03  0.67867193246E+03  0.00000000000E+00 0.  1.
         21    1    1    2  503  505  0.52741844925E+02  0.19447508434E+02 -0.42234300073E+03  0.42606750410E+03  0.00000000000E+00 0.  1.
         21    1    1    2  504  502 -0.70408189233E+02 -0.42523314841E+02  0.20805631312E+03  0.22372522175E+03  0.00000000000E+00 0. -1.
         21    1    1    2  505  504  0.67057317175E+02 -0.69279142267E+01  0.13326019125E+03  0.14934175020E+03  0.00000000000E+00 0. -1.
          2    1    1    2  501    0 -0.49390972867E+02  0.30003720633E+02 -0.23509206320E+03  0.24209082931E+03  0.00000000000E+00 0.  1.
<scales pt_clust_3="56.21306" pt_clust_4="14000.00000" pt_clust_5="71.10194" pt_clust_6="48.23801"></scales>
<clustering>
<clus scale="   56.213">  2  3  1 -1</clus>
<clus scale="   48.238">  2  6  1 -1</clus>
<clus scale="   71.102">  2  5  1 -1</clus>
<clus scale="   71.102">  1  3  2 -1</clus>
</clustering>
</event>
<event>
 6    0  0.1631680E+002  0.1238317E+03  0.7546771E-02  0.1236907E+00
         -2   -1    0    0    0  501 -0.00000000000E+00  0.00000000000E+00  0.34550489214E+03  0.34550489214E+03  0.00000000000E+00 0. -1.
         21   -1    0    0  504  502  0.00000000000E+00 -0.00000000000E+00 -0.17828596919E+04  0.17828596919E+04  0.00000000000E+00 0. -1.
         21    1    1    2  503  502 -0.33402621989E+02 -0.68374554556E+02  0.61595090119E+02  0.97901838559E+02  0.00000000000E+00 0. -1.
         21    1    1    2  504  505  0.62685685594E+02 -0.10376188274E+03 -0.14587602003E+04  0.14637886956E+04  0.00000000000E+00 0. -1.
         21    1    1    2  505  501  0.10463083422E+02  0.17906217352E+03 -0.27505334398E+03  0.32837033991E+03  0.00000000000E+00 0. -1.
         -2    1    1    2    0  503 -0.39746147027E+02 -0.69257362254E+01  0.23486365438E+03  0.23830370995E+03  0.00000000000E+00 0. -1.
<scales pt_clust_3="96.44116" pt_clust_4="123.83166" pt_clust_5="14000.00000" pt_clust_6="40.34504"></scales>
<clustering>
<clus scale="   40.345">  1  6  2 -1</clus>
<clus scale="   96.441">  1  3  2 -1</clus>
<clus scale="  123.832">  2  4  1 -1</clus>
<clus scale="  123.832">  2  3  1 -1</clus>
</clustering>
</event>
<event>
 6    0  0.1631680E+002  0.1164920E+03  0.7546771E-02  0.1248999E+00
         21   -1    0    0  503  502  0.00000000000E+00  0.00000000000E+00  0.74720060294E+03  0.74720060294E+03  0.00000000000E+00 0. -1.
          1   -1    0    0  504    0 -0.00000000000E+00 -0.00000000000E+00 -0.19437495292E+04  0.19437495292E+04  0.00000000000E+00 0.  1.
         21    1    1    2  503  501  0.29529336354E+02  0.61353083420E+02  0.59630540922E+03  0.60018024261E+03  0.00000000000E+00 0. -1.
         21    1    1    2  504  505  0.57285081743E+02  0.15637804436E+02 -0.31005797199E+02  0.66988663054E+02  0.00000000000E+00 0.  1.
         21    1    1    2  505  502  0.63687774798E+02 -0.12681166024E+03  0.88114739116E+02  0.16703753196E+03  0.00000000000E+00 0. -1.
          1    1    1    2  501    0 -0.15050219290E+03  0.49820772388E+02 -0.18499632774E+04  0.18567436945E+04  0.00000000000E+00 0.  1.
<scales pt_clust_3="68.12935" pt_clust_4="59.38115" pt_clust_5="14000.00000" pt_clust_6="116.49203"></scales>
<clustering>
<clus scale="   59.381">  2  4  1 -1</clus>
<clus scale="   68.129">  1  3  2 -1</clus>
<clus scale="  116.492">  2  6  1 -1</clus>
<clus scale="   68.129">  1  3  2 -1</clus>
</clustering>
</event>
<event>
 6    0  0.1631680E+002  0.8191225E+02  0.7546771E-02  0.1323711E+00
         21   -1    0    0  501  502  0.00000000000E+00  0.00000000000E+00  0.28933105223E+03  0.28933105223E+03  0.00000000000E+00 0. -1.
          2   -1    0    0  503    0 -0.00000000000E+00 -0.00000000000E+00 -0.19778053759E+03  0.19778053759E+03  0.00000000000E+00 0. -1.
         21    1    1    2  503  505 -0.40117412463E+02  0.25369810231E+02 -0.79937154500E+02  0.92967643422E+02  0.00000000000E+00 0. -1.
         21    1    1    2  504  502  0.40175639146E+02  0.33524340656E+01  0.20685664874E+03  0.21074865106E+03  0.00000000000E+00 0. -1.
         21    1    1    2  505  504 -0.86900477569E+02  0.43906729119E+01 -0.17140458157E+02  0.88683517726E+02  0.00000000000E+00 0. -1.
          2    1    1    2  501    0  0.86842250886E+02 -0.33112917208E+02 -0.18228521444E+02  0.94711777615E+02  0.00000000000E+00 0. -1.
<scales pt_clust_3="44.90696" pt_clust_4="40.31527" pt_clust_5="14000.00000" pt_clust_6="81.91225"></scales>
<clustering>
<clus scale="   40.315">  1  4  2 -1</clus>
<clus scale="   44.907">  2  3  1 -1</clus>
<clus scale="   81.912">  2  6  1 -1</clus>
<clus scale="   40.315">  1  3  2 -1</clus>
</clustering>
</event>
<event>
 6    0  0.1631680E+002  0.2571080E+03  0.7546771E-02  0.1108893E+00
          2   -1    0    0  505    0 -0.00000000000E+00  0.00000000000E+00  0.37014191082E+04  0.37014191082E+04  0.00000000000E+00 0. -1.
         21   -1    0    0  501  502  0.00000000000E+00 -0.00000000000E+00 -0.17802702578E+03  0.17802702578E+03  0.00000000000E+00 0. -1.
         21    1    1    2  503  502  0.11491366979E+01 -0.67740870332E+02 -0.36703812666E+02  0.77053980382E+02  0.00000000000E+00 0. -1.
         21    1    1    2  504  503  0.25711551528E+03  0.11499798890E+03  0.70017292671E+02  0.29023326295E+03  0.00000000000E+00 0. -1.
         21    1    1    2  505  504 -0.47772226268E+02  0.46435637090E+01  0.24130502104E+04  0.24135275151E+04  0.00000000000E+00 0. -1.
          2    1    1    2  501    0 -0.21049242571E+03 -0.51900682276E+02  0.10770283920E+04  0.10986313756E+04  0.00000000000E+00 0. -1.
<scales pt_clust_3="67.66933" pt_clust_4="14000.00000" pt_clust_5="47.99738" pt_clust_6="257.10795"></scales>
<clustering>
<clus scale="   47.997">  1  5  2 -1</clus>
<clus scale="   67.669">  2  3  1 -1</clus>
<clus scale="  257.108">  1  6  2 -1</clus>
<clus scale="   67.669">  2  3  1 -1</clus>
</clustering>
</event>
<event>
 6    0  0.1631680E+002  0.9206715E+02  0.7546771E-02  0.1297922E+00
          1   -1    0    0  503    0 -0.00000000000E+00  0.00000000000E+00  0.25825433502E+04  0.25825433502E+04  0.00000000000E+00 0. -1.
         21   -1    0    0  505  502  0.00000000000E+00 -0.00000000000E+00 -0.43045436184E+02  0.43045436184E+02  0.00000000000E+00 0. -1.
         21    1    1    2  503  504 -0.45883874359E+02  0.18006404917E+02  0.38201884641E+03  0.38518561701E+03  0.00000000000E+00 0.  1.
         21    1    1    2  504  502  0.29318974551E+02  0.62857667484E+02  0.83901232245E+02  0.10885818941E+03  0.00000000000E+00 0.  1.
         21    1    1    2  505  501 -0.10337739653E+03 -0.10052490783E+03  0.16511092683E+03  0.21921168164E+03  0.00000000000E+00 0. -1.
          1    1    1    2  501    0  0.11994229634E+03  0.19660835425E+02  0.19084669085E+04  0.19123332983E+04  0.00000000000E+00 0. -1.
<scales pt_clust_3="49.29057" pt_clust_4="69.25783" pt_clust_5="14000.00000" pt_clust_6="92.06715"></scales>
<clustering>
<clus scale="   49.291">  1  3  2 -1</clus>
<clus scale="   69.258">  2  4  1 -1</clus>
<clus scale="   92.067">  1  6  2 -1</clus>
<clus scale="   69.258">  2  3  1 -1</clus>
</clustering>
</event>
<event>
 6    0  0.1631680E+002  0.8732960E+02  0.7546771E-02  0.1309450E+00
         21   -1    0    0  505  502  0.00000000000E+00  0.00000000000E+00  0.11030211119E+03  0.11030211119E+03  0.00000000000E+00 0. -1.
          1   -1    0    0  503    0 -0.00000000000E+00 -0.00000000000E+00 -0.15283390620E+04  0.15283390620E+04  0.00000000000E+00 0.  1.
         21    1    1    2  503  504 -0.22775209982E+02  0.26683605260E+02 -0.61249411539E+02  0.70584809932E+02  0.00000000000E+00 0. -1.
         21    1    1    2  504  502 -0.48517392616E+02  0.31729243524E+02 -0.42626169675E+03  0.43018567665E+03  0.00000000000E+00 0.  1.
         21    1    1    2  505  501 -0.19864746776E+01 -0.88346747659E+02  0.83013515096E+02  0.12124494873E+03  0.00000000000E+00 0. -1.
          1    1    1    2  501    0  0.73279077275E+02  0.29933898876E+02 -0.10135393576E+04  0.10166257379E+04  0.00000000000E+00 0.  1.
<scales pt_clust_3="35.08169" pt_clust_4="67.89081" pt_clust_5="87.32960" pt_clust_6="14000.00000"></scales>
<clustering>
<clus scale="   35.082">  2  3  1 -1</clus>
<clus scale="   67.891">  2  4  1 -1</clus>
<clus scale="   87.330">  1  5  2 -1</clus>
<clus scale="   87.330">  1  3  2 -1</clus>
</clustering>
</event>
<event>
 6    0  0.1631680E+002  0.1463850E+03  0.7546771E-02  0.1204987E+00
          2   -1    0    0  503    0 -0.00000000000E+00  0.00000000000E+00  0.20429879607E+04  0.20429879607E+04  0.00000000000E+00 0.  1.
         21   -1    0    0  505  502  0.00000000000E+00 -0.00000000000E+00 -0.63200028256E+03  0.63200028256E+03  0.00000000000E+00 0.  1.
         21    1    1    2  503  504  0.13420855761E+03  0.11036879339E+02  0.83674052259E+03  0.84750719867E+03  0.00000000000E+00 0.  1.
         21    1    1    2  504  502 -0.27057578849E+02 -0.24033460669E+02 -0.24489298173E+03  0.24755260513E+03  0.00000000000E+00 0.  1.
         21    1    1    2  505  501 -0.84943198745E+02  0.12001256269E+03 -0.36357186550E+03  0.39217708194E+03  0.00000000000E+00 0.  1.
          2    1    1    2  501    0 -0.22207780020E+02 -0.10701598136E+03  0.11827120028E+04  0.11877513576E+04  0.00000000000E+00 0.  1.
<scales pt_clust_3="146.38504" pt_clust_4="36.19005" pt_clust_5="14000.00000" pt_clust_6="109.48565"></scales>
<clustering>
<clus scale="   36.190">  2  4  1 -1</clus>
<clus scale="  109.486">  1  6  2 -1</clus>
<clus scale="  146.385">  1  3  2 -1</clus>
<clus scale="   36.190">  2  3  1 -1</clus>
</clustering>
</event>
<event>
 6    0  0.1631680E+002  0.1920271E+03  0.7546771E-02  0.1156646E+00
         21   -1    0    0  504  502  0.00000000000E+00  0.00000000000E+00  0.42526981479E+03  0.42526981479E+03  0.00000000000E+00 0. -1.
          2   -1    0    0  503    0 -0.00000000000E+00 -0.00000000000E+00 -0.44127300075E+04  0.44127300075E+04  0.00000000000E+00 0. -1.
         21    1    1    2  503  505 -0.35760248706E+02  0.45057143896E+01 -0.20403459939E+03  0.20719366447E+03  0.00000000000E+00 0. -1.
         21    1    1    2  504  501  0.69377292956E+02  0.11981691786E+03  0.36139760361E+03  0.38701102114E+03  0.00000000000E+00 0. -1.
         21    1    1    2  505  502 -0.11490518008E+03  0.67378497818E+02 -0.47854345718E+02  0.14153833679E+03  0.00000000000E+00 0. -1.
          2    1    1    2  501    0  0.81288135832E+02 -0.19170113007E+03 -0.40969688512E+04  0.41022567999E+04  0.00000000000E+00 0. -1.
<scales pt_clust_3="36.04299" pt_clust_4="192.02705" pt_clust_5="133.94911" pt_clust_6="14000.00000"></scales>
<clustering>
<clus scale="   36.043">  2  3  1 -1</clus>
<clus scale="  133.949">  1  5  2 -1</clus>
<clus scale="  192.027">  1  4  2 -1</clus>
<clus scale="  133.949">  1  3  2 -1</clus>
</clustering>
</event>
<event>
 6    0  0.1631680E+002  0.1523036E+03  0.7546771E-02  0.1197671E+00
         21   -1    0    0  503  502  0.00000000000E+00  0.00000000000E+00  0.14727250901E+03  0.14727250901E+03  0.00000000000E+00 0. -1.
          2   -1    0    0  505    0 -0.00000000000E+00 -0.00000000000E+00 -0.32415684357E+04  0.32415684357E+04  0.00000000000E+00 0. -1.
         21    1    1    2  503  501  0.12108029891E+03 -0.89070959480E+02  0.63502813523E+02  0.16317684251E+03  0.00000000000E+00 0. -1.
         21    1    1    2  504  502 -0.58450252658E+02  0.18841187475E+03 -0.28441765825E+03  0.34613418049E+03  0.00000000000E+00 0. -1.
         21    1    1    2  505  504 -0.35066822128E+02 -0.76835259148E+01 -0.14183514171E+03  0.14630764166E+03  0.00000000000E+00 0.  1.
          2    1    1    2  501    0 -0.27563224128E+02 -0.91657389354E+02 -0.27315459402E+04  0.27332222800E+04  0.00000000000E+00 0. -1.
<scales pt_clust_3="14000.00000" pt_clust_4="152.30364" pt_clust_5="35.89873" pt_clust_6="114.50479"></scales>
<clustering>
<clus scale="   35.899">  2  5  1 -1</clus>
<clus scale="  114.505">  2  6  1 -1</clus>
<clus scale="  152.304">  2  4  1 -1</clus>
<clus scale="  152.304">  1  3  2 -1</clus>
</clustering>
</event>
<event>
 6    0  0.1631680E+002  0.1083712E+03  0.7546771E-02  0.1263616E+00
         21   -1    0    0  505  502  0.00000000000E+00  0.00000000000E+00  0.19018675266E+03  0.19018675266E+03  0.00000000000E+00 0. -1.
          1   -1    0    0  503    0 -0.00000000000E+00 -0.00000000000E+00 -0.13771047725E+04  0.13771047725E+04  0.00000000000E+00 0.  1.
         21    1    1    2  503  502  0.72171063310E+02  0.21270170384E+02  0.32006415775E+02  0.81764865182E+02  0.00000000000E+00 0. -1.
         21    1    1    2  504  501 -0.14927729820E+03 -0.73280973045E+02 -0.20448046490E+03  0.26356417301E+03  0.00000000000E+00 0. -1.
         21    1    1    2  505  504 -0.26710822388E+02  0.41582314034E+02  0.95284779411E+02  0.10733939659E+03  0.00000000000E+00 0. -1.
          1    1    1    2  501    0  0.10381705727E+03  0.10428488626E+02 -0.11097287501E+04  0.11146230904E+04  0.00000000000E+00 0.  1.
<scales pt_clust_3="72.98093" pt_clust_4="14000.00000" pt_clust_5="49.42223" pt_clust_6="108.37125"></scales>
<clustering>
<clus scale="   49.422">  1  5  2 -1</clus>
<clus scale="   72.981">  1  3  2 -1</clus>
<clus scale="  108.371">  2  6  1 -1</clus>
<clus scale="   49.422">  1  3  2 -1</clus>
</clustering>
</event>
<event>
 6    0  0.1631680E+002  0.7403400E+02  0.7546771E-02  0.1346889E+00
          1   -1    0    0  503    0 -0.00000000000E+00  0.00000000000E+00  0.64114464368E+03  0.64114464368E+03  0.00000000000E+00 0. -1.
         21   -1    0    0  505  502  0.00000000000E+00 -0.00000000000E+00 -0.69931377814E+03  0.69931377814E+03  0.00000000000E+00 0. -1.
         21    1    1    2  503  504  0.18023887071E+02 -0.51842281434E+02  0.17020244376E+02  0.57464522690E+02  0.00000000000E+00 0.  1.
         21    1    1    2  504  502 -0.68233703823E+02  0.29563601587E+02 -0.66679785985E+03  0.67093161408E+03  0.00000000000E+00 0. -1.
         21    1    1    2  505  501  0.35194100657E+02 -0.51211340613E+02  0.12642804413E+03  0.14087326386E+03  0.00000000000E+00 0.  1.
          1    1    1    2  501    0  0.15015716096E+02  0.73490020460E+02  0.46518043688E+03  0.47118902119E+03  0.00000000000E+00 0. -1.
<scales pt_clust_3="54.88609" pt_clust_4="74.03400" pt_clust_5="14000.00000" pt_clust_6="44.14920"></scales>
<clustering>
<clus scale="   54.886">  1  3  2 -1</clus>
<clus scale="   44.149">  1  6  2 -1</clus>
<clus scale="   74.034">  2  4  1 -1</clus>
<clus scale="   74.034">  2  3  1 -1</clus>
</clustering>
</event>
<event>
 6    0  0.1631680E+002  0.5767575E+02  0.7546771E-02  0.1407853E+00
          2   -1    0    0  504    0 -0.00000000000E+00  0.00000000000E+00  0.60777710349E+03  0.60777710349E+03  0.00000000000E+00 0. -1.
         21   -1    0    0  503  502  0.00000000000E+00 -0.00000000000E+00 -0.21219366490E+03  0.21219366490E+03  0.00000000000E+00 0. -1.
         21    1    1    2  503  501  0.20164107658E+02 -0.30695499706E+02 -0.53216451217E+01  0.37109632802E+02  0.00000000000E+00 0. -1.
         21    1    1    2  504  505  0.62041085593E+02  0.59490935086E+01  0.32191907982E+03  0.32789690753E+03  0.00000000000E+00 0. -1.
         21    1    1    2  505  502 -0.45352213823E+02  0.78526346056E+02 -0.17265206395E+03  0.19501780818E+03  0.00000000000E+00 0. -1.
          2    1    1    2  501    0 -0.36852979428E+02 -0.53779939859E+02  0.25163806783E+03  0.25994641987E+03  0.00000000000E+00 0. -1.
<scales pt_clust_3="36.72608" pt_clust_4="14000.00000" pt_clust_5="55.42508" pt_clust_6="57.67575"></scales>
<clustering>
<clus scale="   36.726">  2  3  1 -1</clus>
<clus scale="   55.425">  2  5  1 -1</clus>
<clus scale="   57.676">  2  6  1 -1</clus>
<clus scale="   36.726">  2  3  1 -1</clus>
</clustering>
</event>
<event>
 6    0  0.1631680E+002  0.8945146E+02  0.7546771E-02  0.1304186E+00
         21   -1    0    0  504  502  0.00000000000E+00  0.00000000000E+00  0.24464553076E+02  0.24464553076E+02  0.00000000000E+00 0.  1.
          2   -1    0    0  505    0 -0.00000000000E+00 -0.00000000000E+00 -0.18867898239E+04  0.18867898239E+04  0.00000000000E+00 0. -1.
         21    1    1    2  503  502 -0.57100623248E+02  0.18912747309E+02 -0.49947689100E+02  0.78185323639E+02  0.00000000000E+00 0.  1.
         21    1    1    2  504  501  0.28448129759E+02  0.37667234023E+02 -0.12071038097E+03  0.12961139101E+03  0.00000000000E+00 0.  1.
         21    1    1    2  505  503 -0.37526370596E+02  0.57202261494E+02 -0.59349952940E+03  0.59742950932E+03  0.00000000000E+00 0. -1.
          2    1    1    2  501    0  0.66178864085E+02 -0.11378224283E+03 -0.10981676714E+04  0.11060281530E+04  0.00000000000E+00 0. -1.
<scales pt_clust_3="58.65363" pt_clust_4="47.20293" pt_clust_5="89.45146" pt_clust_6="14000.00000"></scales>
<clustering>
<clus scale="   47.203">  1  4  2 -1</clus>
<clus scale="   58.654">  1  3  2 -1</clus>
<clus scale="   89.451">  2  5  1 -1</clus>
<clus scale="   47.203">  1  3  2 -1</clus>
</clustering>
</event>
<event>
 6    0  0.1631680E+002  0.1197570E+03  0.7546771E-02  0.1243498E+00
         21   -1    0    0  501  502  0.00000000000E+00  0.00000000000E+00  0.20287745496E+03  0.20287745496E+03  0.00000000000E+00 0.  1.
          1   -1    0    0  504    0 -0.00000000000E+00 -0.00000000000E+00 -0.23280558832E+04  0.23280558832E+04  0.00000000000E+00 0.  1.
         21    1    1    2  503  502  0.11870400573E+03 -0.21390103343E+02  0.17330489130E+03  0.21114630673E+03  0.00000000000E+00 0.  1.
         21    1    1    2  504  505 -0.38637777306E+02 -0.27134509608E+02 -0.66432590052E+03  0.66600154770E+03  0.00000000000E+00 0.  1.
         21    1    1    2  505  503 -0.45353190370E+02 -0.38629474875E+02 -0.97452522560E+02  0.11421971091E+03  0.00000000000E+00 0.  1.
          1    1    1    2  501    0 -0.34713038054E+02  0.87154087826E+02 -0.15367048965E+04  0.15395657728E+04  0.00000000000E+00 0.  1.
<scales pt_clust_3="119.75701" pt_clust_4="47.21398" pt_clust_5="62.56727" pt_clust_6="14000.00000"></scales>
<clustering>
<clus scale="   47.214">  2  4  1 -1</clus>
<clus scale="   62.567">  2  5  1 -1</clus>
<clus scale="  119.757">  1  3  2 -1</clus>
<clus scale="  119.757">  1  3  2 -1</clus>
</clustering>
</event>
<event>
 6    0  0.1631680E+002  0.9926325E+02  0.7546771E-02  0.1281853E+00
         21   -1    0    0  504  502  0.00000000000E+00  0.00000000000E+00  0.24725437550E+03  0.24725437550E+03  0.00000000000E+00 0. -1.
         -4   -1    0    0    0  501 -0.00000000000E+00 -0.00000000000E+00 -0.11813774124E+04  0.11813774124E+04  0.00000000000E+00 0. -1.
         21    1    1    2  503  502  0.34407994672E+02 -0.46366359493E+01  0.64818027356E+02  0.73530844960E+02  0.00000000000E+00 0. -1.
         21    1    1    2  504  501  0.16539167086E+01 -0.10363431957E+03 -0.94789047508E+03  0.95354032971E+03  0.00000000000E+00 0. -1.
         21    1    1    2  505  503  0.27593055632E+02  0.31303096541E+02  0.16145111647E+03  0.16675647987E+03  0.00000000000E+00 0. -1.
         -4    1    1    2    0  505 -0.63654967013E+02  0.76967858980E+02 -0.21250170566E+03  0.23480413337E+03  0.00000000000E+00 0. -1.
<scales pt_clust_3="34.71899" pt_clust_4="99.26325" pt_clust_5="65.17058" pt_clust_6="14000.00000"></scales>
<clustering>
<clus scale="   34.719">  1  3  2 -1</clus>
<clus scale="   65.171">  1  5  2 -1</clus>
<clus scale="   99.263">  2  4  1 -1</clus>
<clus scale="   34.719">  1  3  2 -1</clus>
</clustering>
</event>
<event>
 6    0  0.1631680E+002  0.6013384E+02  0.7546771E-02  0.1397271E+00
          1   -1    0    0  503    0 -0.00000000000E+00  0.00000000000E+00  0.10152382230E+04  0.10152382230E+04  0.00000000000E+00 0.  1.
         21   -1    0    0  505  502  0.00000000000E+00 -0.00000000000E+00 -0.10405513619E+03  0.10405513619E+03  0.00000000000E+00 0. -1.
         21    1    1    2  503  504  0.38903090228E+02 -0.78857757947E+02  0.76950533181E+03  0.77451304192E+03  0.00000000000E+00 0.  1.
         21    1    1    2  504  502  0.53718675013E+02  0.22999385498E+02 -0.67573859683E+02  0.89335851095E+02  0.00000000000E+00 0. -1.
         21    1    1    2  505  501 -0.81218252125E+02  0.28805455743E+01  0.74679459386E+02  0.11037084613E+03  0.00000000000E+00 0.  1.
          1    1    1    2  501    0 -0.11403513116E+02  0.52977826875E+02  0.13457215530E+03  0.14507362005E+03  0.00000000000E+00 0.  1.
<scales pt_clust_3="43.18523" pt_clust_4="14000.00000" pt_clust_5="60.13384" pt_clust_6="54.19124"></scales>
<clustering>
<clus scale="   54.191">  1  6  2 -1</clus>
<clus scale="   43.185">  1  3  2 -1</clus>
<clus scale="   60.134">  1  5  2 -1</clus>
<clus scale="   60.134">  2  3  1 -1</clus>
</clustering>
</event>
<event>
 6    0  0.1631680E+002  0.1172763E+03  0.7546771E-02  0.1247659E+00
          4   -1    0    0  505    0 -0.00000000000E+00  0.00000000000E+00  0.21576891640E+04  0.21576891640E+04  0.00000000000E+00 0.  1.
         21   -1    0    0  501  502  0.00000000000E+00 -0.00000000000E+00 -0.90641609489E+02  0.90641609489E+02  0.00000000000E+00 0. -1.
         21    1    1    2  503  504  0.24550114318E+02  0.43474884088E+02 -0.38518319986E+01  0.50076044864E+02  0.00000000000E+00 0. -1.
         21    1    1    2  504  502 -0.79372260801E+01  0.62097006351E+02 -0.41035910152E+02  0.74853080615E+02  0.00000000000E+00 0. -1.
         21    1    1    2  505  503  0.11246124113E+02  0.36987019278E+02  0.11776237500E+03  0.12394551976E+03  0.00000000000E+00 0. -1.
          4    1    1    2  501    0 -0.27859012351E+02 -0.14255890972E+03  0.19941729217E+04  0.19994561283E+04  0.00000000000E+00 0.  1.
<scales pt_clust_3="41.69112" pt_clust_4="41.69112" pt_clust_5="38.65896" pt_clust_6="107.62331"></scales>
<clustering>
<clus scale="   38.659">  1  5  2 -1</clus>
<clus scale="   41.691">  3  4 -1 -1</clus>
<clus scale="  107.623">  1  6  2 -1</clus>
<clus scale="  117.276">  2  3  1 -1</clus>
</clustering>
</event>
<event>
 6    0  0.1631680E+002  0.9804794E+02  0.7546771E-02  0.1284455E+00
         21   -1    0    0  505  502  0.00000000000E+00  0.00000000000E+00  0.22825239651E+03  0.22825239651E+03  0.00000000000E+00 0.  1.
          1   -1    0    0  503    0 -0.00000000000E+00 -0.00000000000E+00 -0.80594623283E+03  0.80594623283E+03  0.00000000000E+00 0. -1.
         21    1    1    2  503  504  0.54875425669E+02  0.19214705513E+02 -0.84635484240E+02  0.10268243493E+03  0.00000000000E+00 0.  1.
         21    1    1    2  504  502  0.64816669720E+02  0.75086845767E+02  0.12870491845E+03  0.16249366484E+03  0.00000000000E+00 0.  1.
         21    1    1    2  505  501  0.19685679329E+02 -0.28261567686E+02  0.60460399047E+02  0.69582339941E+02  0.00000000000E+00 0.  1.
          1    1    1    2  501    0 -0.13937777472E+03 -0.66039983593E+02 -0.68222366959E+03  0.69944018962E+03  0.00000000000E+00 0. -1.
<scales pt_clust_3="58.68167" pt_clust_4="98.04794" pt_clust_5="34.44187" pt_clust_6="14000.00000"></scales>
<clustering>
<clus scale="   34.442">  1  5  2 -1</clus>
<clus scale="   58.682">  2  3  1 -1</clus>
<clus scale="   98.048">  1  4  2 -1</clus>
<clus scale="   34.442">  1  3  2 -1</clus>
</clustering>
</event>
<event>
 6    0  0.1631680E+002  0.1081494E+03  0.7546771E-02  0.1264036E+00
         21   -1    0    0  503  502  0.00000000000E+00  0.00000000000E+00  0.14515508866E+03  0.14515508866E+03  0.00000000000E+00 0.  1.
          2   -1    0    0  505    0 -0.00000000000E+00 -0.00000000000E+00 -0.19774129807E+04  0.19774129807E+04  0.00000000000E+00 0. -1.
         21    1    1    2  503  501 -0.29249131039E+01  0.91847093356E+02 -0.58404581059E+02  0.10888314270E+03  0.00000000000E+00 0. -1.
         21    1    1    2  504  502 -0.37831672928E+02 -0.18661482288E+03  0.37979429161E+02  0.19416169713E+03  0.00000000000E+00 0.  1.
         21    1    1    2  505  504 -0.65309723758E+01 -0.31539028279E+02 -0.33445199746E+03  0.33599925969E+03  0.00000000000E+00 0.  1.
          2    1    1    2  501    0  0.47287558408E+02  0.12630675780E+03 -0.14773807427E+04  0.14835239698E+04  0.00000000000E+00 0. -1.
<scales pt_clust_3="90.29945" pt_clust_4="108.14938" pt_clust_5="32.20813" pt_clust_6="14000.00000"></scales>
<clustering>
<clus scale="   32.208">  2  5  1 -1</clus>
<clus scale="   90.299">  1  3  2 -1</clus>
<clus scale="  108.149">  1  4  2 -1</clus>
<clus scale="   90.299">  1  3  2 -1</clus>
</clustering>
</event>
<event>
 6    0  0.1631680E+002  0.1032953E+03  0.7546771E-02  0.1273515E+00
         21   -1    0    0  505  502  0.00000000000E+00  0.00000000000E+00  0.23036873655E+03  0.23036873655E+03  0.00000000000E+00 0. -1.
          2   -1    0    0  503    0 -0.00000000000E+00 -0.00000000000E+00 -0.23426000623E+03  0.23426000623E+03  0.00000000000E+00 0. -1.
         21    1    1    2  503  504 -0.19791747612E+02 -0.49058160102E+02 -0.51066881948E+02  0.73527156738E+02  0.00000000000E+00 0. -1.
         21    1    1    2  504  502  0.55219461414E+02 -0.77378255524E+02  0.15417334544E+03  0.18112427719E+03  0.00000000000E+00 0. -1.
         21    1    1    2  505  501  0.36991396426E+02  0.29419926112E+02  0.16725649369E+01  0.47293688115E+02  0.00000000000E+00 0. -1.
          2    1    1    2  501    0 -0.72419110228E+02  0.97016489513E+02 -0.10867029811E+03  0.16268362073E+03  0.00000000000E+00 0. -1.
<scales pt_clust_3="50.67292" pt_clust_4="14000.00000" pt_clust_5="47.26410" pt_clust_6="103.29526"></scales>
<clustering>
<clus scale="   47.264">  1  5  2 -1</clus>
<clus scale="   50.673">  2  3  1 -1</clus>
<clus scale="  103.295">  2  6  1 -1</clus>
<clus scale="   47.264">  1  3  2 -1</clus>
</clustering>
</event>
<event>
 6    0  0.1631680E+002  0.7631761E+02  0.7546771E-02  0.1339839E+00
         21   -1    0    0  501  502  0.00000000000E+00  0.00000000000E+00  0.84797647770E+03  0.84797647770E+03  0.00000000000E+00 0.  1.
          1   -1    0    0  503    0 -0.00000000000E+00 -0.00000000000E+00 -0.15372365270E+03  0.15372365270E+03  0.00000000000E+00 0.  1.
         21    1    1    2  503  505 -0.33217055385E+02 -0.51945098089E+02 -0.10317453562E+03  0.12019422109E+03  0.00000000000E+00 0. -1.
         21    1    1    2  504  502 -0.28318129025E+02  0.12649346438E+02  0.16276775427E+03  0.16569630118E+03  0.00000000000E+00 0. -1.
         21    1    1    2  505  504  0.68617471955E+01 -0.79380690630E+02  0.55934891520E+03  0.56499520932E+03  0.00000000000E+00 0.  1.
          1    1    1    2  501    0  0.54673437215E+02  0.11867644228E+03  0.75310691151E+02  0.15081439882E+03  0.00000000000E+00 0.  1.
<scales pt_clust_3="61.71607" pt_clust_4="31.01487" pt_clust_5="14000.00000" pt_clust_6="76.31761"></scales>
<clustering>
<clus scale="   31.015">  1  4  2 -1</clus>
<clus scale="   61.716">  2  3  1 -1</clus>
<clus scale="   76.318">  2  6  1 -1</clus>
<clus scale="   31.015">  1  3  2 -1</clus>
</clustering>
</event>
<event>
 6    0  0.1631680E+002  0.1672687E+03  0.7546771E-02  0.1180726E+00
         21   -1    0    0  501  502  0.00000000000E+00  0.00000000000E+00  0.11293884492E+03  0.11293884492E+03  0.00000000000E+00 0.  1.
          2   -1    0    0  505    0 -0.00000000000E+00 -0.00000000000E+00 -0.18804184138E+04  0.18804184138E+04  0.00000000000E+00 0.  1.
         21    1    1    2  503  502  0.75807513704E+02 -0.11873645206E+03 -0.52265940237E+02  0.15025595726E+03  0.00000000000E+00 0.  1.
         21    1    1    2  504  503 -0.15936635735E+03  0.15503189104E+03 -0.13644088539E+03  0.26086133922E+03  0.00000000000E+00 0.  1.
         21    1    1    2  505  504  0.33993148346E+02  0.29727700586E+01 -0.30587506814E+03  0.30777252770E+03  0.00000000000E+00 0.  1.
          2    1    1    2  501    0  0.49565695305E+02 -0.39268209032E+02 -0.12728976751E+04  0.12744674346E+04  0.00000000000E+00 0.  1.
<scales pt_clust_3="14000.00000" pt_clust_4="167.26868" pt_clust_5="34.12289" pt_clust_6="85.44090"></scales>
<clustering>
<clus scale="   34.123">  2  5  1 -1</clus>
<clus scale="   85.441">  2  6  1 -1</clus>
<clus scale="  167.269">  2  4  1 -1</clus>
<clus scale="  167.269">  1  3  2 -1</clus>
</clustering>
</event>
<event>
 6    0  0.1631680E+002  0.7735766E+02  0.7546771E-02  0.1336722E+00
         21   -1    0    0  504  502  0.00000000000E+00  0.00000000000E+00  0.86623154556E+03  0.86623154556E+03  0.00000000000E+00 0.  1.
          1   -1    0    0  503    0 -0.00000000000E+00 -0.00000000000E+00 -0.27696435086E+03  0.27696435086E+03  0.00000000000E+00 0.  1.
         21    1    1    2  503  502  0.72875420980E+02  0.74090456514E+01  0.41794167964E+03  0.42431234783E+03  0.00000000000E+00 0.  1.
         21    1    1    2  504  505 -0.12909295935E+02  0.50695860072E+02  0.39728516093E+03  0.40071463567E+03  0.00000000000E+00 0.  1.
         21    1    1    2  505  501 -0.11305662401E+02 -0.77442451632E+02  0.77678425153E+01  0.78647890591E+02  0.00000000000E+00 0.  1.
          1    1    1    2  501    0 -0.48660462644E+02  0.19337545909E+02 -0.23372748839E+03  0.23952102232E+03  0.00000000000E+00 0.  1.
<scales pt_clust_3="14000.00000" pt_clust_4="52.31367" pt_clust_5="77.35766" pt_clust_6="52.55313"></scales>
<clustering>
<clus scale="   52.314">  1  4  2 -1</clus>
<clus scale="   52.553">  2  6  1 -1</clus>
<clus scale="   77.358">  2  5  1 -1</clus>
<clus scale="   52.314">  1  3  2 -1</clus>
</clustering>
</event>
<event>
 6    0  0.1631680E+002  0.1868816E+03  0.7546771E-02  0.1161304E+00
          2   -1    0    0  504    0 -0.00000000000E+00  0.00000000000E+00  0.29685505872E+04  0.29685505872E+04  0.00000000000E+00 0. -1.
         21   -1    0    0  503  502  0.00000000000E+00 -0.00000000000E+00 -0.48354619858E+03  0.48354619858E+03  0.00000000000E+00 0.  1.
         21    1    1    2  503  501 -0.17030517191E+02 -0.59776045686E+02 -0.15202264131E+03  0.16423792992E+03  0.00000000000E+00 0. -1.
         21    1    1    2  504  505  0.48921133908E+02 -0.52867702727E+01  0.21446673790E+04  0.21452317809E+04  0.00000000000E+00 0. -1.
         21    1    1    2  505  502 -0.16740978790E+03  0.10160143783E+03 -0.28881361582E+03  0.34894439949E+03  0.00000000000E+00 0.  1.
          2    1    1    2  501    0  0.13551917119E+03 -0.36538621876E+02  0.78117326674E+03  0.79368267545E+03  0.00000000000E+00 0. -1.
<scales pt_clust_3="62.09410" pt_clust_4="49.20597" pt_clust_5="14000.00000" pt_clust_6="186.88161"></scales>
<clustering>
<clus scale="   49.206">  1  4  2 -1</clus>
<clus scale="   62.094">  2  3  1 -1</clus>
<clus scale="  186.882">  1  6  2 -1</clus>
<clus scale="   62.094">  2  3  1 -1</clus>
</clustering>
</event>
<event>
 6    0  0.1631680E+002  0.8729169E+02  0.7546771E-02  0.1309546E+00
          2   -1    0    0  504    0 -0.00000000000E+00  0.00000000000E+00  0.19237052141E+04  0.19237052141E+04  0.00000000000E+00 0.  1.
         21   -1    0    0  503  502  0.00000000000E+00 -0.00000000000E+00 -0.40632802546E+02  0.40632802546E+02  0.00000000000E+00 0. -1.
         21    1    1    2  503  505 -0.27085270559E+02  0.13003141927E+02 -0.20331062744E+02  0.36277344080E+02  0.00000000000E+00 0. -1.
         21    1    1    2  504  502  0.12029166891E+03 -0.13200993889E+02  0.58534496876E+03  0.59772325059E+03  0.00000000000E+00 0. -1.
         21    1    1    2  505  501 -0.18721343838E+02  0.36666225911E+02  0.84512950340E+02  0.94007125330E+02  0.00000000000E+00 0. -1.
          2    1    1    2  501    0 -0.74485054509E+02 -0.36468373949E+02  0.12335455552E+04  0.12363302966E+04  0.00000000000E+00 0.  1.
<scales pt_clust_3="30.04486" pt_clust_4="87.29169" pt_clust_5="50.85657" pt_clust_6="14000.00000"></scales>
<clustering>
<clus scale="   30.045">  2  3  1 -1</clus>
<clus scale="   50.857">  2  5  1 -1</clus>
<clus scale="   87.292">  2  4  1 -1</clus>
<clus scale="   30.045">  2  3  1 -1</clus>
</clustering>
</event>
<event>
 6    0  0.1631680E+002  0.8156405E+02  0.7546771E-02  0.1324671E+00
          1   -1    0    0  504    0 -0.00000000000E+00  0.00000000000E+00  0.23356941847E+04  0.23356941847E+04  0.00000000000E+00 0. -1.
         21   -1    0    0  503  502  0.00000000000E+00 -0.00000000000E+00 -0.43903795775E+03  0.43903795775E+03  0.00000000000E+00 0.  1.
         21    1    1    2  503  505 -0.31272171993E+02 -0.77654287970E+01 -0.40074252733E+03  0.40203584895E+03  0.00000000000E+00 0.  1.
         21    1    1    2  504  502  0.66455473978E+02  0.10431436210E+03  0.33942207532E+03  0.36125498111E+03  0.00000000000E+00 0.  1.
         21    1    1    2  505  501 -0.29658772239E+02 -0.17271665603E+02 -0.14576158349E+02  0.37288303738E+02  0.00000000000E+00 0.  1.
          1    1    1    2  501    0 -0.55245297452E+01 -0.79277267701E+02  0.19725528373E+04  0.19741530087E+04  0.00000000000E+00 0. -1.
<scales pt_clust_3="32.22190" pt_clust_4="81.56405" pt_clust_5="55.97326" pt_clust_6="14000.00000"></scales>
<clustering>
<clus scale="   32.222">  2  3  1 -1</clus>
<clus scale="   55.973">  2  5  1 -1</clus>
<clus scale="   81.564">  2  4  1 -1</clus>
<clus scale="   32.222">  2  3  1 -1</clus>
</clustering>
</event>
<event>
 6    0  0.1631680E+002  0.1440906E+03  0.7546771E-02  0.1207928E+00
          1   -1    0    0  505    0 -0.00000000000E+00  0.00000000000E+00  0.13855009893E+04  0.13855009893E+04  0.00000000000E+00 0. -1.
         21   -1    0    0  501  502  0.00000000000E+00 -0.00000000000E+00 -0.36619778389E+02  0.36619778389E+02  0.00000000000E+00 0. -1.
         21    1    1    2  503  502  0.33618903456E+02 -0.20478333361E+02  0.22650701281E+02  0.45416374529E+02  0.00000000000E+00 0. -1.
         21    1    1    2  504  503 -0.50514344165E+02  0.12761372400E+02  0.94300954948E+02  0.10773681681E+03  0.00000000000E+00 0. -1.
         21    1    1    2  505  504 -0.12514932048E+03  0.62811113176E+02  0.76801842178E+03  0.78067911753E+03  0.00000000000E+00 0. -1.
          1    1    1    2  501    0  0.14204476119E+03 -0.55094152216E+02  0.46391113294E+03  0.48828845886E+03  0.00000000000E+00 0. -1.
<scales pt_clust_3="39.36487" pt_clust_4="42.20311" pt_clust_5="14000.00000" pt_clust_6="144.09056"></scales>
<clustering>
<clus scale="   39.365">  2  3  1 -1</clus>
<clus scale="   42.203">  2  4  1 -1</clus>
<clus scale="  144.091">  2  6  1 -1</clus>
<clus scale="   39.365">  2  3  1 -1</clus>
</clustering>
</event>
<event>
 6    0  0.1631680E+002  0.8599074E+02  0.7546771E-02  0.1312862E+00
         21   -1    0    0  504  502  0.00000000000E+00  0.00000000000E+00  0.69872909614E+02  0.69872909614E+02  0.00000000000E+00 0.  1.
          3   -1    0    0  505    0 -0.00000000000E+00 -0.00000000000E+00 -0.96219212040E+03  0.96219212040E+03  0.00000000000E+00 0. -1.
         21    1    1    2  503  502 -0.42584916419E+02 -0.66313669212E+02 -0.10993317949E+03  0.13526374896E+03  0.00000000000E+00 0.  1.
         21    1    1    2  504  501  0.53134878309E+02  0.12571817385E+03 -0.57417692257E+02  0.14807148920E+03  0.00000000000E+00 0.  1.
         21    1    1    2  505  503 -0.79284681850E+02  0.90363179580E+01 -0.20884604186E+03  0.22357187886E+03  0.00000000000E+00 0.  1.
          3    1    1    2  501    0  0.68734719960E+02 -0.68440822599E+02 -0.51612229719E+03  0.52515791299E+03  0.00000000000E+00 0. -1.
<scales pt_clust_3="78.80976" pt_clust_4="75.70271" pt_clust_5="85.99074" pt_clust_6="14000.00000"></scales>
<clustering>
<clus scale="   78.810">  1  3  2 -1</clus>
<clus scale="   75.703">  1  4  2 -1</clus>
<clus scale="   85.991">  1  5  2 -1</clus>
<clus scale="   78.810">  1  3  2 -1</clus>
</clustering>
</event>
<event>
 6    0  0.1631680E+002  0.1342977E+03  0.7546771E-02  0.1221215E+00
          1   -1    0    0  504    0 -0.00000000000E+00  0.00000000000E+00  0.27565796386E+04  0.27565796386E+04  0.00000000000E+00 0.  1.
         21   -1    0    0  505  502  0.00000000000E+00 -0.00000000000E+00 -0.30543419834E+02  0.30543419834E+02  0.00000000000E+00 0.  1.
         21    1    1    2  503  501  0.30782971175E+02 -0.36846225454E+02  0.80312838220E+03  0.80456226231E+03  0.00000000000E+00 0.  1.
         21    1    1    2  504  502 -0.11090453913E+02  0.89144302969E+02  0.54697016377E+02  0.10517351625E+03  0.00000000000E+00 0.  1.
         21    1    1    2  505  503  0.30526188684E+01  0.32202729317E+02  0.70709386916E+02  0.77757003900E+02  0.00000000000E+00 0.  1.
          1    1    1    2  501    0 -0.22745136131E+02 -0.84500806832E+02  0.17975014333E+04  0.17996302760E+04  0.00000000000E+00 0.  1.
<scales pt_clust_3="45.42435" pt_clust_4="119.50830" pt_clust_5="32.34709" pt_clust_6="45.42435"></scales>
<clustering>
<clus scale="   32.347">  2  5  1 -1</clus>
<clus scale="   45.424">  3  6 -1 -1</clus>
<clus scale="  119.508">  2  4  1 -1</clus>
<clus scale="   32.347">  2  3  1 -1</clus>
</clustering>
</event>
<event>
 6    0  0.1631680E+002  0.1322594E+03  0.7546771E-02  0.1224141E+00
         21   -1    0    0  504  502  0.00000000000E+00  0.00000000000E+00  0.45723936205E+02  0.45723936205E+02  0.00000000000E+00 0. -1.
          1   -1    0    0  503    0 -0.00000000000E+00 -0.00000000000E+00 -0.19645499439E+04  0.19645499439E+04  0.00000000000E+00 0.  1.
         21    1    1    2  503  502  0.18423452117E+02 -0.15387557934E+03 -0.23072023392E+03  0.27793694221E+03  0.00000000000E+00 0. -1.
         21    1    1    2  504  505 -0.35207034546E+01  0.33567915839E+02  0.51600824703E+01  0.34144205624E+02  0.00000000000E+00 0. -1.
         21    1    1    2  505  501  0.13313455964E+02  0.49860524213E+02 -0.55226936967E+03  0.55467537954E+03  0.00000000000E+00 0.  1.
          1    1    1    2  501    0 -0.28216204626E+02  0.70447139288E+02 -0.11409964865E+04  0.11435173527E+04  0.00000000000E+00 0.  1.
<scales pt_clust_3="124.41574" pt_clust_4="33.75204" pt_clust_5="37.13804" pt_clust_6="37.13804"></scales>
<clustering>
<clus scale="   33.752">  1  4  2 -1</clus>
<clus scale="   37.138">  5  6 -1 -1</clus>
<clus scale="  124.416">  1  3  2 -1</clus>
<clus scale="   33.752">  1  3  2 -1</clus>
</clustering>
</event>
<event>
 6    0  0.1631680E+002  0.2460787E+03  0.7546771E-02  0.1115808E+00
         21   -1    0    0  503  502  0.00000000000E+00  0.00000000000E+00  0.46865314700E+03  0.46865314700E+03  0.00000000000E+00 0.  1.
          1   -1    0    0  505    0 -0.00000000000E+00 -0.00000000000E+00 -0.19412837319E+04  0.19412837319E+04  0.00000000000E+00 0. -1.
         21    1    1    2  503  501 -0.19527607969E+02 -0.85977628737E+02  0.42958168893E+03  0.43853609610E+03  0.00000000000E+00 0.  1.
         21    1    1    2  504  502 -0.75813319445E+02  0.86123908553E+01 -0.25307186929E+03  0.26432405057E+03  0.00000000000E+00 0.  1.
         21    1    1    2  505  504 -0.14782716670E+03  0.83151856140E+02 -0.39997819611E+03  0.43445328835E+03  0.00000000000E+00 0.  1.
          1    1    1    2  501    0  0.24316809412E+03 -0.57866182581E+01 -0.12491622085E+04  0.12726234439E+04  0.00000000000E+00 0. -1.
<scales pt_clust_3="88.16734" pt_clust_4="38.99204" pt_clust_5="38.99204" pt_clust_6="239.11313"></scales>
<clustering>
<clus scale="   38.992">  4  5 -1 -1</clus>
<clus scale="   88.167">  1  3  2 -1</clus>
<clus scale="  239.113">  2  6  1 -1</clus>
<clus scale="   88.167">  1  3  2 -1</clus>
</clustering>
</event>
<event>
 6    0  0.1631680E+002  0.1361975E+03  0.7546771E-02  0.1218539E+00
         21   -1    0    0  504  502  0.00000000000E+00  0.00000000000E+00  0.13673100245E+03  0.13673100245E+03  0.00000000000E+00 0. -1.
          1   -1    0    0  503    0 -0.00000000000E+00 -0.00000000000E+00 -0.78665247015E+03  0.78665247015E+03  0.00000000000E+00 0.  1.
         21    1    1    2  503  502 -0.79915525887E+02 -0.91494997328E+02  0.67296452300E+02  0.13887634178E+03  0.00000000000E+00 0. -1.
         21    1    1    2  504  505  0.12335134183E+02  0.95794232633E+02 -0.13013002563E+03  0.16205713224E+03  0.00000000000E+00 0. -1.
         21    1    1    2  505  501 -0.28848380401E+02  0.72058712301E+02 -0.15730271579E+03  0.17541046566E+03  0.00000000000E+00 0. -1.
          1    1    1    2  501    0  0.96428772106E+02 -0.76357947605E+02 -0.42978517859E+03  0.44703953292E+03  0.00000000000E+00 0.  1.
<scales pt_clust_3="121.48179" pt_clust_4="47.60083" pt_clust_5="47.60083" pt_clust_6="125.42033"></scales>
<clustering>
<clus scale="   47.601">  4  5 -1 -1</clus>
<clus scale="  121.482">  1  3  2 -1</clus>
<clus scale="  125.420">  2  6  1 -1</clus>
<clus scale="  121.482">  1  3  2 -1</clus>
</clustering>
</event>
<event>
 6    0  0.1631680E+002  0.1490647E+03  0.7546771E-02  0.1201627E+00
          1   -1    0    0  502    0 -0.00000000000E+00  0.00000000000E+00  0.10522549888E+04  0.10522549888E+04  0.00000000000E+00 0. -1.
         21   -1    0    0  504  502  0.00000000000E+00 -0.00000000000E+00 -0.10425567403E+03  0.10425567403E+03  0.00000000000E+00 0. -1.
         21    1    1    2  503  501 -0.53990727534E+02 -0.55973658930E+02  0.17258386213E+03  0.18929669470E+03  0.00000000000E+00 0. -1.
         21    1    1    2  504  505  0.13377223148E+03  0.47384290348E+02 -0.12791093018E+02  0.14249172940E+03  0.00000000000E+00 0. -1.
         21    1    1    2  505  503 -0.25120304174E+02 -0.10445960341E+03  0.25085603614E+03  0.27289483193E+03  0.00000000000E+00 0. -1.
          1    1    1    2  501    0 -0.54661199768E+02  0.11304897200E+03  0.53735050950E+03  0.55182740679E+03  0.00000000000E+00 0. -1.
<scales pt_clust_3="40.99985" pt_clust_4="141.06030" pt_clust_5="40.99985" pt_clust_6="125.57037"></scales>
<clustering>
<clus scale="   41.000">  3  5 -1 -1</clus>
<clus scale="  125.570">  1  6  2 -1</clus>
<clus scale="  141.060">  2  4  1 -1</clus>
<clus scale="  141.060">  2  3  1 -1</clus>
</clustering>
</event>
<event>
 6    0  0.1631680E+002  0.1216527E+03  0.7546771E-02  0.1240395E+00
         21   -1    0    0  503  502  0.00000000000E+00  0.00000000000E+00  0.18742051373E+03  0.18742051373E+03  0.00000000000E+00 0.  1.
         -1   -1    0    0    0  501 -0.00000000000E+00 -0.00000000000E+00 -0.19775629827E+03  0.19775629827E+03  0.00000000000E+00 0.  1.
         21    1    1    2  503  504  0.10367339203E+01 -0.33956378525E+02  0.22061933505E+02  0.40507275516E+02  0.00000000000E+00 0. -1.
         21    1    1    2  504  505  0.11809332959E+03 -0.63902492635E+02 -0.62790142861E+02  0.14823010862E+03  0.00000000000E+00 0.  1.
         21    1    1    2  505  501 -0.26178272568E+01  0.57098701146E+02 -0.23436276555E+02  0.61776805930E+02  0.00000000000E+00 0. -1.
         -1    1    1    2    0  502 -0.11651223626E+03  0.40760170014E+02  0.53828701362E+02  0.13466262194E+03  0.00000000000E+00 0.  1.
<scales pt_clust_3="33.97220" pt_clust_4="121.65274" pt_clust_5="52.98812" pt_clust_6="14000.00000"></scales>
<clustering>
<clus scale="   33.972">  1  3  2 -1</clus>
<clus scale="   52.988">  2  5  1 -1</clus>
<clus scale="  121.653">  2  4  1 -1</clus>
<clus scale="   33.972">  1  3  2 -1</clus>
</clustering>
</event>
<event>
 6    0  0.1631680E+002  0.9056421E+02  0.7546771E-02  0.1301491E+00
         21   -1    0    0  501  502  0.00000000000E+00  0.00000000000E+00  0.24848282820E+03  0.24848282820E+03  0.00000000000E+00 0. -1.
          4   -1    0    0  503    0 -0.00000000000E+00 -0.00000000000E+00 -0.64143013195E+03  0.64143013195E+03  0.00000000000E+00 0. -1.
         21    1    1    2  503  505 -0.56599225830E+01  0.37909827269E+02 -0.42654372529E+02  0.57346187520E+02  0.00000000000E+00 0. -1.
         21    1    1    2  504  502  0.79169210306E+02  0.55541011561E+02  0.16745378806E+03  0.19337357358E+03  0.00000000000E+00 0. -1.
         21    1    1    2  505  504 -0.22049689919E+02 -0.88230643452E+02  0.24737689308E+02  0.94248546630E+02  0.00000000000E+00 0. -1.
          4    1    1    2  501    0 -0.51459597805E+02 -0.52201953781E+01 -0.54248440858E+03  0.54494465242E+03  0.00000000000E+00 0. -1.
<scales pt_clust_3="38.33001" pt_clust_4="14000.00000" pt_clust_5="90.56421" pt_clust_6="63.94285"></scales>
<clustering>
<clus scale="   38.330">  2  3  1 -1</clus>
<clus scale="   63.943">  2  6  1 -1</clus>
<clus scale="   90.564">  2  5  1 -1</clus>
<clus scale="   90.564">  1  3  2 -1</clus>
</clustering>
</event>
<event>
 6    0  0.1631680E+002  0.1064147E+03  0.7546771E-02  0.1267357E+00
          1   -1    0    0  504    0 -0.00000000000E+00  0.00000000000E+00  0.92652915321E+03  0.92652915321E+03  0.00000000000E+00 0.  1.
         21   -1    0    0  505  502  0.00000000000E+00 -0.00000000000E+00 -0.26310700581E+04  0.26310700581E+04  0.00000000000E+00 0. -1.
         21    1    1    2  503  502  0.86055874942E+02  0.29145161981E+02 -0.28421831510E+03  0.29838750765E+03  0.00000000000E+00 0. -1.
         21    1    1    2  504  503  0.14158945891E+02  0.33431912136E+02  0.29632113597E+03  0.29853707327E+03  0.00000000000E+00 0. -1.
         21    1    1    2  505  501 -0.10778503006E+03  0.30513530408E+02 -0.23338021207E+04  0.23364890385E+04  0.00000000000E+00 0. -1.
          1    1    1    2  501    0  0.75702092281E+01 -0.93090604525E+02  0.61715839495E+03  0.62418559193E+03  0.00000000000E+00 0.  1.
<scales pt_clust_3="106.41474" pt_clust_4="36.30659" pt_clust_5="14000.00000" pt_clust_6="63.84943"></scales>
<clustering>
<clus scale="   36.307">  1  4  2 -1</clus>
<clus scale="   63.849">  1  6  2 -1</clus>
<clus scale="  106.415">  1  3  2 -1</clus>
<clus scale="  106.415">  2  3  1 -1</clus>
</clustering>
</event>
<event>
 6    0  0.1631680E+002  0.8701925E+02  0.7546771E-02  0.1310235E+00
          3   -1    0    0  503    0 -0.00000000000E+00  0.00000000000E+00  0.12405025393E+03  0.12405025393E+03  0.00000000000E+00 0.  1.
         21   -1    0    0  504  502  0.00000000000E+00 -0.00000000000E+00 -0.26946142386E+04  0.26946142386E+04  0.00000000000E+00 0.  1.
         21    1    1    2  503  505 -0.25187758556E+02 -0.36219761662E+02 -0.41627210723E+02  0.60655741595E+02  0.00000000000E+00 0.  1.
         21    1    1    2  504  501  0.40721662912E+02 -0.54834929251E+02 -0.24146569040E+04  0.24156227121E+04  0.00000000000E+00 0.  1.
         21    1    1    2  505  502  0.14456225585E+02  0.12375994366E+03 -0.20585408345E+03  0.24062711773E+03  0.00000000000E+00 0.  1.
          3    1    1    2  501    0 -0.29990129941E+02 -0.32705252749E+02  0.91574213471E+02  0.10175892110E+03  0.00000000000E+00 0.  1.
<scales pt_clust_3="44.11683" pt_clust_4="68.36122" pt_clust_5="14000.00000" pt_clust_6="87.01925"></scales>
<clustering>
<clus scale="   44.117">  1  3  2 -1</clus>
<clus scale="   68.361">  2  4  1 -1</clus>
<clus scale="   87.019">  1  6  2 -1</clus>
<clus scale="   68.361">  2  3  1 -1</clus>
</clustering>
</event>
<event>
 6    0  0.1631680E+002  0.1168008E+03  0.7546771E-02  0.1248470E+00
          1   -1    0    0  504    0 -0.00000000000E+00  0.00000000000E+00  0.47462295643E+04  0.47462295643E+04  0.00000000000E+00 0. -1.
         21   -1    0    0  505  502  0.00000000000E+00 -0.00000000000E+00 -0.26589951839E+02  0.26589951839E+02  0.00000000000E+00 0. -1.
         21    1    1    2  503  502  0.48492972368E+02  0.17734396535E+02  0.13061370882E+03  0.14044934361E+03  0.00000000000E+00 0. -1.
         21    1    1    2  504  503  0.44871031705E+02 -0.59974674221E+01  0.37194361009E+03  0.37468844149E+03  0.00000000000E+00 0. -1.
         21    1    1    2  505  501  0.53133004268E+02 -0.77558400626E+02  0.99209752378E+02  0.13667844240E+03  0.00000000000E+00 0. -1.
          1    1    1    2  501    0 -0.14649700834E+03  0.65821471513E+02  0.41178725412E+04  0.41210032887E+04  0.00000000000E+00 0. -1.
<scales pt_clust_3="52.88035" pt_clust_4="45.27007" pt_clust_5="116.80082" pt_clust_6="14000.00000"></scales>
<clustering>
<clus scale="   45.270">  1  4  2 -1</clus>
<clus scale="   52.880">  2  3  1 -1</clus>
<clus scale="  116.801">  2  5  1 -1</clus>
<clus scale="   52.880">  2  3  1 -1</clus>
</clustering>
</event>
<event>
 6    0  0.1631680E+002  0.9867540E+02  0.7546771E-02  0.1283106E+00
         21   -1    0    0  505  502  0.00000000000E+00  0.00000000000E+00  0.11399392689E+03  0.11399392689E+03  0.00000000000E+00 0. -1.
          3   -1    0    0  504    0 -0.00000000000E+00 -0.00000000000E+00 -0.16537655454E+04  0.16537655454E+04  0.00000000000E+00 0.  1.
         21    1    1    2  503  502  0.31455328006E+02  0.36231877156E+02 -0.14304652828E+03  0.15087907686E+03  0.00000000000E+00 0.  1.
         21    1    1    2  504  503 -0.17559852500E+02  0.10023005393E+03 -0.19838760786E+03  0.22296200367E+03  0.00000000000E+00 0.  1.
         21    1    1    2  505  501  0.17607899025E+02 -0.41707885970E+02  0.90514005105E+02  0.10120459960E+03  0.00000000000E+00 0. -1.
          3    1    1    2  501    0 -0.31503374530E+02 -0.94754045112E+02 -0.12888514875E+04  0.12927137922E+04  0.00000000000E+00 0.  1.
<scales pt_clust_3="44.54556" pt_clust_4="14000.00000" pt_clust_5="45.27235" pt_clust_6="98.67540"></scales>
<clustering>
<clus scale="   45.272">  1  5  2 -1</clus>
<clus scale="   44.546">  1  3  2 -1</clus>
<clus scale="   98.675">  2  6  1 -1</clus>
<clus scale="   45.272">  1  3  2 -1</clus>
</clustering>
</event>
<event>
 6    0  0.1631680E+002  0.5116678E+02  0.7546771E-02  0.1439148E+00
         21   -1    0    0  503  502  0.00000000000E+00  0.00000000000E+00  0.10504516932E+04  0.10504516932E+04  0.00000000000E+00 0. -1.
          2   -1    0    0  502    0 -0.00000000000E+00 -0.00000000000E+00 -0.17955044579E+04  0.17955044579E+04  0.00000000000E+00 0. -1.
         21    1    1    2  503  505  0.12003958312E+02  0.48657743734E+02  0.61259494279E+03  0.61464154998E+03  0.00000000000E+00 0. -1.
         21    1    1    2  504  501 -0.34168735984E+02  0.69136994542E+02 -0.23627626024E+03  0.24854355289E+03  0.00000000000E+00 0. -1.
         21    1    1    2  505  504  0.32013438657E+02 -0.73886065775E+02  0.42660632720E+03  0.43413934328E+03  0.00000000000E+00 0. -1.
          2    1    1    2  501    0 -0.98486609857E+01 -0.43908672501E+02 -0.15479777744E+04  0.15486317050E+04  0.00000000000E+00 0. -1.
<scales pt_clust_3="49.93034" pt_clust_4="51.16678" pt_clust_5="14000.00000" pt_clust_6="44.99964"></scales>
<clustering>
<clus scale="   45.000">  2  6  1 -1</clus>
<clus scale="   49.930">  1  3  2 -1</clus>
<clus scale="   51.167">  2  4  1 -1</clus>
<clus scale="   49.930">  1  3  2 -1</clus>
</clustering>
</event>
<event>
 6    0  0.1631680E+002  0.1450035E+03  0.7546771E-02  0.1206751E+00
         21   -1    0    0  505  502  0.00000000000E+00  0.00000000000E+00  0.41533585083E+03  0.41533585083E+03  0.00000000000E+00 0.  1.
         -2   -1    0    0    0  501 -0.00000000000E+00 -0.00000000000E+00 -0.14295698842E+04  0.14295698842E+04  0.00000000000E+00 0.  1.
         21    1    1    2  503  502 -0.11459408304E+03  0.81478299806E+01  0.67231440958E+02  0.13310994574E+03  0.00000000000E+00 0.  1.
         21    1    1    2  504  503 -0.98708459164E+02  0.21281776483E+02 -0.20130528718E+03  0.22521121768E+03  0.00000000000E+00 0.  1.
         21    1    1    2  505  501  0.45523978452E+02 -0.28513576288E+02  0.29482611261E+03  0.29967965116E+03  0.00000000000E+00 0.  1.
         -2    1    1    2    0  504  0.16777856375E+03 -0.91603017554E+00 -0.11749862998E+04  0.11869049205E+04  0.00000000000E+00 0.  1.
<scales pt_clust_3="77.65056" pt_clust_4="14000.00000" pt_clust_5="53.71645" pt_clust_6="145.00348"></scales>
<clustering>
<clus scale="   53.716">  1  5  2 -1</clus>
<clus scale="   77.651">  1  3  2 -1</clus>
<clus scale="  145.003">  2  6  1 -1</clus>
<clus scale="   53.716">  1  3  2 -1</clus>
</clustering>
</event>
<event>
 6    0  0.1631680E+002  0.9848832E+02  0.7546771E-02  0.1283507E+00
          1   -1    0    0  503    0 -0.00000000000E+00  0.00000000000E+00  0.12991578603E+04  0.12991578603E+04  0.00000000000E+00 0.  1.
         21   -1    0    0  501  502  0.00000000000E+00 -0.00000000000E+00 -0.18862856950E+03  0.18862856950E+03  0.00000000000E+00 0.  1.
         21    1    1    2  503  504 -0.30612047780E+02 -0.16286462077E+02  0.17030944734E+03  0.17380349297E+03  0.00000000000E+00 0.  1.
         21    1    1    2  504  505 -0.51078023574E+02 -0.46179735829E+02 -0.60019525636E+02  0.91344818961E+02  0.00000000000E+00 0.  1.
         21    1    1    2  505  502 -0.27176594211E+02 -0.15356264819E+02 -0.10488981011E+03  0.10943607452E+03  0.00000000000E+00 0.  1.
          1    1    1    2  501    0  0.10886666556E+03  0.77822462725E+02  0.11051291792E+04  0.11132020434E+04  0.00000000000E+00 0.  1.
<scales pt_clust_3="35.34406" pt_clust_4="98.48832" pt_clust_5="31.21509" pt_clust_6="14000.00000"></scales>
<clustering>
<clus scale="   31.215">  2  5  1 -1</clus>
<clus scale="   35.344">  1  3  2 -1</clus>
<clus scale="   98.488">  2  4  1 -1</clus>
<clus scale="   31.215">  2  3  1 -1</clus>
</clustering>
</event>
<event>
 6    0  0.1631680E+002  0.9419075E+02  0.7546771E-02  0.1293009E+00
          1   -1    0    0  503    0 -0.00000000000E+00  0.00000000000E+00  0.26600832243E+04  0.26600832243E+04  0.00000000000E+00 0. -1.
         21   -1    0    0  501  502  0.00000000000E+00 -0.00000000000E+00 -0.15016974283E+02  0.15016974283E+02  0.00000000000E+00 0. -1.
         21    1    1    2  503  505  0.90566412595E+02 -0.46016726906E+02  0.87444857153E+03  0.88032955108E+03  0.00000000000E+00 0. -1.
         21    1    1    2  504  502 -0.32505156443E+02 -0.47151124189E+01  0.18054199878E+02  0.37480283000E+02  0.00000000000E+00 0. -1.
         21    1    1    2  505  504  0.28699220042E+02  0.24111869547E+02  0.44039436829E+03  0.44198668204E+03  0.00000000000E+00 0. -1.
          1    1    1    2  501    0 -0.86760476193E+02  0.26619969777E+02  0.13121691103E+04  0.13153036824E+04  0.00000000000E+00 0. -1.
<scales pt_clust_3="94.19075" pt_clust_4="32.84536" pt_clust_5="33.39376" pt_clust_6="14000.00000"></scales>
<clustering>
<clus scale="   32.845">  2  4  1 -1</clus>
<clus scale="   33.394">  2  5  1 -1</clus>
<clus scale="   94.191">  2  3  1 -1</clus>
<clus scale="   32.845">  2  3  1 -1</clus>
</clustering>
</event>
<event>
 6    0  0.1631680E+002  0.8212135E+02  0.7546771E-02  0.1323137E+00
         21   -1    0    0  504  502  0.00000000000E+00  0.00000000000E+00  0.17983591897E+04  0.17983591897E+04  0.00000000000E+00 0.  1.
         -3   -1    0    0    0  501 -0.00000000000E+00 -0.00000000000E+00 -0.15267104947E+03  0.15267104947E+03  0.00000000000E+00 0. -1.
         21    1    1    2  503  505  0.39898813825E+02 -0.32816476701E+02  0.12278462844E+02  0.53099878884E+02  0.00000000000E+00 0. -1.
         21    1    1    2  504  503 -0.13094689686E+02  0.32786171432E+02  0.16391893476E+04  0.16395694927E+04  0.00000000000E+00 0.  1.
         21    1    1    2  505  501  0.54508583967E+01 -0.81671806999E+02 -0.10021131596E+03  0.12939205448E+03  0.00000000000E+00 0. -1.
         -3    1    1    2    0  502 -0.32254982536E+02  0.81702112268E+02  0.94431645722E+02  0.12896881313E+03  0.00000000000E+00 0. -1.
<scales pt_clust_3="45.43365" pt_clust_4="35.30445" pt_clust_5="82.12135" pt_clust_6="14000.00000"></scales>
<clustering>
<clus scale="   35.304">  1  4  2 -1</clus>
<clus scale="   45.434">  1  3  2 -1</clus>
<clus scale="   82.121">  2  5  1 -1</clus>
<clus scale="   35.304">  1  3  2 -1</clus>
</clustering>
</event>
<event>
 6    0  0.1631680E+002  0.1145187E+03  0.7546771E-02  0.1252424E+00
          1   -1    0    0  504    0 -0.00000000000E+00  0.00000000000E+00  0.25182836627E+04  0.25182836627E+04  0.00000000000E+00 0. -1.
         21   -1    0    0  503  502  0.00000000000E+00 -0.00000000000E+00 -0.24364880494E+02  0.24364880494E+02  0.00000000000E+00 0. -1.
         21    1    1    2  503  505 -0.22995306233E+01  0.13581864920E+03  0.22370134688E+03  0.26171413012E+03  0.00000000000E+00 0. -1.
         21    1    1    2  504  502 -0.52554498952E+02 -0.68772250710E+02  0.47888249896E+03  0.48664159876E+03  0.00000000000E+00 0. -1.
         21    1    1    2  505  501  0.43522379073E+02 -0.38279037352E+02  0.66136497693E+03  0.66389992837E+03  0.00000000000E+00 0. -1.
          1    1    1    2  501    0  0.11331650502E+02 -0.28767361134E+02  0.11299699594E+04  0.11303928859E+04  0.00000000000E+00 0. -1.
<scales pt_clust_3="14000.00000" pt_clust_4="114.51869" pt_clust_5="71.41092" pt_clust_6="30.91872"></scales>
<clustering>
<clus scale="   30.919">  1  6  2 -1</clus>
<clus scale="   71.411">  1  5  2 -1</clus>
<clus scale="  114.519">  1  4  2 -1</clus>
<clus scale="  114.519">  2  3  1 -1</clus>
</clustering>
</event>
<event>
 6    0  0.1631680E+002  0.9144940E+02  0.7546771E-02  0.1299379E+00
          2   -1    0    0  504    0 -0.00000000000E+00  0.00000000000E+00  0.11429918629E+04  0.11429918629E+04  0.00000000000E+00 0.  1.
         21   -1    0    0  505  502  0.00000000000E+00 -0.00000000000E+00 -0.16584162245E+03  0.16584162245E+03  0.00000000000E+00 0.  1.
         21    1    1    2  503  502  0.34331459171E+02  0.82667998998E+01  0.18593457374E+02  0.39908717425E+02  0.00000000000E+00 0.  1.
         21    1    1    2  504  503 -0.27283828247E+01 -0.32343620146E+02  0.28428538138E+03  0.28613236780E+03  0.00000000000E+00 0.  1.
         21    1    1    2  505  501 -0.12364902563E+03  0.83406511239E+01 -0.12620975579E+03  0.17688287214E+03  0.00000000000E+00 0.  1.
          2    1    1    2  501    0  0.92045949281E+02  0.15736169123E+02  0.80048115750E+03  0.80590952799E+03  0.00000000000E+00 0.  1.
<scales pt_clust_3="34.97985" pt_clust_4="32.45849" pt_clust_5="14000.00000" pt_clust_6="91.44940"></scales>
<clustering>
<clus scale="   32.458">  1  4  2 -1</clus>
<clus scale="   34.980">  2  3  1 -1</clus>
<clus scale="   91.449">  1  6  2 -1</clus>
<clus scale="   34.980">  2  3  1 -1</clus>
</clustering>
</event>
<event>
 6    0  0.1631680E+002  0.1434371E+03  0.7546771E-02  0.1208777E+00
          2   -1    0    0  505    0 -0.00000000000E+00  0.00000000000E+00  0.82205444244E+03  0.82205444244E+03  0.00000000000E+00 0. -1.
         21   -1    0    0  503  502  0.00000000000E+00 -0.00000000000E+00 -0.14595497720E+03  0.14595497720E+03  0.00000000000E+00 0.  1.
         21    1    1    2  503  501  0.20297355663E-01 -0.51392131140E+02 -0.21885580744E+02  0.55858125636E+02  0.00000000000E+00 0. -1.
         21    1    1    2  504  502 -0.13855413089E+03  0.49344676963E+02 -0.27528437556E+02  0.14963274777E+03  0.00000000000E+00 0.  1.
         21    1    1    2  505  504 -0.32198872633E+02 -0.16642662543E+02  0.32117686297E+03  0.32321559820E+03  0.00000000000E+00 0.  1.
          2    1    1    2  501    0  0.17073270617E+03  0.18690116720E+02  0.40433662057E+03  0.43930294803E+03  0.00000000000E+00 0. -1.
<scales pt_clust_3="51.96878" pt_clust_4="14000.00000" pt_clust_5="36.24563" pt_clust_6="143.43714"></scales>
<clustering>
<clus scale="   36.246">  1  5  2 -1</clus>
<clus scale="   51.969">  2  3  1 -1</clus>
<clus scale="  143.437">  1  6  2 -1</clus>
<clus scale="   51.969">  2  3  1 -1</clus>
</clustering>
</event>
<event>
 6    0  0.1631680E+002  0.7650847E+02  0.7546771E-02  0.1339262E+00
         21   -1    0    0  504  502  0.00000000000E+00  0.00000000000E+00  0.14571759751E+03  0.14571759751E+03  0.00000000000E+00 0.  1.
          1   -1    0    0  505    0 -0.00000000000E+00 -0.00000000000E+00 -0.16750553255E+04  0.16750553255E+04  0.00000000000E+00 0. -1.
         21    1    1    2  503  502  0.41539041047E+02  0.40515304471E+02  0.12149974345E+02  0.59284093179E+02  0.00000000000E+00 0.  1.
         21    1    1    2  504  501 -0.11344568457E+03 -0.64684317575E+02  0.67158649025E+02  0.14684777297E+03  0.00000000000E+00 0.  1.
         21    1    1    2  505  503  0.32799484544E+02 -0.14960329251E+02 -0.12849684505E+03  0.13345807142E+03  0.00000000000E+00 0.  1.
          1    1    1    2  501    0  0.39107158983E+02  0.39129342354E+02 -0.14801495063E+04  0.14811829855E+04  0.00000000000E+00 0. -1.
<scales pt_clust_3="58.22690" pt_clust_4="76.50847" pt_clust_5="36.05021" pt_clust_6="14000.00000"></scales>
<clustering>
<clus scale="   36.050">  2  5  1 -1</clus>
<clus scale="   58.227">  1  3  2 -1</clus>
<clus scale="   76.508">  1  4  2 -1</clus>
<clus scale="   58.227">  1  3  2 -1</clus>
</clustering>
</event>
<event>
 6    0  0.1631680E+002  0.1397050E+03  0.7546771E-02  0.1213726E+00
         21   -1    0    0  503  502  0.00000000000E+00  0.00000000000E+00  0.25890115722E+03  0.25890115722E+03  0.00000000000E+00 0. -1.
          2   -1    0    0  504    0 -0.00000000000E+00 -0.00000000000E+00 -0.37322414798E+03  0.37322414798E+03  0.00000000000E+00 0. -1.
         21    1    1    2  503  501  0.13975532650E+02 -0.27660398866E+02  0.50983711453E+02  0.59663657379E+02  0.00000000000E+00 0.  1.
         21    1    1    2  504  505  0.55727364251E+02 -0.71828115888E+02 -0.70216402034E+02  0.11487018966E+03  0.00000000000E+00 0. -1.
         21    1    1    2  505  502  0.11484402289E+03  0.74269261011E+02  0.11365478587E+03  0.17782711570E+03  0.00000000000E+00 0. -1.
          2    1    1    2  501    0 -0.18454691979E+03  0.25219253744E+02 -0.20874508605E+03  0.27976434246E+03  0.00000000000E+00 0. -1.
<scales pt_clust_3="30.99053" pt_clust_4="94.24964" pt_clust_5="139.70504" pt_clust_6="14000.00000"></scales>
<clustering>
<clus scale="   30.991">  1  3  2 -1</clus>
<clus scale="   94.250">  2  4  1 -1</clus>
<clus scale="  139.705">  1  5  2 -1</clus>
<clus scale="   30.991">  1  3  2 -1</clus>
</clustering>
</event>
<event>
 6    0  0.1631680E+002  0.8184906E+02  0.7546771E-02  0.1323884E+00
          1   -1    0    0  505    0 -0.00000000000E+00  0.00000000000E+00  0.29534235380E+02  0.29534235380E+02  0.00000000000E+00 0.  1.
         21   -1    0    0  503  502  0.00000000000E+00 -0.00000000000E+00 -0.10214066852E+04  0.10214066852E+04  0.00000000000E+00 0.  1.
         21    1    1    2  503  501 -0.69832184027E+02  0.10727429212E+02 -0.65531414352E+03  0.65911170401E+03  0.00000000000E+00 0.  1.
         21    1    1    2  504  502 -0.60004126897E+01 -0.30186404905E+02 -0.13091661403E+03  0.13448562683E+03  0.00000000000E+00 0. -1.
         21    1    1    2  505  504 -0.31921200743E+02 -0.19259690711E+02 -0.30858117876E+02  0.48395476876E+02  0.00000000000E+00 0.  1.
          1    1    1    2  501    0  0.10775379746E+03  0.38718666404E+02 -0.17478357440E+03  0.20894811288E+03  0.00000000000E+00 0.  1.
<scales pt_clust_3="14000.00000" pt_clust_4="30.77700" pt_clust_5="38.21924" pt_clust_6="81.84906"></scales>
<clustering>
<clus scale="   30.777">  2  4  1 -1</clus>
<clus scale="   38.219">  1  5  2 -1</clus>
<clus scale="   81.849">  1  6  2 -1</clus>
<clus scale="   30.777">  2  3  1 -1</clus>
</clustering>
</event>
<event>
 6    0  0.1631680E+002  0.9361501E+02  0.7546771E-02  0.1294326E+00
          2   -1    0    0  503    0 -0.00000000000E+00  0.00000000000E+00  0.15764120355E+04  0.15764120355E+04  0.00000000000E+00 0.  1.
         21   -1    0    0  504  502  0.00000000000E+00 -0.00000000000E+00 -0.16993081500E+02  0.16993081500E+02  0.00000000000E+00 0. -1.
         21    1    1    2  503  502  0.59427144678E+02 -0.20794547136E+02  0.29282988095E+03  0.29952184877E+03  0.00000000000E+00 0.  1.
         21    1    1    2  504  505  0.33293499334E+02  0.21558485317E+00  0.53618190912E+02  0.63114292925E+02  0.00000000000E+00 0. -1.
         21    1    1    2  505  501  0.19653936388E+02 -0.34010250535E+02  0.64476818275E+02  0.75499897032E+02  0.00000000000E+00 0.  1.
          2    1    1    2  501    0 -0.11237458040E+03  0.54589212818E+02  0.11484940639E+04  0.11552690783E+04  0.00000000000E+00 0.  1.
<scales pt_clust_3="93.61501" pt_clust_4="33.29420" pt_clust_5="48.47680" pt_clust_6="14000.00000"></scales>
<clustering>
<clus scale="   33.294">  2  4  1 -1</clus>
<clus scale="   48.477">  2  5  1 -1</clus>
<clus scale="   93.615">  1  3  2 -1</clus>
<clus scale="   33.294">  2  3  1 -1</clus>
</clustering>
</event>
<event>
 6    0  0.1631680E+002  0.1629271E+03  0.7546771E-02  0.1185431E+00
         21   -1    0    0  501  502  0.00000000000E+00  0.00000000000E+00  0.79074747638E+02  0.79074747638E+02  0.00000000000E+00 0.  1.
          4   -1    0    0  504    0 -0.00000000000E+00 -0.00000000000E+00 -0.73115084680E+03  0.73115084680E+03  0.00000000000E+00 0. -1.
         21    1    1    2  503  502 -0.43747039388E+01 -0.35158867725E+02  0.11807203681E+02  0.37345603128E+02  0.00000000000E+00 0.  1.
         21    1    1    2  504  505 -0.31050037360E+02  0.11803463065E+02 -0.20361182946E+03  0.20630366855E+03  0.00000000000E+00 0. -1.
         21    1    1    2  505  503  0.50584963600E+02 -0.11317451572E+03 -0.49566261023E+02  0.13350701773E+03  0.00000000000E+00 0.  1.
          4    1    1    2  501    0 -0.15160222301E+02  0.13652992038E+03 -0.41070521236E+03  0.43306930503E+03  0.00000000000E+00 0. -1.
<scales pt_clust_3="32.19521" pt_clust_4="33.21787" pt_clust_5="32.19521" pt_clust_6="151.38878"></scales>
<clustering>
<clus scale="   32.195">  3  5 -1 -1</clus>
<clus scale="   33.218">  2  4  1 -1</clus>
<clus scale="  151.389">  2  6  1 -1</clus>
<clus scale="  162.927">  1  3  2 -1</clus>
</clustering>
</event>
<event>
 6    0  0.1631680E+002  0.7915705E+02  0.7546771E-02  0.1331461E+00
         21   -1    0    0  503  502  0.00000000000E+00  0.00000000000E+00  0.19923667324E+03  0.19923667324E+03  0.00000000000E+00 0.  1.
          3   -1    0    0  505    0 -0.00000000000E+00 -0.00000000000E+00 -0.15688516099E+04  0.15688516099E+04  0.00000000000E+00 0.  1.
         21    1    1    2  503  501 -0.53520774389E+02 -0.60264133078E+02  0.28093487777E+02  0.85355041341E+02  0.00000000000E+00 0.  1.
         21    1    1    2  504  502  0.19783769411E+02  0.78851253767E+02  0.12466189965E+03  0.14882710431E+03  0.00000000000E+00 0.  1.
         21    1    1    2  505  504 -0.32918618093E+02 -0.38370881075E+02 -0.12541561277E+03  0.13522217221E+03  0.00000000000E+00 0.  1.
          3    1    1    2  501    0  0.66655623071E+02  0.19783760386E+02 -0.13969547113E+04  0.13986839653E+04  0.00000000000E+00 0.  1.
<scales pt_clust_3="79.15705" pt_clust_4="14000.00000" pt_clust_5="50.55650" pt_clust_6="38.83564"></scales>
<clustering>
<clus scale="   50.557">  2  5  1 -1</clus>
<clus scale="   38.836">  2  6  1 -1</clus>
<clus scale="   79.157">  2  3  1 -1</clus>
<clus scale="   79.157">  1  3  2 -1</clus>
</clustering>
</event>
<event>
 6    0  0.1631680E+002  0.8069509E+02  0.7546771E-02  0.1327090E+00
         21   -1    0    0  503  502  0.00000000000E+00  0.00000000000E+00  0.15588083166E+02  0.15588083166E+02  0.00000000000E+00 0.  1.
          2   -1    0    0  504    0 -0.00000000000E+00 -0.00000000000E+00 -0.36645248940E+04  0.36645248940E+04  0.00000000000E+00 0.  1.
         21    1    1    2  503  505  0.22204732986E+02  0.93802529553E+02 -0.19111121309E+03  0.21404546360E+03  0.00000000000E+00 0.  1.
         21    1    1    2  504  502 -0.32145322591E+02 -0.81504351401E+01 -0.68762589724E+03  0.68842510552E+03  0.00000000000E+00 0.  1.
         21    1    1    2  505  501 -0.46684668560E+02 -0.43511005933E+02 -0.31353316922E+03  0.31996205106E+03  0.00000000000E+00 0.  1.
          2    1    1    2  501    0  0.56625258165E+02 -0.42141088481E+02 -0.24566665313E+04  0.24576803570E+04  0.00000000000E+00 0.  1.
<scales pt_clust_3="14000.00000" pt_clust_4="33.16250" pt_clust_5="80.69509" pt_clust_6="57.38940"></scales>
<clustering>
<clus scale="   33.162">  2  4  1 -1</clus>
<clus scale="   57.389">  2  6  1 -1</clus>
<clus scale="   80.695">  2  5  1 -1</clus>
<clus scale="   80.695">  1  3  2 -1</clus>
</clustering>
</event>
<event>
 6    0  0.1631680E+002  0.1000681E+03  0.7546771E-02  0.1280153E+00
          2   -1    0    0  503    0 -0.00000000000E+00  0.00000000000E+00  0.38774486140E+04  0.38774486140E+04  0.00000000000E+00 0. -1.
         21   -1    0    0  504  502  0.00000000000E+00 -0.00000000000E+00 -0.50211947013E+02  0.50211947013E+02  0.00000000000E+00 0.  1.
         21    1    1    2  503  505  0.50340777290E+02  0.59487178725E+02  0.61016438044E+03  0.61512071129E+03  0.00000000000E+00 0.  1.
         21    1    1    2  504  501  0.12876290478E+02 -0.32869525315E+02  0.31621979971E+02  0.47393608938E+02  0.00000000000E+00 0.  1.
         21    1    1    2  505  502  0.33010880250E+02  0.26682109702E+02 -0.27329865026E+02  0.50483410298E+02  0.00000000000E+00 0.  1.
          2    1    1    2  501    0 -0.96227948018E+02 -0.53299763112E+02  0.32127801716E+04  0.32146628305E+04  0.00000000000E+00 0. -1.
<scales pt_clust_3="100.06810" pt_clust_4="35.30162" pt_clust_5="44.98577" pt_clust_6="14000.00000"></scales>
<clustering>
<clus scale="   35.302">  2  4  1 -1</clus>
<clus scale="   44.986">  2  5  1 -1</clus>
<clus scale="  100.068">  2  3  1 -1</clus>
<clus scale="   35.302">  2  3  1 -1</clus>
</clustering>
</event>
<event>
 6    0  0.1631680E+002  0.1532493E+03  0.7546771E-02  0.1196536E+00
          2   -1    0    0  503    0 -0.00000000000E+00  0.00000000000E+00  0.31659046433E+04  0.31659046433E+04  0.00000000000E+00 0. -1.
         21   -1    0    0  504  502  0.00000000000E+00 -0.00000000000E+00 -0.58420550194E+03  0.58420550194E+03  0.00000000000E+00 0. -1.
         21    1    1    2  503  505  0.46456655331E+02  0.28258689155E+02  0.40293932540E+03  0.40659177844E+03  0.00000000000E+00 0. -1.
         21    1    1    2  504  501 -0.53671878906E+02 -0.26446306823E+02 -0.34910128375E+02  0.69273333925E+02  0.00000000000E+00 0. -1.
         21    1    1    2  505  502 -0.10007104619E+03  0.35731328488E+02 -0.52377323727E+03  0.53444302428E+03  0.00000000000E+00 0. -1.
          2    1    1    2  501    0  0.10728626977E+03 -0.37543710820E+02  0.27374431816E+04  0.27398020086E+04  0.00000000000E+00 0. -1.
<scales pt_clust_3="54.37623" pt_clust_4="59.49672" pt_clust_5="153.24932" pt_clust_6="14000.00000"></scales>
<clustering>
<clus scale="   54.376">  1  3  2 -1</clus>
<clus scale="   59.497">  2  4  1 -1</clus>
<clus scale="  153.249">  2  5  1 -1</clus>
<clus scale="   59.497">  2  3  1 -1</clus>
</clustering>
</event>
<event>
 6    0  0.1631680E+002  0.1380128E+03  0.7546771E-02  0.1216028E+00
         21   -1    0    0  504  502  0.00000000000E+00  0.00000000000E+00  0.40954704887E+03  0.40954704887E+03  0.00000000000E+00 0. -1.
          2   -1    0    0  505    0 -0.00000000000E+00 -0.00000000000E+00 -0.10177194537E+04  0.10177194537E+04  0.00000000000E+00 0. -1.
         21    1    1    2  503  502 -0.69471987897E+02 -0.15901492817E+03  0.12440840500E+03  0.21351710873E+03  0.00000000000E+00 0. -1.
         21    1    1    2  504  501  0.63721337623E+02  0.10779268835E+03  0.22190707549E+03  0.25479878862E+03  0.00000000000E+00 0. -1.
         21    1    1    2  505  503 -0.33009234230E+02  0.13371199490E+02 -0.27310668347E+03  0.27541906084E+03  0.00000000000E+00 0. -1.
          2    1    1    2  501    0  0.38759884505E+02  0.37851040331E+02 -0.68138120191E+03  0.68353154442E+03  0.00000000000E+00 0. -1.
<scales pt_clust_3="14000.00000" pt_clust_4="138.01281" pt_clust_5="35.61458" pt_clust_6="50.83390"></scales>
<clustering>
<clus scale="   35.615">  2  5  1 -1</clus>
<clus scale="   50.834">  2  6  1 -1</clus>
<clus scale="  138.013">  1  4  2 -1</clus>
<clus scale="  138.013">  1  3  2 -1</clus>
</clustering>
</event>
<event>
 6    0  0.1631680E+002  0.7259865E+02  0.7546771E-02  0.1351473E+00
         21   -1    0    0  503  502  0.00000000000E+00  0.00000000000E+00  0.74727299887E+02  0.74727299887E+02  0.00000000000E+00 0. -1.
          2   -1    0    0  505    0 -0.00000000000E+00 -0.00000000000E+00 -0.55465663418E+03  0.55465663418E+03  0.00000000000E+00 0.  1.
         21    1    1    2  503  501 -0.85759911109E+02  0.29395503652E+01 -0.70663530214E+02  0.11116086457E+03  0.00000000000E+00 0. -1.
         21    1    1    2  504  502  0.52676252807E+02  0.53695453993E+02  0.85085528044E+01  0.75699305546E+02  0.00000000000E+00 0. -1.
         21    1    1    2  505  504  0.53812386133E+02  0.24625981684E+02 -0.13117407803E+03  0.14390570045E+03  0.00000000000E+00 0. -1.
          2    1    1    2  501    0 -0.20728727831E+02 -0.81260986042E+02 -0.28660027885E+03  0.29861806349E+03  0.00000000000E+00 0.  1.
<scales pt_clust_3="14000.00000" pt_clust_4="72.59865" pt_clust_5="59.17949" pt_clust_6="66.21093"></scales>
<clustering>
<clus scale="   59.179">  2  5  1 -1</clus>
<clus scale="   66.211">  2  6  1 -1</clus>
<clus scale="   72.599">  1  4  2 -1</clus>
<clus scale="   72.599">  1  3  2 -1</clus>
</clustering>
</event>
<event>
 6    0  0.1631680E+002  0.1169572E+03  0.7546771E-02  0.1248203E+00
         21   -1    0    0  505  502  0.00000000000E+00  0.00000000000E+00  0.22564874219E+03  0.22564874219E+03  0.00000000000E+00 0. -1.
          2   -1    0    0  504    0 -0.00000000000E+00 -0.00000000000E+00 -0.21654293452E+04  0.21654293452E+04  0.00000000000E+00 0. -1.
         21    1    1    2  503  501  0.75882598570E+02  0.45938226870E+02  0.10668333639E+03  0.13874373397E+03  0.00000000000E+00 0. -1.
         21    1    1    2  504  502 -0.46966461440E+02  0.46467803603E+02 -0.35208076087E+03  0.35822614010E+03  0.00000000000E+00 0.  1.
         21    1    1    2  505  503  0.38657451073E+02 -0.14537330840E+02  0.94043199330E+02  0.10271249121E+03  0.00000000000E+00 0.  1.
          2    1    1    2  501    0 -0.67573588204E+02 -0.77868699633E+02 -0.17884263779E+04  0.17913957221E+04  0.00000000000E+00 0. -1.
<scales pt_clust_3="116.95722" pt_clust_4="65.15991" pt_clust_5="41.30051" pt_clust_6="14000.00000"></scales>
<clustering>
<clus scale="   41.301">  1  5  2 -1</clus>
<clus scale="   65.160">  2  4  1 -1</clus>
<clus scale="  116.957">  1  3  2 -1</clus>
<clus scale="   41.301">  1  3  2 -1</clus>
</clustering>
</event>
<event>
 6    0  0.1631680E+002  0.1137471E+03  0.7546771E-02  0.1253784E+00
         21   -1    0    0  505  502  0.00000000000E+00  0.00000000000E+00  0.17155849114E+02  0.17155849114E+02  0.00000000000E+00 0.  1.
          2   -1    0    0  504    0 -0.00000000000E+00 -0.00000000000E+00 -0.32929859986E+04  0.32929859986E+04  0.00000000000E+00 0.  1.
         21    1    1    2  503  502  0.30145127336E+02  0.21498928059E+02 -0.38670945853E+02  0.53538534375E+02  0.00000000000E+00 0.  1.
         21    1    1    2  504  503  0.43938065956E+02  0.13520208930E+02 -0.15899470739E+04  0.15906115326E+04  0.00000000000E+00 0. -1.
         21    1    1    2  505  501  0.58808709276E+02  0.56189052708E+02 -0.38265182049E+03  0.39120083034E+03  0.00000000000E+00 0.  1.
          2    1    1    2  501    0 -0.13289190257E+03 -0.91208189697E+02 -0.12645603092E+04  0.12747909504E+04  0.00000000000E+00 0.  1.
<scales pt_clust_3="37.02611" pt_clust_4="47.17353" pt_clust_5="14000.00000" pt_clust_6="113.74713"></scales>
<clustering>
<clus scale="   37.026">  1  3  2 -1</clus>
<clus scale="   47.174">  2  4  1 -1</clus>
<clus scale="  113.747">  2  6  1 -1</clus>
<clus scale="   37.026">  1  3  2 -1</clus>
</clustering>
</event>
<event>
 6    0  0.1631680E+002  0.7897193E+02  0.7546771E-02  0.1331995E+00
          2   -1    0    0  503    0 -0.00000000000E+00  0.00000000000E+00  0.26188825870E+04  0.26188825870E+04  0.00000000000E+00 0.  1.
         21   -1    0    0  504  502  0.00000000000E+00 -0.00000000000E+00 -0.90115634027E+02  0.90115634027E+02  0.00000000000E+00 0. -1.
         21    1    1    2  503  505 -0.53671757001E+02  0.56447802236E+02  0.22875896951E+04  0.22889153818E+04  0.00000000000E+00 0.  1.
         21    1    1    2  504  501  0.76283593581E+02  0.54401475665E+02 -0.30144768880E+02  0.98424663042E+02  0.00000000000E+00 0. -1.
         21    1    1    2  505  502 -0.53551305211E+02 -0.39761880967E-01  0.55724757542E+02  0.77285137471E+02  0.00000000000E+00 0.  1.
          2    1    1    2  501    0  0.30939468630E+02 -0.11080951602E+03  0.21559726916E+03  0.24437303867E+03  0.00000000000E+00 0.  1.
<scales pt_clust_3="14000.00000" pt_clust_4="63.54422" pt_clust_5="53.55132" pt_clust_6="78.97193"></scales>
<clustering>
<clus scale="   53.551">  2  5  1 -1</clus>
<clus scale="   63.544">  2  4  1 -1</clus>
<clus scale="   78.972">  2  6  1 -1</clus>
<clus scale="   53.551">  2  3  1 -1</clus>
</clustering>
</event>
<event>
 6    0  0.1631680E+002  0.1614206E+03  0.7546771E-02  0.1187102E+00
          1   -1    0    0  503    0 -0.00000000000E+00  0.00000000000E+00  0.24754534170E+04  0.24754534170E+04  0.00000000000E+00 0. -1.
         21   -1    0    0  504  502  0.00000000000E+00 -0.00000000000E+00 -0.12528327039E+03  0.12528327039E+03  0.00000000000E+00 0. -1.
         21    1    1    2  503  505 -0.16601689219E+03  0.11977401714E+03  0.34927102974E+03  0.40484277922E+03  0.00000000000E+00 0. -1.
         21    1    1    2  504  501  0.22551442019E+02 -0.33097943692E+02  0.94467130261E+03  0.94551991591E+03  0.00000000000E+00 0. -1.
         21    1    1    2  505  502  0.11625927233E+03 -0.10170876212E+03 -0.35260623527E+02  0.15844305686E+03  0.00000000000E+00 0. -1.
          1    1    1    2  501    0  0.27206177836E+02  0.15032688667E+02  0.10914884378E+04  0.10919309354E+04  0.00000000000E+00 0. -1.
<scales pt_clust_3="14000.00000" pt_clust_4="47.04446" pt_clust_5="161.42063" pt_clust_6="31.08308"></scales>
<clustering>
<clus scale="   31.083">  1  6  2 -1</clus>
<clus scale="   47.044">  1  4  2 -1</clus>
<clus scale="  161.421">  2  5  1 -1</clus>
<clus scale="  161.421">  2  3  1 -1</clus>
</clustering>
</event>
<event>
 6    0  0.1631680E+002  0.7357066E+02  0.7546771E-02  0.1348355E+00
         21   -1    0    0  501  502  0.00000000000E+00  0.00000000000E+00  0.68826539893E+02  0.68826539893E+02  0.00000000000E+00 0.  1.
          2   -1    0    0  504    0 -0.00000000000E+00 -0.00000000000E+00 -0.27964517326E+04  0.27964517326E+04  0.00000000000E+00 0.  1.
         21    1    1    2  503  505 -0.10075927965E+03  0.38710982435E+02 -0.21600938913E+03  0.24147676656E+03  0.00000000000E+00 0.  1.
         21    1    1    2  504  503  0.10553405335E+02 -0.34647632410E+02 -0.23520904697E+04  0.23523693184E+04  0.00000000000E+00 0.  1.
         21    1    1    2  505  502  0.32598687746E+02 -0.31256053275E+02  0.41021333492E+02  0.61011188405E+02  0.00000000000E+00 0.  1.
          2    1    1    2  501    0  0.57607186569E+02  0.27192703249E+02 -0.20054666740E+03  0.21042099909E+03  0.00000000000E+00 0.  1.
<scales pt_clust_3="73.57066" pt_clust_4="36.21923" pt_clust_5="45.87475" pt_clust_6="14000.00000"></scales>
<clustering>
<clus scale="   36.219">  2  4  1 -1</clus>
<clus scale="   45.875">  1  5  2 -1</clus>
<clus scale="   73.571">  1  3  2 -1</clus>
<clus scale="   45.875">  1  3  2 -1</clus>
</clustering>
</event>
<event>
 6    0  0.1631680E+002  0.8103349E+02  0.7546771E-02  0.1326144E+00
         21   -1    0    0  504  502  0.00000000000E+00  0.00000000000E+00  0.10965057642E+03  0.10965057642E+03  0.00000000000E+00 0.  1.
          1   -1    0    0  503    0 -0.00000000000E+00 -0.00000000000E+00 -0.57754694389E+03  0.57754694389E+03  0.00000000000E+00 0.  1.
         21    1    1    2  503  505  0.97867678845E+01  0.52283134837E+02 -0.29568180480E+03  0.30042808907E+03  0.00000000000E+00 0.  1.
         21    1    1    2  504  501  0.43587133766E+02  0.77678966439E+02 -0.55357257206E+02  0.10487271324E+03  0.00000000000E+00 0.  1.
         21    1    1    2  505  502 -0.86854168242E+00 -0.34911816092E+02  0.62866845493E+02  0.71915433182E+02  0.00000000000E+00 0.  1.
          1    1    1    2  501    0 -0.52505359968E+02 -0.95050285184E+02 -0.17972415096E+03  0.20998128482E+03  0.00000000000E+00 0.  1.
<scales pt_clust_3="51.25616" pt_clust_4="81.03349" pt_clust_5="34.92262" pt_clust_6="14000.00000"></scales>
<clustering>
<clus scale="   34.923">  1  5  2 -1</clus>
<clus scale="   51.256">  2  3  1 -1</clus>
<clus scale="   81.033">  1  4  2 -1</clus>
<clus scale="   34.923">  1  3  2 -1</clus>
</clustering>
</event>
<event>
 6    0  0.1631680E+002  0.7210331E+02  0.7546771E-02  0.1353083E+00
          1   -1    0    0  502    0 -0.00000000000E+00  0.00000000000E+00  0.17216727990E+04  0.17216727990E+04  0.00000000000E+00 0.  1.
         21   -1    0    0  503  502  0.00000000000E+00 -0.00000000000E+00 -0.69214925704E+02  0.69214925704E+02  0.00000000000E+00 0. -1.
         21    1    1    2  503  504 -0.15307829608E+02  0.41520275638E+02 -0.40993655146E+02  0.60321991832E+02  0.00000000000E+00 0. -1.
         21    1    1    2  504  505 -0.11681199958E+02 -0.47026283975E+02  0.11861559560E+03  0.12813110994E+03  0.00000000000E+00 0.  1.
         21    1    1    2  505  501  0.72861661740E+02 -0.49006851143E+02  0.13630516330E+03  0.16214065114E+03  0.00000000000E+00 0.  1.
          1    1    1    2  501    0 -0.45872632174E+02  0.54512859480E+02  0.14385307695E+04  0.14402939717E+04  0.00000000000E+00 0.  1.
<scales pt_clust_3="44.25226" pt_clust_4="39.58699" pt_clust_5="14000.00000" pt_clust_6="72.10331"></scales>
<clustering>
<clus scale="   44.252">  2  3  1 -1</clus>
<clus scale="   39.587">  2  4  1 -1</clus>
<clus scale="   72.103">  1  6  2 -1</clus>
<clus scale="   44.252">  2  3  1 -1</clus>
</clustering>
</event>
<event>
 6    0  0.1631680E+002  0.1147877E+03  0.7546771E-02  0.1251952E+00
         21   -1    0    0  503  502  0.00000000000E+00  0.00000000000E+00  0.74476077521E+03  0.74476077521E+03  0.00000000000E+00 0. -1.
          2   -1    0    0  505    0 -0.00000000000E+00 -0.00000000000E+00 -0.13070839762E+04  0.13070839762E+04  0.00000000000E+00 0. -1.
         21    1    1    2  503  501 -0.57746949405E+02  0.75571337446E+02 -0.44950590220E+03  0.45945760775E+03  0.00000000000E+00 0. -1.
         21    1    1    2  504  502  0.19214383580E+02 -0.41760523696E+02  0.59431321375E+03  0.59608835747E+03  0.00000000000E+00 0. -1.
         21    1    1    2  505  504  0.99651976534E+02  0.32293208324E+02  0.12285091676E+03  0.16144880142E+03  0.00000000000E+00 0. -1.
          2    1    1    2  501    0 -0.61119410708E+02 -0.66104022074E+02 -0.82998142928E+03  0.83484998475E+03  0.00000000000E+00 0. -1.
<scales pt_clust_3="114.78773" pt_clust_4="45.96884" pt_clust_5="14000.00000" pt_clust_6="90.31898"></scales>
<clustering>
<clus scale="   45.969">  1  4  2 -1</clus>
<clus scale="   90.319">  2  6  1 -1</clus>
<clus scale="  114.788">  2  3  1 -1</clus>
<clus scale="   45.969">  1  3  2 -1</clus>
</clustering>
</event>
<event>
 6    0  0.1631680E+002  0.8526687E+02  0.7546771E-02  0.1314736E+00
         21   -1    0    0  505  502  0.00000000000E+00  0.00000000000E+00  0.11693714612E+03  0.11693714612E+03  0.00000000000E+00 0. -1.
          2   -1    0    0  503    0 -0.00000000000E+00 -0.00000000000E+00 -0.16708184330E+04  0.16708184330E+04  0.00000000000E+00 0. -1.
         21    1    1    2  503  504 -0.62162508582E+02  0.15514121651E+02 -0.37011114433E+03  0.37561566075E+03  0.00000000000E+00 0. -1.
         21    1    1    2  504  502 -0.12355612885E+03 -0.13914805022E+02  0.61618554204E+02  0.13876809791E+03  0.00000000000E+00 0. -1.
         21    1    1    2  505  501  0.44982293838E+02  0.17958519775E+02 -0.50162277450E+02  0.69729256919E+02  0.00000000000E+00 0.  1.
          2    1    1    2  501    0  0.14073634360E+03 -0.19557836405E+02 -0.11952264193E+04  0.12036425635E+04  0.00000000000E+00 0. -1.
<scales pt_clust_3="63.06412" pt_clust_4="85.26687" pt_clust_5="48.43465" pt_clust_6="14000.00000"></scales>
<clustering>
<clus scale="   48.435">  1  5  2 -1</clus>
<clus scale="   63.064">  2  3  1 -1</clus>
<clus scale="   85.267">  1  4  2 -1</clus>
<clus scale="   48.435">  1  3  2 -1</clus>
</clustering>
</event>
<event>
 6    0  0.1631680E+002  0.1343807E+03  0.7546771E-02  0.1221097E+00
          2   -1    0    0  503    0 -0.00000000000E+00  0.00000000000E+00  0.99447194099E+03  0.99447194099E+03  0.00000000000E+00 0.  1.
         21   -1    0    0  504  502  0.00000000000E+00 -0.00000000000E+00 -0.13005096418E+03  0.13005096418E+03  0.00000000000E+00 0.  1.
         21    1    1    2  503  502 -0.12247621670E+02  0.47252321051E+02 -0.37438081796E+02  0.61517445086E+02  0.00000000000E+00 0.  1.
         21    1    1    2  504  505  0.13597290982E+03 -0.43909944993E+02 -0.82482913290E+01  0.14312494466E+03  0.00000000000E+00 0.  1.
         21    1    1    2  505  501 -0.41373260481E+02 -0.25237833670E+02  0.31708630063E+03  0.32076847878E+03  0.00000000000E+00 0.  1.
          2    1    1    2  501    0 -0.82352027672E+02  0.21895457611E+02  0.59302104931E+03  0.59911203665E+03  0.00000000000E+00 0.  1.
<scales pt_clust_3="48.81379" pt_clust_4="124.46899" pt_clust_5="38.19907" pt_clust_6="38.19907"></scales>
<clustering>
<clus scale="   38.199">  5  6 -1 -1</clus>
<clus scale="   48.814">  2  3  1 -1</clus>
<clus scale="  124.469">  2  4  1 -1</clus>
<clus scale="   48.814">  2  3  1 -1</clus>
</clustering>
</event>
<event>
 6    0  0.1631680E+002  0.1792664E+03  0.7546771E-02  0.1168515E+00
         21   -1    0    0  501  502  0.00000000000E+00  0.00000000000E+00  0.12621152094E+03  0.12621152094E+03  0.00000000000E+00 0.  1.
          2   -1    0    0  505    0 -0.00000000000E+00 -0.00000000000E+00 -0.29247817048E+04  0.29247817048E+04  0.00000000000E+00 0.  1.
         21    1    1    2  503  504  0.20427938604E+03  0.24557581182E+02 -0.34308968953E+02  0.20859110169E+03  0.00000000000E+00 0.  1.
         21    1    1    2  504  502 -0.30408841535E+02  0.17523858965E+02  0.26285207741E+02  0.43848550974E+02  0.00000000000E+00 0. -1.
         21    1    1    2  505  503 -0.69789061947E+01 -0.33709058179E+02 -0.89315161602E+03  0.89381475426E+03  0.00000000000E+00 0. -1.
          2    1    1    2  501    0 -0.16689163831E+03 -0.83723819680E+01 -0.18973948067E+04  0.19047388188E+04  0.00000000000E+00 0.  1.
<scales pt_clust_3="14000.00000" pt_clust_4="35.05043" pt_clust_5="34.42391" pt_clust_6="179.26644"></scales>
<clustering>
<clus scale="   34.424">  2  5  1 -1</clus>
<clus scale="   35.050">  1  4  2 -1</clus>
<clus scale="  179.266">  2  6  1 -1</clus>
<clus scale="   35.050">  1  3  2 -1</clus>
</clustering>
</event>
<event>
 6    0  0.1631680E+002  0.6080773E+02  0.7546771E-02  0.1394473E+00
          2   -1    0    0  503    0 -0.00000000000E+00  0.00000000000E+00  0.29870953075E+04  0.29870953075E+04  0.00000000000E+00 0.  1.
         21   -1    0    0  505  502  0.00000000000E+00 -0.00000000000E+00 -0.80334743338E+02  0.80334743338E+02  0.00000000000E+00 0. -1.
         21    1    1    2  503  502  0.60276927335E+02 -0.45270170945E+01  0.66044538841E+03  0.66320578475E+03  0.00000000000E+00 0. -1.
         21    1    1    2  504  501  0.62490594957E+02  0.15459511309E+02  0.14203694519E+03  0.15594410777E+03  0.00000000000E+00 0. -1.
         21    1    1    2  505  504 -0.21884205815E+02  0.26132513860E+02 -0.66561547880E+02  0.74781457602E+02  0.00000000000E+00 0. -1.
          2    1    1    2  501    0 -0.10088331648E+03 -0.37065008074E+02  0.21708397785E+04  0.21734987008E+04  0.00000000000E+00 0.  1.
<scales pt_clust_3="57.15673" pt_clust_4="60.80773" pt_clust_5="34.08558" pt_clust_6="14000.00000"></scales>
<clustering>
<clus scale="   34.086">  2  5  1 -1</clus>
<clus scale="   57.157">  1  3  2 -1</clus>
<clus scale="   60.808">  2  4  1 -1</clus>
<clus scale="   34.086">  2  3  1 -1</clus>
</clustering>
</event>
<event>
 6    0  0.1631680E+002  0.1783645E+03  0.7546771E-02  0.1169395E+00
         21   -1    0    0  504  502  0.00000000000E+00  0.00000000000E+00  0.47568152686E+03  0.47568152686E+03  0.00000000000E+00 0. -1.
          2   -1    0    0  503    0 -0.00000000000E+00 -0.00000000000E+00 -0.53404817358E+04  0.53404817358E+04  0.00000000000E+00 0. -1.
         21    1    1    2  503  505 -0.22660879205E+02  0.16083363269E+03  0.11351822104E+03  0.19815993378E+03  0.00000000000E+00 0. -1.
         21    1    1    2  504  501  0.54937662551E+02 -0.17677457816E+02  0.30980819322E+03  0.31513767764E+03  0.00000000000E+00 0. -1.
         21    1    1    2  505  502  0.15761565256E+02  0.28915609158E+02 -0.40502848519E+02  0.52201725359E+02  0.00000000000E+00 0. -1.
          2    1    1    2  501    0 -0.48038348602E+02 -0.17207178403E+03 -0.52476237747E+04  0.52506639259E+04  0.00000000000E+00 0. -1.
<scales pt_clust_3="178.36447" pt_clust_4="65.43871" pt_clust_5="32.93235" pt_clust_6="14000.00000"></scales>
<clustering>
<clus scale="   32.932">  1  5  2 -1</clus>
<clus scale="   65.439">  1  4  2 -1</clus>
<clus scale="  178.364">  1  3  2 -1</clus>
<clus scale="   32.932">  1  3  2 -1</clus>
</clustering>
</event>
<event>
 6    0  0.1631680E+002  0.1030214E+03  0.7546771E-02  0.1274068E+00
          1   -1    0    0  505    0 -0.00000000000E+00  0.00000000000E+00  0.24669417185E+03  0.24669417185E+03  0.00000000000E+00 0. -1.
         21   -1    0    0  501  502  0.00000000000E+00 -0.00000000000E+00 -0.46080070600E+03  0.46080070600E+03  0.00000000000E+00 0.  1.
         21    1    1    2  503  502 -0.49274722376E+02 -0.90877534256E+02 -0.37325117052E+03  0.38730241517E+03  0.00000000000E+00 0.  1.
         21    1    1    2  504  503  0.90798179551E+02  0.10613342620E+02  0.15705915140E+02  0.92755744953E+02  0.00000000000E+00 0.  1.
         21    1    1    2  505  504 -0.74752443276E+02 -0.11904231612E+02  0.42684812329E+02  0.86900124911E+02  0.00000000000E+00 0.  1.
          1    1    1    2  501    0  0.33228986101E+02  0.92168423247E+02  0.10075390890E+03  0.14053659282E+03  0.00000000000E+00 0. -1.
<scales pt_clust_3="103.02137" pt_clust_4="68.87528" pt_clust_5="75.69438" pt_clust_6="14000.00000"></scales>
<clustering>
<clus scale="   75.694">  1  5  2 -1</clus>
<clus scale="   68.875">  1  4  2 -1</clus>
<clus scale="  103.021">  2  3  1 -1</clus>
<clus scale="  103.021">  2  3  1 -1</clus>
</clustering>
</event>
<event>
 6    0  0.1631680E+002  0.3522560E+03  0.7546771E-02  0.1061693E+00
          2   -1    0    0  503    0 -0.00000000000E+00  0.00000000000E+00  0.16010068918E+04  0.16010068918E+04  0.00000000000E+00 0. -1.
         21   -1    0    0  504  502  0.00000000000E+00 -0.00000000000E+00 -0.27375426078E+03  0.27375426078E+03  0.00000000000E+00 0. -1.
         21    1    1    2  503  502 -0.26073573544E+02  0.15150968878E+02  0.70408378476E+03  0.70472928069E+03  0.00000000000E+00 0. -1.
         21    1    1    2  504  505  0.29533337181E+03 -0.25764540667E+03 -0.55039510803E+01  0.39196077553E+03  0.00000000000E+00 0. -1.
         21    1    1    2  505  501 -0.13812346362E+03  0.26027896497E+03  0.28557863203E+03  0.41033935454E+03  0.00000000000E+00 0. -1.
          2    1    1    2  501    0 -0.13113633464E+03 -0.17784527180E+02  0.34309416532E+03  0.36773174183E+03  0.00000000000E+00 0. -1.
<scales pt_clust_3="30.15598" pt_clust_4="14000.00000" pt_clust_5="352.25604" pt_clust_6="141.96140"></scales>
<clustering>
<clus scale="   30.156">  1  3  2 -1</clus>
<clus scale="  141.961">  1  6  2 -1</clus>
<clus scale="  352.256">  1  5  2 -1</clus>
<clus scale="  352.256">  2  3  1 -1</clus>
</clustering>
</event>
<event>
 6    0  0.1631680E+002  0.1475085E+03  0.7546771E-02  0.1203568E+00
         21   -1    0    0  504  502  0.00000000000E+00  0.00000000000E+00  0.20006891888E+04  0.20006891888E+04  0.00000000000E+00 0. -1.
          1   -1    0    0  505    0 -0.00000000000E+00 -0.00000000000E+00 -0.30039531534E+03  0.30039531534E+03  0.00000000000E+00 0. -1.
         21    1    1    2  503  502 -0.13031906370E+02 -0.13641909878E+03 -0.54923346673E+02  0.14763663199E+03  0.00000000000E+00 0. -1.
         21    1    1    2  504  501 -0.59199136598E+02  0.13594493326E+03  0.19240677537E+04  0.19297725989E+04  0.00000000000E+00 0. -1.
         21    1    1    2  505  503 -0.33012860776E+02  0.85612785560E+01 -0.75170534113E+02  0.82545464236E+02  0.00000000000E+00 0. -1.
          1    1    1    2  501    0  0.10524390374E+03 -0.80871130403E+01 -0.93679999502E+02  0.14112980897E+03  0.00000000000E+00 0. -1.
<scales pt_clust_3="14000.00000" pt_clust_4="147.50847" pt_clust_5="34.10490" pt_clust_6="87.82034"></scales>
<clustering>
<clus scale="   34.105">  2  5  1 -1</clus>
<clus scale="   87.820">  2  6  1 -1</clus>
<clus scale="  147.508">  1  4  2 -1</clus>
<clus scale="  147.508">  1  3  2 -1</clus>
</clustering>
</event>
<event>
 6    0  0.1631680E+002  0.1716741E+03  0.7546771E-02  0.1176113E+00
         21   -1    0    0  504  502  0.00000000000E+00  0.00000000000E+00  0.11424371487E+03  0.11424371487E+03  0.00000000000E+00 0.  1.
          1   -1    0    0  503    0 -0.00000000000E+00 -0.00000000000E+00 -0.27748946911E+04  0.27748946911E+04  0.00000000000E+00 0.  1.
         21    1    1    2  503  502  0.68372325716E+02 -0.37439122570E+02 -0.53834842511E+03  0.54396276494E+03  0.00000000000E+00 0.  1.
         21    1    1    2  504  505 -0.69013430963E+02 -0.10920768946E+02 -0.13685295568E+02  0.71199748332E+02  0.00000000000E+00 0.  1.
         21    1    1    2  505  501 -0.85443407467E+02  0.33611330311E+02  0.56033317527E+02  0.10756407429E+03  0.00000000000E+00 0.  1.
          1    1    1    2  501    0  0.86084512714E+02  0.14748561205E+02 -0.21646505731E+04  0.21664118184E+04  0.00000000000E+00 0.  1.
<scales pt_clust_3="77.95167" pt_clust_4="66.38685" pt_clust_5="66.38685" pt_clust_6="153.88509"></scales>
<clustering>
<clus scale="   66.387">  4  5 -1 -1</clus>
<clus scale="   77.952">  2  3  1 -1</clus>
<clus scale="  153.885">  2  6  1 -1</clus>
<clus scale="  171.674">  1  3  2 -1</clus>
</clustering>
</event>
<event>
 6    0  0.1631680E+002  0.2276867E+03  0.7546771E-02  0.1128279E+00
         21   -1    0    0  504  502  0.00000000000E+00  0.00000000000E+00  0.58901990594E+03  0.58901990594E+03  0.00000000000E+00 0. -1.
          1   -1    0    0  503    0 -0.00000000000E+00 -0.00000000000E+00 -0.83219470799E+03  0.83219470799E+03  0.00000000000E+00 0. -1.
         21    1    1    2  503  505 -0.22274992485E+02 -0.50319915928E+02 -0.64250552856E+02  0.84595524536E+02  0.00000000000E+00 0. -1.
         21    1    1    2  504  501  0.22507196235E+02 -0.23353356943E+02  0.20860630398E+02  0.38563182746E+02  0.00000000000E+00 0. -1.
         21    1    1    2  505  502 -0.24682585838E+03  0.20700173214E+01  0.49729588423E+03  0.55518509149E+03  0.00000000000E+00 0. -1.
          1    1    1    2  501    0  0.24659365463E+03  0.71603255549E+02 -0.69708076383E+03  0.74287081516E+03  0.00000000000E+00 0. -1.
<scales pt_clust_3="55.25510" pt_clust_4="32.43383" pt_clust_5="14000.00000" pt_clust_6="227.68668"></scales>
<clustering>
<clus scale="   32.434">  1  4  2 -1</clus>
<clus scale="   55.255">  2  3  1 -1</clus>
<clus scale="  227.687">  2  6  1 -1</clus>
<clus scale="   32.434">  1  3  2 -1</clus>
</clustering>
</event>
<event>
 6    0  0.1631680E+002  0.1080956E+03  0.7546771E-02  0.1264138E+00
         21   -1    0    0  504  502  0.00000000000E+00  0.00000000000E+00  0.16421728532E+03  0.16421728532E+03  0.00000000000E+00 0. -1.
         -2   -1    0    0    0  501 -0.00000000000E+00 -0.00000000000E+00 -0.76566243071E+03  0.76566243071E+03  0.00000000000E+00 0.  1.
         21    1    1    2  503  502 -0.41013603779E+02  0.14219591499E+02 -0.10958640466E+02  0.44770573799E+02  0.00000000000E+00 0.  1.
         21    1    1    2  504  501  0.35190305316E+02  0.56204980832E+00  0.37822906269E+02  0.51664743558E+02  0.00000000000E+00 0. -1.
         21    1    1    2  505  503 -0.32538991602E+02  0.86968191728E+02  0.76491208068E+02  0.12030443574E+03  0.00000000000E+00 0. -1.
         -2    1    1    2    0  505  0.38362290065E+02 -0.10174983304E+03 -0.70480061926E+03  0.71313996293E+03  0.00000000000E+00 0.  1.
<scales pt_clust_3="38.76747" pt_clust_4="35.19479" pt_clust_5="108.09561" pt_clust_6="14000.00000"></scales>
<clustering>
<clus scale="   35.195">  1  4  2 -1</clus>
<clus scale="   38.767">  1  3  2 -1</clus>
<clus scale="  108.096">  1  5  2 -1</clus>
<clus scale="   35.195">  1  3  2 -1</clus>
</clustering>
</event>
<event>
 6    0  0.1631680E+002  0.1312308E+03  0.7546771E-02  0.1225641E+00
         -3   -1    0    0    0  501 -0.00000000000E+00  0.00000000000E+00  0.78347791085E+03  0.78347791085E+03  0.00000000000E+00 0.  1.
         21   -1    0    0  504  502  0.00000000000E+00 -0.00000000000E+00 -0.91077337527E+03  0.91077337527E+03  0.00000000000E+00 0. -1.
         21    1    1    2  503  501  0.41227950252E+02  0.21218132651E+01  0.95349896875E+01  0.42369352153E+02  0.00000000000E+00 0.  1.
         21    1    1    2  504  505  0.87082666356E+02  0.98195579162E+02 -0.87667147950E+03  0.88644156351E+03  0.00000000000E+00 0. -1.
         21    1    1    2  505  503 -0.43170281210E+02 -0.34444123485E+01  0.63177910134E+02  0.76596249811E+02  0.00000000000E+00 0.  1.
         -3    1    1    2    0  502 -0.85140335398E+02 -0.96872980078E+02  0.67666311527E+03  0.68884412064E+03  0.00000000000E+00 0.  1.
<scales pt_clust_3="41.28251" pt_clust_4="131.23077" pt_clust_5="39.50053" pt_clust_6="14000.00000"></scales>
<clustering>
<clus scale="   41.283">  1  3  2 -1</clus>
<clus scale="   39.501">  1  5  2 -1</clus>
<clus scale="  131.231">  2  4  1 -1</clus>
<clus scale="  131.231">  2  3  1 -1</clus>
</clustering>
</event>
<event>
 6    0  0.1631680E+002  0.1464497E+03  0.7546771E-02  0.1204905E+00
          2   -1    0    0  505    0 -0.00000000000E+00  0.00000000000E+00  0.91946634416E+03  0.91946634416E+03  0.00000000000E+00 0.  1.
         21   -1    0    0  501  502  0.00000000000E+00 -0.00000000000E+00 -0.86471200217E+02  0.86471200217E+02  0.00000000000E+00 0.  1.
         21    1    1    2  503  504  0.13135940621E+03 -0.12968399915E+02  0.29977763317E+02  0.13535929702E+03  0.00000000000E+00 0.  1.
         21    1    1    2  504  502  0.75892047294E+01  0.38151434773E+02  0.12338180141E+02  0.40808806560E+02  0.00000000000E+00 0.  1.
         21    1    1    2  505  503  0.51966463870E+02  0.19499987341E+02  0.18446207721E+03  0.19263182707E+03  0.00000000000E+00 0. -1.
          2    1    1    2  501    0 -0.19091507481E+03 -0.44683022199E+02  0.60621712328E+03  0.63713761372E+03  0.00000000000E+00 0.  1.
<scales pt_clust_3="14000.00000" pt_clust_4="38.89895" pt_clust_5="56.69520" pt_clust_6="146.44974"></scales>
<clustering>
<clus scale="   38.899">  2  4  1 -1</clus>
<clus scale="   56.695">  1  5  2 -1</clus>
<clus scale="  146.450">  1  6  2 -1</clus>
<clus scale="   38.899">  2  3  1 -1</clus>
</clustering>
</event>
<event>
 6    0  0.1631680E+002  0.1089575E+03  0.7546771E-02  0.1262513E+00
         21   -1    0    0  505  502  0.00000000000E+00  0.00000000000E+00  0.48860732174E+03  0.48860732174E+03  0.00000000000E+00 0. -1.
         -2   -1    0    0    0  501 -0.00000000000E+00 -0.00000000000E+00 -0.12360928580E+03  0.12360928580E+03  0.00000000000E+00 0.  1.
         21    1    1    2  503  502 -0.44259418217E+02 -0.38596673307E+02  0.22162342567E+03  0.22927176472E+03  0.00000000000E+00 0. -1.
         21    1    1    2  504  503 -0.40158633615E+02  0.13068747880E+03  0.14737964159E+03  0.20102908179E+03  0.00000000000E+00 0. -1.
         21    1    1    2  505  501  0.31584252598E+02 -0.18505683477E+01  0.53814573441E+02  0.62425939560E+02  0.00000000000E+00 0. -1.
         -2    1    1    2    0  504  0.52833799235E+02 -0.90240237141E+02 -0.57819604770E+02  0.11948982148E+03  0.00000000000E+00 0.  1.
<scales pt_clust_3="48.30918" pt_clust_4="108.95748" pt_clust_5="31.63842" pt_clust_6="14000.00000"></scales>
<clustering>
<clus scale="   31.638">  1  5  2 -1</clus>
<clus scale="   48.309">  1  3  2 -1</clus>
<clus scale="  108.957">  1  4  2 -1</clus>
<clus scale="   31.638">  1  3  2 -1</clus>
</clustering>
</event>
<event>
 6    0  0.1631680E+002  0.1958421E+03  0.7546771E-02  0.1153295E+00
         21   -1    0    0  505  502  0.00000000000E+00  0.00000000000E+00  0.96016608424E+03  0.96016608424E+03  0.00000000000E+00 0. -1.
          1   -1    0    0  504    0 -0.00000000000E+00 -0.00000000000E+00 -0.74978543112E+03  0.74978543112E+03  0.00000000000E+00 0.  1.
         21    1    1    2  503  502 -0.10922431487E+02 -0.18426842154E+03  0.30674786165E+03  0.35800614704E+03  0.00000000000E+00 0. -1.
         21    1    1    2  504  503 -0.34190787886E+02  0.49100666533E+01 -0.28109148335E+02  0.44533615965E+02  0.00000000000E+00 0.  1.
         21    1    1    2  505  501 -0.40706253737E+02  0.20190227924E+03  0.59944325935E+03  0.63384047728E+03  0.00000000000E+00 0. -1.
          1    1    1    2  501    0  0.85819473110E+02 -0.22543924352E+02 -0.66770131954E+03  0.67357127508E+03  0.00000000000E+00 0.  1.
<scales pt_clust_3="14000.00000" pt_clust_4="34.54155" pt_clust_5="195.84212" pt_clust_6="56.59588"></scales>
<clustering>
<clus scale="   34.542">  2  4  1 -1</clus>
<clus scale="   56.596">  2  6  1 -1</clus>
<clus scale="  195.842">  1  5  2 -1</clus>
<clus scale="  195.842">  1  3  2 -1</clus>
</clustering>
</event>
<event>
 6    0  0.1631680E+002  0.7709423E+02  0.7546771E-02  0.1337506E+00
         -2   -1    0    0    0  501 -0.00000000000E+00  0.00000000000E+00  0.23130862530E+03  0.23130862530E+03  0.00000000000E+00 0. -1.
         21   -1    0    0  505  502  0.00000000000E+00 -0.00000000000E+00 -0.91910264431E+03  0.91910264431E+03  0.00000000000E+00 0. -1.
         21    1    1    2  503  501 -0.32988729763E+02  0.66149309681E+01  0.87198363610E+02  0.93464261723E+02  0.00000000000E+00 0. -1.
         21    1    1    2  504  502 -0.67648413922E+02  0.53950785208E+02 -0.79288318197E+03  0.79759058130E+03  0.00000000000E+00 0. -1.
         21    1    1    2  505  503 -0.71138182484E+01 -0.56831941450E+02 -0.90096449992E+02  0.10676069633E+03  0.00000000000E+00 0.  1.
         -2    1    1    2    0  504  0.10775096193E+03 -0.37337747264E+01  0.10798724934E+03  0.15259573025E+03  0.00000000000E+00 0. -1.
<scales pt_clust_3="33.64541" pt_clust_4="14000.00000" pt_clust_5="57.16408" pt_clust_6="77.09423"></scales>
<clustering>
<clus scale="   33.645">  1  3  2 -1</clus>
<clus scale="   57.164">  2  5  1 -1</clus>
<clus scale="   77.094">  1  6  2 -1</clus>
<clus scale="   57.164">  2  3  1 -1</clus>
</clustering>
</event>
<event>
 6    0  0.1631680E+002  0.1210033E+03  0.7546771E-02  0.1241451E+00
          2   -1    0    0  505    0 -0.00000000000E+00  0.00000000000E+00  0.15529534022E+04  0.15529534022E+04  0.00000000000E+00 0.  1.
         21   -1    0    0  504  502  0.00000000000E+00 -0.00000000000E+00 -0.83265073642E+02  0.83265073642E+02  0.00000000000E+00 0. -1.
         21    1    1    2  503  501 -0.37246860347E+02  0.48264513688E+01 -0.74678453776E+01  0.38293497530E+02  0.00000000000E+00 0. -1.
         21    1    1    2  504  503 -0.34414786208E+02  0.64554509782E+02  0.19368592293E+01  0.73180691898E+02  0.00000000000E+00 0. -1.
         21    1    1    2  505  502  0.13057242659E+03 -0.13690622795E+03  0.36687159452E+03  0.41277989377E+03  0.00000000000E+00 0.  1.
          2    1    1    2  501    0 -0.58910780030E+02  0.67525266803E+02  0.11083477202E+04  0.11119643927E+04  0.00000000000E+00 0.  1.
<scales pt_clust_3="35.44290" pt_clust_4="35.44290" pt_clust_5="110.43105" pt_clust_6="89.61106"></scales>
<clustering>
<clus scale="   35.443">  3  4 -1 -1</clus>
<clus scale="   89.611">  1  6  2 -1</clus>
<clus scale="  110.431">  1  5  2 -1</clus>
<clus scale="  121.003">  2  3  1 -1</clus>
</clustering>
</event>
<event>
 6    0  0.1631680E+002  0.1212827E+03  0.7546771E-02  0.1240996E+00
         21   -1    0    0  504  502  0.00000000000E+00  0.00000000000E+00  0.15474506249E+03  0.15474506249E+03  0.00000000000E+00 0. -1.
          2   -1    0    0  505    0 -0.00000000000E+00 -0.00000000000E+00 -0.82532463494E+03  0.82532463494E+03  0.00000000000E+00 0. -1.
         21    1    1    2  503  501  0.91422948377E+02  0.48095472880E+02 -0.24687374226E+01  0.10333162471E+03  0.00000000000E+00 0.  1.
         21    1    1    2  504  503  0.13789503458E+02  0.34075903144E+02  0.92645873698E+02  0.99672340667E+02  0.00000000000E+00 0. -1.
         21    1    1    2  505  502 -0.52731660832E+02 -0.33498530314E+02 -0.15532404999E+03  0.16741666611E+03  0.00000000000E+00 0.  1.
          2    1    1    2  501    0 -0.52480791003E+02 -0.48672845710E+02 -0.60543265873E+03  0.60964906593E+03  0.00000000000E+00 0. -1.
<scales pt_clust_3="121.28267" pt_clust_4="36.76027" pt_clust_5="59.42618" pt_clust_6="14000.00000"></scales>
<clustering>
<clus scale="   36.760">  1  4  2 -1</clus>
<clus scale="   59.426">  2  5  1 -1</clus>
<clus scale="  121.283">  1  3  2 -1</clus>
<clus scale="   36.760">  1  3  2 -1</clus>
</clustering>
</event>
<event>
 6    0  0.2052221E+002  0.1217573E+03  0.7546771E-02  0.1240226E+00
          1   -1    0    0  504    0 -0.00000000000E+00  0.00000000000E+00  0.12684308186E+04  0.12684308186E+04  0.00000000000E+00 0.  1.
         21   -1    0    0  505  502  0.00000000000E+00 -0.00000000000E+00 -0.11088669906E+04  0.11088669906E+04  0.00000000000E+00 0.  1.
         21    1    1    2  503  502  0.33709880711E+01 -0.10114903236E+03  0.13564357683E+03  0.16923850107E+03  0.00000000000E+00 0. -1.
         21    1    1    2  504  503  0.22895986826E+02  0.26715524576E+02  0.11732698513E+03  0.12248904810E+03  0.00000000000E+00 0.  1.
         21    1    1    2  505  501 -0.51428810204E+02 -0.28813831412E+02 -0.10858523208E+04  0.10874513424E+04  0.00000000000E+00 0.  1.
          1    1    1    2  501    0  0.25161835307E+02  0.10324733920E+03  0.99244558680E+03  0.99811891765E+03  0.00000000000E+00 0.  1.
<scales pt_clust_3="14000.00000" pt_clust_4="35.18445" pt_clust_5="58.92749" pt_clust_6="121.75731"></scales>
<clustering>
<clus scale="   35.184">  1  4  2 -1</clus>
<clus scale="   58.927">  2  5  1 -1</clus>
<clus scale="  121.757">  1  6  2 -1</clus>
<clus scale="   58.927">  2  3  1 -1</clus>
</clustering>
</event>
<event>
 6    0  0.1631680E+002  0.1238064E+03  0.7546771E-02  0.1236946E+00
         21   -1    0    0  501  502  0.00000000000E+00  0.00000000000E+00  0.15101028847E+04  0.15101028847E+04  0.00000000000E+00 0.  1.
          1   -1    0    0  503    0 -0.00000000000E+00 -0.00000000000E+00 -0.16088767399E+03  0.16088767399E+03  0.00000000000E+00 0. -1.
         21    1    1    2  503  505  0.44683758401E+02  0.67996567473E+02 -0.44801048000E+02  0.92883288890E+02  0.00000000000E+00 0. -1.
         21    1    1    2  504  502 -0.29123182989E+02 -0.90091601718E+01  0.14197226158E+04  0.14200498691E+04  0.00000000000E+00 0.  1.
         21    1    1    2  505  504  0.20159076359E+02  0.39143795395E+02  0.14198952059E+02  0.46262677367E+02  0.00000000000E+00 0. -1.
          1    1    1    2  501    0 -0.35719651771E+02 -0.98131202696E+02 -0.39905309198E+02  0.11179472334E+03  0.00000000000E+00 0. -1.
<scales pt_clust_3="37.00143" pt_clust_4="30.48483" pt_clust_5="37.00143" pt_clust_6="112.18991"></scales>
<clustering>
<clus scale="   30.485">  1  4  2 -1</clus>
<clus scale="   37.001">  3  5 -1 -1</clus>
<clus scale="  112.190">  2  6  1 -1</clus>
<clus scale="   30.485">  1  3  2 -1</clus>
</clustering>
</event>
<event>
 6    0  0.1631680E+002  0.8918567E+02  0.7546771E-02  0.1304836E+00
          1   -1    0    0  504    0 -0.00000000000E+00  0.00000000000E+00  0.83816591094E+03  0.83816591094E+03  0.00000000000E+00 0. -1.
         21   -1    0    0  501  502  0.00000000000E+00 -0.00000000000E+00 -0.71651386613E+03  0.71651386613E+03  0.00000000000E+00 0. -1.
         21    1    1    2  503  505 -0.24792366645E+02  0.69045392811E+02 -0.27267468379E+03  0.28237105180E+03  0.00000000000E+00 0.  1.
         21    1    1    2  504  503  0.25544950539E+02 -0.45909942955E+02  0.96688955854E+02  0.11004099938E+03  0.00000000000E+00 0.  1.
         21    1    1    2  505  502  0.55240265498E+02  0.16411764940E+02 -0.42877372942E+03  0.43262887560E+03  0.00000000000E+00 0. -1.
          1    1    1    2  501    0 -0.55992849393E+02 -0.39547214797E+02  0.72641150216E+03  0.72963885029E+03  0.00000000000E+00 0. -1.
<scales pt_clust_3="14000.00000" pt_clust_4="52.53825" pt_clust_5="57.65676" pt_clust_6="89.18567"></scales>
<clustering>
<clus scale="   52.538">  1  4  2 -1</clus>
<clus scale="   57.657">  2  5  1 -1</clus>
<clus scale="   89.186">  1  6  2 -1</clus>
<clus scale="   57.657">  2  3  1 -1</clus>
</clustering>
</event>
<event>
 6    0  0.1631680E+002  0.8669931E+02  0.7546771E-02  0.1311048E+00
          2   -1    0    0  504    0 -0.00000000000E+00  0.00000000000E+00  0.51952225730E+03  0.51952225730E+03  0.00000000000E+00 0. -1.
         21   -1    0    0  505  502  0.00000000000E+00 -0.00000000000E+00 -0.32247288242E+03  0.32247288242E+03  0.00000000000E+00 0.  1.
         21    1    1    2  503  502  0.15567745736E+02 -0.68104025502E+02 -0.26600641511E+03  0.27502713662E+03  0.00000000000E+00 0.  1.
         21    1    1    2  504  503 -0.26810411155E+02 -0.34950340366E+02  0.37884689975E+02  0.58099691673E+02  0.00000000000E+00 0.  1.
         21    1    1    2  505  501  0.59146546043E+02  0.20179655368E+02 -0.10003749582E+02  0.63289868109E+02  0.00000000000E+00 0. -1.
          2    1    1    2  501    0 -0.47903880623E+02  0.82874710499E+02  0.43517484960E+03  0.44557844331E+03  0.00000000000E+00 0. -1.
<scales pt_clust_3="86.69931" pt_clust_4="44.04911" pt_clust_5="60.43861" pt_clust_6="14000.00000"></scales>
<clustering>
<clus scale="   44.049">  1  4  2 -1</clus>
<clus scale="   60.439">  2  5  1 -1</clus>
<clus scale="   86.699">  2  3  1 -1</clus>
<clus scale="   60.439">  2  3  1 -1</clus>
</clustering>
</event>
<event>
 6    0  0.1631680E+002  0.6617322E+02  0.7546771E-02  0.1373612E+00
          1   -1    0    0  504    0 -0.00000000000E+00  0.00000000000E+00  0.37607133132E+02  0.37607133132E+02  0.00000000000E+00 0. -1.
         21   -1    0    0  505  502  0.00000000000E+00 -0.00000000000E+00 -0.28995607366E+04  0.28995607366E+04  0.00000000000E+00 0. -1.
         21    1    1    2  503  502  0.22650565681E+02  0.49625197414E+02 -0.24977592058E+04  0.24983548103E+04  0.00000000000E+00 0. -1.
         21    1    1    2  504  503 -0.33888924032E+02 -0.21864754135E+02 -0.29896857798E+02  0.50203075121E+02  0.00000000000E+00 0. -1.
         21    1    1    2  505  501 -0.73709984638E+02 -0.12894463635E+02 -0.27230978712E+03  0.28240405307E+03  0.00000000000E+00 0. -1.
          1    1    1    2  501    0  0.84948342989E+02 -0.14865979644E+02 -0.61987752773E+02  0.10620593120E+03  0.00000000000E+00 0. -1.
<scales pt_clust_3="54.18217" pt_clust_4="40.33022" pt_clust_5="14000.00000" pt_clust_6="66.17322"></scales>
<clustering>
<clus scale="   40.330">  1  4  2 -1</clus>
<clus scale="   54.182">  2  3  1 -1</clus>
<clus scale="   66.173">  1  6  2 -1</clus>
<clus scale="   54.182">  2  3  1 -1</clus>
</clustering>
</event>
<event>
 6    0  0.1631680E+002  0.9425152E+02  0.7546771E-02  0.1292871E+00
          2   -1    0    0  503    0 -0.00000000000E+00  0.00000000000E+00  0.23958759864E+04  0.23958759864E+04  0.00000000000E+00 0.  1.
         21   -1    0    0  504  502  0.00000000000E+00 -0.00000000000E+00 -0.26448319934E+03  0.26448319934E+03  0.00000000000E+00 0.  1.
         21    1    1    2  503  502 -0.51970564809E+02 -0.39827108898E+02  0.15082497318E+03  0.16442417932E+03  0.00000000000E+00 0. -1.
         21    1    1    2  504  505 -0.21441273150E+02  0.95139792516E+02 -0.23013794128E+03  0.24994955557E+03  0.00000000000E+00 0.  1.
         21    1    1    2  505  501  0.33135366261E+02 -0.63820565800E+02  0.56669067008E+02  0.91555449165E+02  0.00000000000E+00 0. -1.
          2    1    1    2  501    0  0.40276471698E+02  0.85078821817E+01  0.21540366882E+04  0.21544300017E+04  0.00000000000E+00 0.  1.
<scales pt_clust_3="42.84073" pt_clust_4="94.25152" pt_clust_5="14000.00000" pt_clust_6="41.16526"></scales>
<clustering>
<clus scale="   41.165">  1  6  2 -1</clus>
<clus scale="   42.841">  1  3  2 -1</clus>
<clus scale="   94.252">  2  4  1 -1</clus>
<clus scale="   94.252">  2  3  1 -1</clus>
</clustering>
</event>
<event>
 6    0  0.1631680E+002  0.1725975E+03  0.7546771E-02  0.1175166E+00
         -4   -1    0    0    0  501 -0.00000000000E+00  0.00000000000E+00  0.41877828825E+03  0.41877828825E+03  0.00000000000E+00 0. -1.
         21   -1    0    0  505  502  0.00000000000E+00 -0.00000000000E+00 -0.47404508791E+03  0.47404508791E+03  0.00000000000E+00 0.  1.
         21    1    1    2  503  502  0.12456232041E+03  0.92951171901E+02 -0.26144462164E+03  0.30415289282E+03  0.00000000000E+00 0.  1.
         21    1    1    2  504  501  0.21888158363E+02 -0.29733031175E+02  0.75441984716E+02  0.83991890545E+02  0.00000000000E+00 0. -1.
         21    1    1    2  505  504  0.41868297594E+02 -0.41343905473E+02 -0.15272148248E+03  0.16366466959E+03  0.00000000000E+00 0.  1.
         -4    1    1    2    0  503 -0.18831877637E+03 -0.21874235253E+02  0.28345731975E+03  0.34101392320E+03  0.00000000000E+00 0. -1.
<scales pt_clust_3="14000.00000" pt_clust_4="36.92079" pt_clust_5="59.42962" pt_clust_6="172.59755"></scales>
<clustering>
<clus scale="   36.921">  1  4  2 -1</clus>
<clus scale="   59.430">  2  5  1 -1</clus>
<clus scale="  172.598">  1  6  2 -1</clus>
<clus scale="   59.430">  2  3  1 -1</clus>
</clustering>
</event>
<event>
 6    0  0.1631680E+002  0.1257628E+03  0.7546771E-02  0.1233882E+00
         21   -1    0    0  501  502  0.00000000000E+00  0.00000000000E+00  0.28179828992E+02  0.28179828992E+02  0.00000000000E+00 0. -1.
          2   -1    0    0  503    0 -0.00000000000E+00 -0.00000000000E+00 -0.21868732679E+04  0.21868732679E+04  0.00000000000E+00 0. -1.
         21    1    1    2  503  504 -0.12676197062E+02 -0.38187042701E+02 -0.33455066248E+03  0.33696154375E+03  0.00000000000E+00 0.  1.
         21    1    1    2  504  505  0.67585448195E+01 -0.11216659896E+03 -0.25912749289E+03  0.28244305873E+03  0.00000000000E+00 0. -1.
         21    1    1    2  505  502 -0.67520771403E+02  0.37792565723E+01 -0.95517165151E+02  0.11703361137E+03  0.00000000000E+00 0. -1.
          2    1    1    2  501    0  0.73438423645E+02  0.14657438509E+03 -0.14694981184E+04  0.14786148831E+04  0.00000000000E+00 0. -1.
<scales pt_clust_3="40.23601" pt_clust_4="125.76284" pt_clust_5="68.26698" pt_clust_6="14000.00000"></scales>
<clustering>
<clus scale="   40.236">  2  3  1 -1</clus>
<clus scale="   68.267">  1  5  2 -1</clus>
<clus scale="  125.763">  1  4  2 -1</clus>
<clus scale="   68.267">  1  3  2 -1</clus>
</clustering>
</event>
<event>
 6    0  0.1631680E+002  0.1032727E+03  0.7546771E-02  0.1273561E+00
          4   -1    0    0  504    0 -0.00000000000E+00  0.00000000000E+00  0.29029689403E+03  0.29029689403E+03  0.00000000000E+00 0.  1.
         21   -1    0    0  503  502  0.00000000000E+00 -0.00000000000E+00 -0.45117632970E+03  0.45117632970E+03  0.00000000000E+00 0.  1.
         21    1    1    2  503  501 -0.33673811566E+02  0.39394554769E+01 -0.42011822336E+02  0.53985536126E+02  0.00000000000E+00 0.  1.
         21    1    1    2  504  505  0.47744204598E-01 -0.37601401569E+02  0.45023339223E+02  0.58659771175E+02  0.00000000000E+00 0. -1.
         21    1    1    2  505  502  0.12149212303E+03  0.50515929168E+02 -0.37614215413E+03  0.39849104779E+03  0.00000000000E+00 0.  1.
          4    1    1    2  501    0 -0.87866055671E+02 -0.16853983075E+02  0.21225120158E+03  0.23033686864E+03  0.00000000000E+00 0.  1.
<scales pt_clust_3="33.90346" pt_clust_4="37.53841" pt_clust_5="14000.00000" pt_clust_6="103.27271"></scales>
<clustering>
<clus scale="   33.903">  2  3  1 -1</clus>
<clus scale="   37.538">  1  4  2 -1</clus>
<clus scale="  103.273">  1  6  2 -1</clus>
<clus scale="   33.903">  2  3  1 -1</clus>
</clustering>
</event>
<event>
 6    0  0.1631680E+002  0.1089665E+03  0.7546771E-02  0.1262496E+00
         21   -1    0    0  501  502  0.00000000000E+00  0.00000000000E+00  0.21414592385E+04  0.21414592385E+04  0.00000000000E+00 0.  1.
          2   -1    0    0  503    0 -0.00000000000E+00 -0.00000000000E+00 -0.72727306239E+03  0.72727306239E+03  0.00000000000E+00 0. -1.
         21    1    1    2  503  505  0.11376779240E+03  0.48597520725E+02 -0.35507402616E+03  0.37600850211E+03  0.00000000000E+00 0.  1.
         21    1    1    2  504  502 -0.33609912653E+02  0.80842020630E+01  0.18643150440E+04  0.18646355043E+04  0.00000000000E+00 0.  1.
         21    1    1    2  505  504  0.24435604508E+02 -0.10461602789E+03  0.24584658998E+03  0.26829490838E+03  0.00000000000E+00 0.  1.
          2    1    1    2  501    0 -0.10459348426E+03  0.47934305098E+02 -0.34090143171E+03  0.35979338612E+03  0.00000000000E+00 0. -1.
<scales pt_clust_3="108.96647" pt_clust_4="34.56849" pt_clust_5="97.34788" pt_clust_6="14000.00000"></scales>
<clustering>
<clus scale="   34.568">  1  4  2 -1</clus>
<clus scale="   97.348">  1  5  2 -1</clus>
<clus scale="  108.966">  1  3  2 -1</clus>
<clus scale="   34.568">  1  3  2 -1</clus>
</clustering>
</event>
<event>
 6    0  0.1631680E+002  0.1404718E+03  0.7546771E-02  0.1212696E+00
          1   -1    0    0  503    0 -0.00000000000E+00  0.00000000000E+00  0.10845800446E+04  0.10845800446E+04  0.00000000000E+00 0.  1.
         21   -1    0    0  505  502  0.00000000000E+00 -0.00000000000E+00 -0.33276304830E+03  0.33276304830E+03  0.00000000000E+00 0.  1.
         21    1    1    2  503  504  0.24691310214E+02 -0.19112864587E+02  0.44883855539E+02  0.54676529525E+02  0.00000000000E+00 0.  1.
         21    1    1    2  504  502 -0.21698097154E+02 -0.52861772135E+02  0.52352461955E+01  0.57381026273E+02  0.00000000000E+00 0. -1.
         21    1    1    2  505  501  0.15621685682E+03  0.85054819737E+02 -0.26847381231E+03  0.32205002191E+03  0.00000000000E+00 0.  1.
          1    1    1    2  501    0 -0.15921006988E+03 -0.13080183015E+02  0.97017170682E+03  0.98323551515E+03  0.00000000000E+00 0.  1.
<scales pt_clust_3="31.22439" pt_clust_4="57.40021" pt_clust_5="14000.00000" pt_clust_6="140.47179"></scales>
<clustering>
<clus scale="   31.224">  1  3  2 -1</clus>
<clus scale="   57.400">  2  4  1 -1</clus>
<clus scale="  140.472">  1  6  2 -1</clus>
<clus scale="   57.400">  2  3  1 -1</clus>
</clustering>
</event>
<event>
 6    0  0.1631680E+002  0.1170265E+03  0.7546771E-02  0.1248084E+00
          2   -1    0    0  504    0 -0.00000000000E+00  0.00000000000E+00  0.22787422131E+04  0.22787422131E+04  0.00000000000E+00 0. -1.
         21   -1    0    0  503  502  0.00000000000E+00 -0.00000000000E+00 -0.34480149820E+03  0.34480149820E+03  0.00000000000E+00 0.  1.
         21    1    1    2  503  501 -0.48659995468E+02  0.23465576714E+02 -0.25939159462E+03  0.26495740754E+03  0.00000000000E+00 0.  1.
         21    1    1    2  504  505  0.10388763530E+03  0.37746539479E+02  0.21726511461E+03  0.24376540369E+03  0.00000000000E+00 0.  1.
         21    1    1    2  505  502  0.30575302754E+02  0.21223308940E+02 -0.62522230466E+02  0.72761990649E+02  0.00000000000E+00 0.  1.
          2    1    1    2  501    0 -0.85802942587E+02 -0.82435425133E+02  0.20385894254E+04  0.20420589094E+04  0.00000000000E+00 0. -1.
<scales pt_clust_3="47.80623" pt_clust_4="14000.00000" pt_clust_5="37.21932" pt_clust_6="117.02655"></scales>
<clustering>
<clus scale="   37.219">  2  5  1 -1</clus>
<clus scale="   47.806">  2  3  1 -1</clus>
<clus scale="  117.027">  1  6  2 -1</clus>
<clus scale="   37.219">  2  3  1 -1</clus>
</clustering>
</event>
<event>
 6    0  0.1631680E+002  0.2296864E+03  0.7546771E-02  0.1126861E+00
         21   -1    0    0  505  502  0.00000000000E+00  0.00000000000E+00  0.35455711389E+03  0.35455711389E+03  0.00000000000E+00 0.  1.
          2   -1    0    0  503    0 -0.00000000000E+00 -0.00000000000E+00 -0.35748513464E+03  0.35748513464E+03  0.00000000000E+00 0.  1.
         21    1    1    2  503  504  0.36385120540E+01 -0.52061404284E+02 -0.13887637594E+03  0.14835860737E+03  0.00000000000E+00 0.  1.
         21    1    1    2  504  502  0.85266203964E+02  0.24259711133E+03  0.14630803304E+03  0.29585422845E+03  0.00000000000E+00 0.  1.
         21    1    1    2  505  501  0.33396694476E+02 -0.31045349962E+02  0.39973008019E+02  0.60638224960E+02  0.00000000000E+00 0. -1.
          2    1    1    2  501    0 -0.12230141049E+03 -0.15949035708E+03 -0.50332685861E+02  0.20719118774E+03  0.00000000000E+00 0.  1.
<scales pt_clust_3="52.70951" pt_clust_4="229.68637" pt_clust_5="45.59773" pt_clust_6="14000.00000"></scales>
<clustering>
<clus scale="   45.598">  1  5  2 -1</clus>
<clus scale="   52.710">  2  3  1 -1</clus>
<clus scale="  229.686">  1  4  2 -1</clus>
<clus scale="   45.598">  1  3  2 -1</clus>
</clustering>
</event>
<event>
 6    0  0.1631680E+002  0.1041480E+03  0.7546771E-02  0.1271807E+00
         21   -1    0    0  504  502  0.00000000000E+00  0.00000000000E+00  0.11882246469E+04  0.11882246469E+04  0.00000000000E+00 0. -1.
         -2   -1    0    0    0  501 -0.00000000000E+00 -0.00000000000E+00 -0.31953529916E+02  0.31953529916E+02  0.00000000000E+00 0.  1.
         21    1    1    2  503  502 -0.16597802833E+02 -0.95162719136E+02  0.52819155862E+03  0.53695228165E+03  0.00000000000E+00 0. -1.
         21    1    1    2  504  505  0.37814183917E+02  0.13615250948E+02  0.28850470844E+03  0.29129066987E+03  0.00000000000E+00 0. -1.
         21    1    1    2  505  501  0.60909713551E+02  0.45642501747E+02  0.26381418155E+03  0.27457449546E+03  0.00000000000E+00 0. -1.
         -2    1    1    2    0  503 -0.82126094635E+02  0.35904966442E+02  0.75760668391E+02  0.11736072985E+03  0.00000000000E+00 0.  1.
<scales pt_clust_3="94.64384" pt_clust_4="31.58547" pt_clust_5="31.58547" pt_clust_6="89.63181"></scales>
<clustering>
<clus scale="   31.585">  4  5 -1 -1</clus>
<clus scale="   89.632">  2  6  1 -1</clus>
<clus scale="   94.644">  1  3  2 -1</clus>
<clus scale="   94.644">  1  3  2 -1</clus>
</clustering>
</event>
<event>
 6    0  0.1631680E+002  0.1348090E+03  0.7546771E-02  0.1220490E+00
          1   -1    0    0  504    0 -0.00000000000E+00  0.00000000000E+00  0.46055751500E+03  0.46055751500E+03  0.00000000000E+00 0.  1.
         21   -1    0    0  505  502  0.00000000000E+00 -0.00000000000E+00 -0.15862426802E+03  0.15862426802E+03  0.00000000000E+00 0. -1.
         21    1    1    2  503  501  0.24749147077E+02 -0.10436687973E+03  0.85387821704E+02  0.13709867235E+03  0.00000000000E+00 0. -1.
         21    1    1    2  504  502  0.31424177197E+02 -0.36347506035E+01 -0.68436299352E+02  0.75393749034E+02  0.00000000000E+00 0. -1.
         21    1    1    2  505  503  0.46613156346E+02 -0.16459263418E+02 -0.26336758105E+02  0.56011771301E+02  0.00000000000E+00 0. -1.
          1    1    1    2  501    0 -0.10278648062E+03  0.12446089375E+03  0.31131848273E+03  0.35067759033E+03  0.00000000000E+00 0.  1.
<scales pt_clust_3="14000.00000" pt_clust_4="31.63369" pt_clust_5="64.16593" pt_clust_6="134.80904"></scales>
<clustering>
<clus scale="   31.634">  2  4  1 -1</clus>
<clus scale="   64.166">  2  5  1 -1</clus>
<clus scale="  134.809">  1  6  2 -1</clus>
<clus scale="   31.634">  2  3  1 -1</clus>
</clustering>
</event>
<event>
 6    0  0.2175756E+002  0.9328331E+02  0.7546771E-02  0.1295090E+00
          1   -1    0    0  504    0 -0.00000000000E+00  0.00000000000E+00  0.84550792344E+03  0.84550792344E+03  0.00000000000E+00 0. -1.
         21   -1    0    0  501  502  0.00000000000E+00 -0.00000000000E+00 -0.10509972798E+04  0.10509972798E+04  0.00000000000E+00 0. -1.
         21    1    1    2  503  505 -0.30821453872E+01 -0.39847841697E+02  0.63015827942E+01  0.40460598782E+02  0.00000000000E+00 0. -1.
         21    1    1    2  504  503  0.19015646115E+02 -0.68022708879E+02  0.66926858153E+02  0.97303073244E+02  0.00000000000E+00 0.  1.
         21    1    1    2  505  502 -0.58181189444E+02  0.36101201268E+02 -0.10152297063E+04  0.10175360948E+04  0.00000000000E+00 0. -1.
          1    1    1    2  501    0  0.42247688716E+02  0.71769349308E+02  0.73651190908E+03  0.74120543638E+03  0.00000000000E+00 0. -1.
<scales pt_clust_3="31.25618" pt_clust_4="31.25618" pt_clust_5="68.47151" pt_clust_6="83.51816"></scales>
<clustering>
<clus scale="   31.256">  3  4 -1 -1</clus>
<clus scale="   68.472">  2  5  1 -1</clus>
<clus scale="   83.518">  1  6  2 -1</clus>
<clus scale="   68.472">  2  3  1 -1</clus>
</clustering>
</event>
<event>
 6    0  0.1631680E+002  0.6040932E+02  0.7546771E-02  0.1396122E+00
         21   -1    0    0  503  502  0.00000000000E+00  0.00000000000E+00  0.12074782658E+04  0.12074782658E+04  0.00000000000E+00 0.  1.
          2   -1    0    0  505    0 -0.00000000000E+00 -0.00000000000E+00 -0.83380518732E+03  0.83380518732E+03  0.00000000000E+00 0.  1.
         21    1    1    2  503  501  0.39995940989E+02 -0.39503685044E+02  0.16696722048E+03  0.17617681216E+03  0.00000000000E+00 0.  1.
         21    1    1    2  504  502  0.48593785122E+01  0.79387017949E+02  0.10284063825E+04  0.10314773870E+04  0.00000000000E+00 0.  1.
         21    1    1    2  505  504  0.15144309287E+02  0.38618370924E+02 -0.26545686704E+03  0.26867838941E+03  0.00000000000E+00 0. -1.
          2    1    1    2  501    0 -0.59999628788E+02 -0.78501703830E+02 -0.55624365747E+03  0.56495086462E+03  0.00000000000E+00 0.  1.
<scales pt_clust_3="56.08371" pt_clust_4="60.40932" pt_clust_5="41.48167" pt_clust_6="14000.00000"></scales>
<clustering>
<clus scale="   41.482">  2  5  1 -1</clus>
<clus scale="   56.084">  1  3  2 -1</clus>
<clus scale="   60.409">  1  4  2 -1</clus>
<clus scale="   56.084">  1  3  2 -1</clus>
</clustering>
</event>
<event>
 6    0  0.1631680E+002  0.8185295E+02  0.7546771E-02  0.1323874E+00
          2   -1    0    0  505    0 -0.00000000000E+00  0.00000000000E+00  0.17501757954E+04  0.17501757954E+04  0.00000000000E+00 0. -1.
         21   -1    0    0  501  502  0.00000000000E+00 -0.00000000000E+00 -0.17286602728E+03  0.17286602728E+03  0.00000000000E+00 0. -1.
         21    1    1    2  503  504 -0.90068010078E+01  0.12022788581E+03  0.13701660001E+03  0.18250867286E+03  0.00000000000E+00 0. -1.
         21    1    1    2  504  502 -0.49070983647E+02 -0.64560664724E+02 -0.13713721703E+03  0.15931935589E+03  0.00000000000E+00 0. -1.
         21    1    1    2  505  503 -0.11424895115E+01 -0.30071285805E+02  0.94974018328E+03  0.95021681907E+03  0.00000000000E+00 0.  1.
          2    1    1    2  501    0  0.59220274166E+02 -0.25595935280E+02  0.62769020184E+03  0.63099697484E+03  0.00000000000E+00 0. -1.
<scales pt_clust_3="14000.00000" pt_clust_4="81.85295" pt_clust_5="30.09298" pt_clust_6="76.33248"></scales>
<clustering>
<clus scale="   30.093">  1  5  2 -1</clus>
<clus scale="   76.332">  1  6  2 -1</clus>
<clus scale="   81.853">  2  4  1 -1</clus>
<clus scale="   81.853">  2  3  1 -1</clus>
</clustering>
</event>
<event>
 6    0  0.1631680E+002  0.7393657E+02  0.7546771E-02  0.1347196E+00
         -3   -1    0    0    0  501 -0.00000000000E+00  0.00000000000E+00  0.22208604150E+03  0.22208604150E+03  0.00000000000E+00 0.  1.
         21   -1    0    0  503  502  0.00000000000E+00 -0.00000000000E+00 -0.59359182921E+03  0.59359182921E+03  0.00000000000E+00 0.  1.
         21    1    1    2  503  505 -0.51256209508E+02 -0.48395877972E+02 -0.45130612231E+03  0.45677847591E+03  0.00000000000E+00 0.  1.
         21    1    1    2  504  501 -0.26873719318E+02  0.26299474483E+02 -0.57907141872E+01  0.38044599077E+02  0.00000000000E+00 0.  1.
         21    1    1    2  505  504  0.10613414058E+03  0.47788747315E+02 -0.86244597951E+02  0.14486666574E+03  0.00000000000E+00 0.  1.
         -3    1    1    2    0  502 -0.28004211751E+02 -0.25692343826E+02  0.17183564673E+03  0.17598812998E+03  0.00000000000E+00 0.  1.
<scales pt_clust_3="73.93657" pt_clust_4="37.60132" pt_clust_5="14000.00000" pt_clust_6="50.81603"></scales>
<clustering>
<clus scale="   37.601">  1  4  2 -1</clus>
<clus scale="   50.816">  1  6  2 -1</clus>
<clus scale="   73.937">  2  3  1 -1</clus>
<clus scale="   73.937">  2  3  1 -1</clus>
</clustering>
</event>
<event>
 6    0  0.1631680E+002  0.1235062E+03  0.7546771E-02  0.1237423E+00
         -4   -1    0    0    0  501 -0.00000000000E+00  0.00000000000E+00  0.18804787118E+03  0.18804787118E+03  0.00000000000E+00 0. -1.
         21   -1    0    0  503  502  0.00000000000E+00 -0.00000000000E+00 -0.41914640382E+03  0.41914640382E+03  0.00000000000E+00 0. -1.
         21    1    1    2  503  501 -0.33177547260E+02 -0.52506181972E+02  0.97845935327E+02  0.11589424424E+03  0.00000000000E+00 0. -1.
         21    1    1    2  504  502 -0.30569209928E+02 -0.33235231251E+02 -0.14698466607E+03  0.15376459037E+03  0.00000000000E+00 0. -1.
         21    1    1    2  505  504 -0.92950565720E+02  0.37539323644E+01 -0.11621118480E+03  0.14885878929E+03  0.00000000000E+00 0. -1.
         -4    1    1    2    0  505  0.15669732291E+03  0.81987480859E+02 -0.65748617102E+02  0.18867665111E+03  0.00000000000E+00 0. -1.
<scales pt_clust_3="63.60216" pt_clust_4="45.15592" pt_clust_5="123.50615" pt_clust_6="14000.00000"></scales>
<clustering>
<clus scale="   45.156">  2  4  1 -1</clus>
<clus scale="   63.602">  1  3  2 -1</clus>
<clus scale="  123.506">  2  5  1 -1</clus>
<clus scale="   45.156">  2  3  1 -1</clus>
</clustering>
</event>
<event>
 6    0  0.1631680E+002  0.6631510E+02  0.7546771E-02  0.1373092E+00
          2   -1    0    0  504    0 -0.00000000000E+00  0.00000000000E+00  0.12040236721E+04  0.12040236721E+04  0.00000000000E+00 0.  1.
         21   -1    0    0  501  502  0.00000000000E+00 -0.00000000000E+00 -0.50173792615E+02  0.50173792615E+02  0.00000000000E+00 0. -1.
         21    1    1    2  503  502  0.27724007300E+02  0.52366437981E+02  0.75937484838E+01  0.59737169531E+02  0.00000000000E+00 0. -1.
         21    1    1    2  504  505  0.17434993106E+02 -0.51818713777E+02  0.24386709350E+03  0.24992062215E+03  0.00000000000E+00 0. -1.
         21    1    1    2  505  503  0.42271669626E+02 -0.43612578409E+02  0.31886219326E+02  0.68597973960E+02  0.00000000000E+00 0. -1.
          2    1    1    2  501    0 -0.87430670032E+02  0.43064854206E+02  0.87050281813E+03  0.87594169903E+03  0.00000000000E+00 0.  1.
<scales pt_clust_3="57.94545" pt_clust_4="54.67319" pt_clust_5="14000.00000" pt_clust_6="66.31510"></scales>
<clustering>
<clus scale="   54.673">  1  4  2 -1</clus>
<clus scale="   57.945">  2  3  1 -1</clus>
<clus scale="   66.315">  1  6  2 -1</clus>
<clus scale="   57.945">  2  3  1 -1</clus>
</clustering>
</event>
<event>
 6    0  0.1631680E+002  0.1122570E+03  0.7546771E-02  0.1256447E+00
         21   -1    0    0  503  502  0.00000000000E+00  0.00000000000E+00  0.85500414898E+02  0.85500414898E+02  0.00000000000E+00 0. -1.
          3   -1    0    0  504    0 -0.00000000000E+00 -0.00000000000E+00 -0.75435268630E+03  0.75435268630E+03  0.00000000000E+00 0. -1.
         21    1    1    2  503  505  0.14745498334E+03  0.49254267515E+02 -0.38289826251E+02  0.16010954304E+03  0.00000000000E+00 0. -1.
         21    1    1    2  504  502 -0.34015335525E+02  0.23129809617E+02 -0.22903196228E+02  0.47080649329E+02  0.00000000000E+00 0. -1.
         21    1    1    2  505  501 -0.41564853389E+02 -0.64645315923E+02 -0.14235307362E+03  0.16177469357E+03  0.00000000000E+00 0. -1.
          3    1    1    2  501    0 -0.71874794423E+02 -0.77387612090E+01 -0.46530617530E+03  0.47088821526E+03  0.00000000000E+00 0. -1.
<scales pt_clust_3="14000.00000" pt_clust_4="41.13431" pt_clust_5="112.25696" pt_clust_6="73.48884"></scales>
<clustering>
<clus scale="   41.134">  1  4  2 -1</clus>
<clus scale="   73.489">  2  6  1 -1</clus>
<clus scale="  112.257">  2  5  1 -1</clus>
<clus scale="   41.134">  1  3  2 -1</clus>
</clustering>
</event>
<event>
 6    0  0.1631680E+002  0.1306556E+03  0.7546771E-02  0.1226486E+00
         21   -1    0    0  503  502  0.00000000000E+00  0.00000000000E+00  0.11658986255E+04  0.11658986255E+04  0.00000000000E+00 0. -1.
          2   -1    0    0  505    0 -0.00000000000E+00 -0.00000000000E+00 -0.18377883771E+03  0.18377883771E+03  0.00000000000E+00 0.  1.
         21    1    1    2  503  504  0.44442793520E+02 -0.27222233011E+02  0.66466408745E+03  0.66670425303E+03  0.00000000000E+00 0. -1.
         21    1    1    2  504  501 -0.13779742083E+03 -0.63947150321E+02  0.43324144729E+03  0.45910295019E+03  0.00000000000E+00 0. -1.
         21    1    1    2  505  502  0.28494348534E+02 -0.16174932527E+02 -0.90068133898E+02  0.95842710127E+02  0.00000000000E+00 0.  1.
          2    1    1    2  501    0  0.64860278777E+02  0.10734431586E+03 -0.25717613030E+02  0.12802754989E+03  0.00000000000E+00 0.  1.
<scales pt_clust_3="52.48509" pt_clust_4="14000.00000" pt_clust_5="32.76517" pt_clust_6="130.65558"></scales>
<clustering>
<clus scale="   32.765">  2  5  1 -1</clus>
<clus scale="   52.485">  1  3  2 -1</clus>
<clus scale="  130.656">  2  6  1 -1</clus>
<clus scale="   52.485">  1  3  2 -1</clus>
</clustering>
</event>
<event>
 6    0  0.1631680E+002  0.1279303E+03  0.7546771E-02  0.1230560E+00
          3   -1    0    0  504    0 -0.00000000000E+00  0.00000000000E+00  0.10438489892E+04  0.10438489892E+04  0.00000000000E+00 0. -1.
         21   -1    0    0  503  502  0.00000000000E+00 -0.00000000000E+00 -0.18916607438E+03  0.18916607438E+03  0.00000000000E+00 0.  1.
         21    1    1    2  503  505  0.61919957589E+02 -0.25118809496E+02 -0.15984867188E+03  0.17325309128E+03  0.00000000000E+00 0.  1.
         21    1    1    2  504  502 -0.29475992024E+02  0.26053113907E+02  0.90829420571E+02  0.98982738350E+02  0.00000000000E+00 0.  1.
         21    1    1    2  505  501 -0.92766146948E+02 -0.10403061493E+03  0.39875129748E+03  0.42241037405E+03  0.00000000000E+00 0. -1.
          3    1    1    2  501    0  0.60322181383E+02  0.10309631052E+03  0.52495086863E+03  0.53836885988E+03  0.00000000000E+00 0. -1.
<scales pt_clust_3="66.55890" pt_clust_4="39.33953" pt_clust_5="127.93029" pt_clust_6="14000.00000"></scales>
<clustering>
<clus scale="   39.340">  1  4  2 -1</clus>
<clus scale="   66.559">  2  3  1 -1</clus>
<clus scale="  127.930">  2  5  1 -1</clus>
<clus scale="   66.559">  2  3  1 -1</clus>
</clustering>
</event>
<event>
 6    0  0.1631680E+002  0.8348553E+02  0.7546771E-02  0.1319441E+00
         21   -1    0    0  501  502  0.00000000000E+00  0.00000000000E+00  0.43312728810E+03  0.43312728810E+03  0.00000000000E+00 0. -1.
          2   -1    0    0  504    0 -0.00000000000E+00 -0.00000000000E+00 -0.13554022570E+03  0.13554022570E+03  0.00000000000E+00 0. -1.
         21    1    1    2  503  502  0.44615212663E+02 -0.60729678321E+02  0.18484014369E+03  0.19961084577E+03  0.00000000000E+00 0. -1.
         21    1    1    2  504  505  0.26235615881E+02 -0.23238021495E+02  0.41884192247E+01  0.35296685953E+02  0.00000000000E+00 0. -1.
         21    1    1    2  505  503 -0.12023639250E+02  0.10551552159E+03  0.19792787167E+03  0.22461864478E+03  0.00000000000E+00 0. -1.
          2    1    1    2  501    0 -0.58827189294E+02 -0.21547821769E+02 -0.89369372181E+02  0.10914133730E+03  0.00000000000E+00 0. -1.
<scales pt_clust_3="14000.00000" pt_clust_4="35.04730" pt_clust_5="83.48553" pt_clust_6="55.14063"></scales>
<clustering>
<clus scale="   35.047">  2  4  1 -1</clus>
<clus scale="   55.141">  2  6  1 -1</clus>
<clus scale="   83.486">  2  5  1 -1</clus>
<clus scale="   83.486">  1  3  2 -1</clus>
</clustering>
</event>
<event>
 6    0  0.1631680E+002  0.6712625E+02  0.7546771E-02  0.1370147E+00
         21   -1    0    0  505  502  0.00000000000E+00  0.00000000000E+00  0.31228334093E+02  0.31228334093E+02  0.00000000000E+00 0. -1.
          2   -1    0    0  503    0 -0.00000000000E+00 -0.00000000000E+00 -0.20143310400E+04  0.20143310400E+04  0.00000000000E+00 0.  1.
         21    1    1    2  503  504  0.59775260901E+01  0.40305434461E+02 -0.59644462675E+03  0.59783480297E+03  0.00000000000E+00 0.  1.
         21    1    1    2  504  502  0.37220727599E+02  0.67436540075E+02 -0.41945086458E+02  0.87706668949E+02  0.00000000000E+00 0. -1.
         21    1    1    2  505  501 -0.36319825603E+02 -0.41418501462E+01 -0.54441487032E+02  0.65575606476E+02  0.00000000000E+00 0. -1.
          2    1    1    2  501    0 -0.68784280860E+01 -0.10360012439E+03 -0.12902715057E+04  0.12944422957E+04  0.00000000000E+00 0.  1.
<scales pt_clust_3="40.50227" pt_clust_4="67.12625" pt_clust_5="36.55523" pt_clust_6="14000.00000"></scales>
<clustering>
<clus scale="   36.555">  1  5  2 -1</clus>
<clus scale="   40.502">  2  3  1 -1</clus>
<clus scale="   67.126">  1  4  2 -1</clus>
<clus scale="   36.555">  1  3  2 -1</clus>
</clustering>
</event>
<event>
 6    0  0.1631680E+002  0.9558468E+02  0.7546771E-02  0.1289865E+00
         21   -1    0    0  504  502  0.00000000000E+00  0.00000000000E+00  0.31184574463E+02  0.31184574463E+02  0.00000000000E+00 0. -1.
          1   -1    0    0  505    0 -0.00000000000E+00 -0.00000000000E+00 -0.93137080866E+03  0.93137080866E+03  0.00000000000E+00 0.  1.
         21    1    1    2  503  502  0.28394812185E+02 -0.19743983302E+02 -0.52175552588E+02  0.62596952989E+02  0.00000000000E+00 0.  1.
         21    1    1    2  504  501 -0.60569183499E+02 -0.75522192953E+02 -0.94066015345E+02  0.13498386148E+03  0.00000000000E+00 0. -1.
         21    1    1    2  505  503 -0.27631597752E+02  0.27924951620E+02 -0.24200788105E+03  0.24517569743E+03  0.00000000000E+00 0. -1.
          1    1    1    2  501    0  0.59805969066E+02  0.67341224635E+02 -0.51193678521E+03  0.51979887122E+03  0.00000000000E+00 0.  1.
<scales pt_clust_3="34.58454" pt_clust_4="14000.00000" pt_clust_5="37.21320" pt_clust_6="95.58468"></scales>
<clustering>
<clus scale="   34.585">  1  3  2 -1</clus>
<clus scale="   37.213">  2  5  1 -1</clus>
<clus scale="   95.585">  2  6  1 -1</clus>
<clus scale="   34.585">  1  3  2 -1</clus>
</clustering>
</event>
<event>
 6    0  0.1631680E+002  0.1042646E+03  0.7546771E-02  0.1271575E+00
          2   -1    0    0  504    0 -0.00000000000E+00  0.00000000000E+00  0.29057159477E+03  0.29057159477E+03  0.00000000000E+00 0. -1.
         21   -1    0    0  501  502  0.00000000000E+00 -0.00000000000E+00 -0.13667061534E+03  0.13667061534E+03  0.00000000000E+00 0. -1.
         21    1    1    2  503  502  0.82272379930E+02  0.43763246499E+02 -0.20903432831E+02  0.95503506468E+02  0.00000000000E+00 0. -1.
         21    1    1    2  504  505 -0.33742724140E+02  0.29411756947E+02  0.71627188522E+02  0.84463465561E+02  0.00000000000E+00 0.  1.
         21    1    1    2  505  503 -0.12761687943E+03 -0.34747834349E+02  0.37348335064E+02  0.13743499568E+03  0.00000000000E+00 0. -1.
          2    1    1    2  501    0  0.79087223636E+02 -0.38427169096E+02  0.65828888669E+02  0.10984024240E+03  0.00000000000E+00 0. -1.
<scales pt_clust_3="104.26462" pt_clust_4="44.76185" pt_clust_5="14000.00000" pt_clust_6="70.23993"></scales>
<clustering>
<clus scale="   44.762">  1  4  2 -1</clus>
<clus scale="   70.240">  1  6  2 -1</clus>
<clus scale="  104.265">  2  3  1 -1</clus>
<clus scale="  104.265">  2  3  1 -1</clus>
</clustering>
</event>
<event>
 6    0  0.1631680E+002  0.1273604E+03  0.7546771E-02  0.1231426E+00
          1   -1    0    0  503    0 -0.00000000000E+00  0.00000000000E+00  0.11185949921E+03  0.11185949921E+03  0.00000000000E+00 0. -1.
         21   -1    0    0  504  502  0.00000000000E+00 -0.00000000000E+00 -0.61064746978E+03  0.61064746978E+03  0.00000000000E+00 0.  1.
         21    1    1    2  503  505 -0.33682719110E+02 -0.15607450490E+02  0.26515277185E+02  0.45619929873E+02  0.00000000000E+00 0. -1.
         21    1    1    2  504  501  0.10476467643E+03  0.51914716834E+02 -0.20624017685E+03  0.23707759447E+03  0.00000000000E+00 0. -1.
         21    1    1    2  505  502 -0.13259904378E+03 -0.35827244185E+02 -0.34628925439E+03  0.37253502593E+03  0.00000000000E+00 0.  1.
          1    1    1    2  501    0  0.61517086459E+02 -0.48002215894E+00  0.27226183484E+02  0.67274418725E+02  0.00000000000E+00 0. -1.
<scales pt_clust_3="37.12301" pt_clust_4="127.36039" pt_clust_5="14000.00000" pt_clust_6="41.78514"></scales>
<clustering>
<clus scale="   37.123">  1  3  2 -1</clus>
<clus scale="   41.785">  1  6  2 -1</clus>
<clus scale="  127.360">  1  4  2 -1</clus>
<clus scale="  127.360">  2  3  1 -1</clus>
</clustering>
</event>
<event>
 6    0  0.1631680E+002  0.1045619E+03  0.7546771E-02  0.1270985E+00
          1   -1    0    0  504    0 -0.00000000000E+00  0.00000000000E+00  0.28147813180E+04  0.28147813180E+04  0.00000000000E+00 0. -1.
         21   -1    0    0  505  502  0.00000000000E+00 -0.00000000000E+00 -0.45101415177E+03  0.45101415177E+03  0.00000000000E+00 0. -1.
         21    1    1    2  503  501  0.12035938891E+03 -0.15027509078E+02 -0.25918021512E+03  0.28615833456E+03  0.00000000000E+00 0. -1.
         21    1    1    2  504  502  0.36916243608E+01  0.43119769542E+02  0.99971091995E+03  0.10006472236E+04  0.00000000000E+00 0. -1.
         21    1    1    2  505  503 -0.27194387960E+02 -0.32587390852E+02 -0.17401927925E+03  0.17912058042E+03  0.00000000000E+00 0. -1.
          1    1    1    2  501    0 -0.96856625311E+02  0.44951303876E+01  0.17972557407E+04  0.17998693312E+04  0.00000000000E+00 0. -1.
<scales pt_clust_3="14000.00000" pt_clust_4="43.21818" pt_clust_5="42.44376" pt_clust_6="104.56190"></scales>
<clustering>
<clus scale="   42.444">  2  5  1 -1</clus>
<clus scale="   43.218">  1  4  2 -1</clus>
<clus scale="  104.562">  1  6  2 -1</clus>
<clus scale="   42.444">  2  3  1 -1</clus>
</clustering>
</event>
<event>
 6    0  0.1631680E+002  0.6919321E+02  0.7546771E-02  0.1362858E+00
         21   -1    0    0  503  502  0.00000000000E+00  0.00000000000E+00  0.10542248251E+04  0.10542248251E+04  0.00000000000E+00 0.  1.
          1   -1    0    0  504    0 -0.00000000000E+00 -0.00000000000E+00 -0.14145525036E+04  0.14145525036E+04  0.00000000000E+00 0. -1.
         21    1    1    2  503  505 -0.36715144047E+02  0.26799277241E+02  0.37557863858E+02  0.58964363819E+02  0.00000000000E+00 0. -1.
         21    1    1    2  504  502  0.43010183407E+02 -0.87967869531E+02  0.99273560597E+03  0.99755310902E+03  0.00000000000E+00 0.  1.
         21    1    1    2  505  501 -0.64633450662E+02  0.91766552536E+02 -0.31107524339E+03  0.33070589677E+03  0.00000000000E+00 0. -1.
          1    1    1    2  501    0  0.58338411303E+02 -0.30597960245E+02 -0.10795459050E+04  0.10815539590E+04  0.00000000000E+00 0. -1.
<scales pt_clust_3="45.45551" pt_clust_4="61.81987" pt_clust_5="69.19321" pt_clust_6="14000.00000"></scales>
<clustering>
<clus scale="   45.456">  1  3  2 -1</clus>
<clus scale="   61.820">  1  4  2 -1</clus>
<clus scale="   69.193">  1  5  2 -1</clus>
<clus scale="   45.456">  1  3  2 -1</clus>
</clustering>
</event>
<event>
 6    0  0.1631680E+002  0.5815652E+02  0.7546771E-02  0.1405735E+00
         21   -1    0    0  504  502  0.00000000000E+00  0.00000000000E+00  0.19195745832E+03  0.19195745832E+03  0.00000000000E+00 0. -1.
          2   -1    0    0  505    0 -0.00000000000E+00 -0.00000000000E+00 -0.25076416283E+04  0.25076416283E+04  0.00000000000E+00 0. -1.
         21    1    1    2  503  502  0.11217689222E+02 -0.57002634608E+02  0.17980951271E+03  0.18896189501E+03  0.00000000000E+00 0. -1.
         21    1    1    2  504  501 -0.28007603932E+02  0.74850630829E+02 -0.15621969449E+04  0.15642398593E+04  0.00000000000E+00 0. -1.
         21    1    1    2  505  503 -0.29805304262E+02  0.34478325662E+02 -0.97028518849E+02  0.10719908849E+03  0.00000000000E+00 0. -1.
          2    1    1    2  501    0  0.46595218973E+02 -0.52326321882E+02 -0.83626821897E+03  0.83919824383E+03  0.00000000000E+00 0. -1.
<scales pt_clust_3="14000.00000" pt_clust_4="58.15652" pt_clust_5="45.57533" pt_clust_6="54.19584"></scales>
<clustering>
<clus scale="   45.575">  2  5  1 -1</clus>
<clus scale="   54.196">  2  6  1 -1</clus>
<clus scale="   58.157">  2  4  1 -1</clus>
<clus scale="   58.157">  1  3  2 -1</clus>
</clustering>
</event>
<event>
 6    0  0.1631680E+002  0.2358414E+03  0.7546771E-02  0.1122595E+00
          1   -1    0    0  503    0 -0.00000000000E+00  0.00000000000E+00  0.11303732804E+04  0.11303732804E+04  0.00000000000E+00 0.  1.
         21   -1    0    0  504  502  0.00000000000E+00 -0.00000000000E+00 -0.12975133378E+03  0.12975133378E+03  0.00000000000E+00 0.  1.
         21    1    1    2  503  505  0.18531721357E+02 -0.36464976668E+02  0.11827361045E+03  0.12514697819E+03  0.00000000000E+00 0.  1.
         21    1    1    2  504  501 -0.65887117407E+02 -0.29249439270E+02  0.30701839917E+03  0.31536794283E+03  0.00000000000E+00 0.  1.
         21    1    1    2  505  502  0.13618227806E+03  0.18718228563E+03  0.68829494203E+01  0.23158194209E+03  0.00000000000E+00 0.  1.
          1    1    1    2  501    0 -0.88826882009E+02 -0.12146786969E+03  0.56844698755E+03  0.58802775104E+03  0.00000000000E+00 0.  1.
<scales pt_clust_3="40.90378" pt_clust_4="38.11136" pt_clust_5="229.32326" pt_clust_6="38.11136"></scales>
<clustering>
<clus scale="   38.111">  4  6 -1 -1</clus>
<clus scale="   40.904">  1  3  2 -1</clus>
<clus scale="  229.323">  2  5  1 -1</clus>
<clus scale="  229.323">  2  3  1 -1</clus>
</clustering>
</event>
<event>
 6    0  0.1631680E+002  0.1505368E+03  0.7546771E-02  0.1199815E+00
         21   -1    0    0  503  502  0.00000000000E+00  0.00000000000E+00  0.36657291796E+03  0.36657291796E+03  0.00000000000E+00 0.  1.
          2   -1    0    0  505    0 -0.00000000000E+00 -0.00000000000E+00 -0.72394762555E+03  0.72394762555E+03  0.00000000000E+00 0. -1.
         21    1    1    2  503  501 -0.67316398312E+00 -0.19160027158E+03 -0.76873555117E-01  0.19160146953E+03  0.00000000000E+00 0.  1.
         21    1    1    2  504  502 -0.98174133566E+02  0.11301393562E+03  0.23163305758E+03  0.27579735951E+03  0.00000000000E+00 0.  1.
         21    1    1    2  505  504 -0.24868005631E+02  0.26506725638E+02 -0.32492378451E+03  0.32695028666E+03  0.00000000000E+00 0. -1.
          2    1    1    2  501    0  0.12371530318E+03  0.52079610321E+02 -0.26400710711E+03  0.29617142782E+03  0.00000000000E+00 0. -1.
<scales pt_clust_3="14000.00000" pt_clust_4="150.53676" pt_clust_5="36.34590" pt_clust_6="127.61194"></scales>
<clustering>
<clus scale="   36.346">  2  5  1 -1</clus>
<clus scale="  127.612">  2  6  1 -1</clus>
<clus scale="  150.537">  1  4  2 -1</clus>
<clus scale="  150.537">  1  3  2 -1</clus>
</clustering>
</event>
<event>
 6    0  0.1631680E+002  0.1091839E+03  0.7546771E-02  0.1262089E+00
         -3   -1    0    0    0  501 -0.00000000000E+00  0.00000000000E+00  0.12752054843E+04  0.12752054843E+04  0.00000000000E+00 0.  1.
         21   -1    0    0  503  502  0.00000000000E+00 -0.00000000000E+00 -0.37218798966E+03  0.37218798966E+03  0.00000000000E+00 0. -1.
         21    1    1    2  503  504 -0.26146199239E+02 -0.45806919739E+02 -0.28389066046E+03  0.28874868784E+03  0.00000000000E+00 0. -1.
         21    1    1    2  504  505 -0.57771246056E+02 -0.30521511604E+02 -0.61873424014E+02  0.89985555178E+02  0.00000000000E+00 0. -1.
         21    1    1    2  505  501 -0.33132365895E+02 -0.16190681587E+02  0.59119586677E+02  0.69677954684E+02  0.00000000000E+00 0.  1.
         -3    1    1    2    0  502  0.11704981119E+03  0.92519112929E+02  0.11896619924E+04  0.11989812762E+04  0.00000000000E+00 0.  1.
<scales pt_clust_3="52.80487" pt_clust_4="109.18391" pt_clust_5="36.87671" pt_clust_6="14000.00000"></scales>
<clustering>
<clus scale="   36.877">  1  5  2 -1</clus>
<clus scale="   52.805">  2  3  1 -1</clus>
<clus scale="  109.184">  2  4  1 -1</clus>
<clus scale="   52.805">  2  3  1 -1</clus>
</clustering>
</event>
<event>
 6    0  0.1631680E+002  0.2078025E+03  0.7546771E-02  0.1143318E+00
         21   -1    0    0  501  502  0.00000000000E+00  0.00000000000E+00  0.10858320705E+04  0.10858320705E+04  0.00000000000E+00 0.  1.
          1   -1    0    0  505    0 -0.00000000000E+00 -0.00000000000E+00 -0.15355878353E+04  0.15355878353E+04  0.00000000000E+00 0.  1.
         21    1    1    2  503  504 -0.46042863726E+02 -0.30566279454E+02  0.15440689897E+03  0.16399918655E+03  0.00000000000E+00 0.  1.
         21    1    1    2  504  502  0.14242495551E+02 -0.32033595021E+02  0.89715850815E+03  0.89784318710E+03  0.00000000000E+00 0.  1.
         21    1    1    2  505  503 -0.82060583890E+02 -0.15441461608E+03 -0.54571325454E+03  0.57304517210E+03  0.00000000000E+00 0.  1.
          1    1    1    2  501    0  0.11386095207E+03  0.21701449056E+03 -0.95560791744E+03  0.98653236003E+03  0.00000000000E+00 0.  1.
<scales pt_clust_3="66.92690" pt_clust_4="35.05709" pt_clust_5="14000.00000" pt_clust_6="207.80245"></scales>
<clustering>
<clus scale="   35.057">  1  4  2 -1</clus>
<clus scale="   66.927">  1  3  2 -1</clus>
<clus scale="  207.802">  1  6  2 -1</clus>
<clus scale="   35.057">  1  3  2 -1</clus>
</clustering>
</event>
<event>
 6    0  0.1631680E+002  0.2368278E+03  0.7546771E-02  0.1121924E+00
          2   -1    0    0  503    0 -0.00000000000E+00  0.00000000000E+00  0.33123827275E+04  0.33123827275E+04  0.00000000000E+00 0.  1.
         21   -1    0    0  501  502  0.00000000000E+00 -0.00000000000E+00 -0.24399349459E+03  0.24399349459E+03  0.00000000000E+00 0.  1.
         21    1    1    2  503  505 -0.95420199874E+02 -0.19279698614E+02  0.14945128521E+04  0.14976800013E+04  0.00000000000E+00 0. -1.
         21    1    1    2  504  502 -0.34800822883E+02 -0.14380412500E+02 -0.29385262593E+02  0.47763869134E+02  0.00000000000E+00 0.  1.
         21    1    1    2  505  504  0.61179241333E+02 -0.22115811655E+03 -0.12589926471E+03  0.26173352276E+03  0.00000000000E+00 0.  1.
          2    1    1    2  501    0  0.69041781424E+02  0.25481822766E+03  0.17291609081E+04  0.17491988289E+04  0.00000000000E+00 0.  1.
<scales pt_clust_3="97.63339" pt_clust_4="37.65493" pt_clust_5="236.82783" pt_clust_6="14000.00000"></scales>
<clustering>
<clus scale="   37.655">  2  4  1 -1</clus>
<clus scale="   97.633">  1  3  2 -1</clus>
<clus scale="  236.828">  2  5  1 -1</clus>
<clus scale="   37.655">  2  3  1 -1</clus>
</clustering>
</event>
<event>
 6    0  0.1631680E+002  0.2945439E+03  0.7546771E-02  0.1088000E+00
          2   -1    0    0  503    0 -0.00000000000E+00  0.00000000000E+00  0.21420428684E+04  0.21420428684E+04  0.00000000000E+00 0.  1.
         21   -1    0    0  505  502  0.00000000000E+00 -0.00000000000E+00 -0.17323248013E+03  0.17323248013E+03  0.00000000000E+00 0.  1.
         21    1    1    2  503  502 -0.29286249409E+02  0.29234479119E+03  0.86848027368E+03  0.91683212592E+03  0.00000000000E+00 0.  1.
         21    1    1    2  504  501 -0.50844187647E+02 -0.58614386570E+02  0.26834142252E+03  0.27933473964E+03  0.00000000000E+00 0.  1.
         21    1    1    2  505  504  0.51218618908E+02 -0.32595154435E+02 -0.12596934314E+03  0.13983585530E+03  0.00000000000E+00 0.  1.
          2    1    1    2  501    0  0.28911818148E+02 -0.20113525019E+03  0.95795803523E+03  0.97927262769E+03  0.00000000000E+00 0.  1.
<scales pt_clust_3="272.80916" pt_clust_4="66.52919" pt_clust_5="60.71072" pt_clust_6="66.52919"></scales>
<clustering>
<clus scale="   60.711">  2  5  1 -1</clus>
<clus scale="   66.529">  4  6 -1 -1</clus>
<clus scale="  272.809">  2  3  1 -1</clus>
<clus scale="   60.711">  2  3  1 -1</clus>
</clustering>
</event>
<event>
 6    0  0.1631680E+002  0.1175517E+03  0.7546771E-02  0.1247191E+00
         -1   -1    0    0    0  501 -0.00000000000E+00  0.00000000000E+00  0.42643329981E+03  0.42643329981E+03  0.00000000000E+00 0.  1.
         21   -1    0    0  503  502  0.00000000000E+00 -0.00000000000E+00 -0.52477610067E+03  0.52477610067E+03  0.00000000000E+00 0.  1.
         21    1    1    2  503  504  0.30908165142E+02 -0.39350291432E+01 -0.42477683547E+03  0.42591801920E+03  0.00000000000E+00 0.  1.
         21    1    1    2  504  501 -0.12190244477E+02 -0.35610001843E+02  0.52186359362E+02  0.64343534214E+02  0.00000000000E+00 0.  1.
         21    1    1    2  505  502 -0.10085455637E+03  0.97719415152E+02 -0.27288025327E+02  0.14305719823E+03  0.00000000000E+00 0.  1.
         -1    1    1    2    0  505  0.82136635704E+02 -0.58174384166E+02  0.30153570058E+03  0.31789064884E+03  0.00000000000E+00 0.  1.
<scales pt_clust_3="31.15765" pt_clust_4="37.30103" pt_clust_5="14000.00000" pt_clust_6="117.55170"></scales>
<clustering>
<clus scale="   31.158">  2  3  1 -1</clus>
<clus scale="   37.301">  1  4  2 -1</clus>
<clus scale="  117.552">  1  6  2 -1</clus>
<clus scale="   31.158">  2  3  1 -1</clus>
</clustering>
</event>
<event>
 6    0  0.1631680E+002  0.2034950E+03  0.7546771E-02  0.1146823E+00
         21   -1    0    0  505  502  0.00000000000E+00  0.00000000000E+00  0.45335138395E+03  0.45335138395E+03  0.00000000000E+00 0. -1.
         -2   -1    0    0    0  501 -0.00000000000E+00 -0.00000000000E+00 -0.22836491474E+03  0.22836491474E+03  0.00000000000E+00 0. -1.
         21    1    1    2  503  504 -0.63453033364E+02 -0.44886626228E+02  0.14642755496E+03  0.16577733714E+03  0.00000000000E+00 0. -1.
         21    1    1    2  504  502  0.30655965881E+02 -0.76564073282E+02  0.35095495500E+02  0.89630013757E+02  0.00000000000E+00 0. -1.
         21    1    1    2  505  501  0.13823874717E+03  0.15163258739E+03 -0.11375771019E+03  0.23461289266E+03  0.00000000000E+00 0. -1.
         -2    1    1    2    0  503 -0.10544167969E+03 -0.30181887876E+02  0.15722112894E+03  0.19169605514E+03  0.00000000000E+00 0. -1.
<scales pt_clust_3="31.76706" pt_clust_4="82.47330" pt_clust_5="199.96559" pt_clust_6="31.76706"></scales>
<clustering>
<clus scale="   31.767">  3  6 -1 -1</clus>
<clus scale="   82.473">  1  4  2 -1</clus>
<clus scale="  199.966">  2  5  1 -1</clus>
<clus scale="   82.473">  1  3  2 -1</clus>
</clustering>
</event>
<event>
 6    0  0.1631680E+002  0.6272694E+02  0.7546771E-02  0.1386732E+00
         21   -1    0    0  504  502  0.00000000000E+00  0.00000000000E+00  0.35423325564E+03  0.35423325564E+03  0.00000000000E+00 0.  1.
          1   -1    0    0  505    0 -0.00000000000E+00 -0.00000000000E+00 -0.21126143109E+04  0.21126143109E+04  0.00000000000E+00 0. -1.
         21    1    1    2  503  502 -0.14109740685E+02  0.34328966629E+02  0.83996151393E+02  0.91830910814E+02  0.00000000000E+00 0.  1.
         21    1    1    2  504  501  0.76180605880E+02 -0.35941210359E+02  0.25141350668E+03  0.26514902726E+03  0.00000000000E+00 0.  1.
         21    1    1    2  505  503  0.41267296372E+02  0.23215860430E+02 -0.77532652515E+02  0.90847554350E+02  0.00000000000E+00 0. -1.
          1    1    1    2  501    0 -0.10333816157E+03 -0.21603616700E+02 -0.20162580608E+04  0.20190200741E+04  0.00000000000E+00 0. -1.
<scales pt_clust_3="37.11553" pt_clust_4="14000.00000" pt_clust_5="47.47169" pt_clust_6="62.72694"></scales>
<clustering>
<clus scale="   37.116">  1  3  2 -1</clus>
<clus scale="   47.472">  2  5  1 -1</clus>
<clus scale="   62.727">  2  6  1 -1</clus>
<clus scale="   37.116">  1  3  2 -1</clus>
</clustering>
</event>
<event>
 6    0  0.1631680E+002  0.8370484E+02  0.7546771E-02  0.1318855E+00
         21   -1    0    0  503  502  0.00000000000E+00  0.00000000000E+00  0.15272896728E+03  0.15272896728E+03  0.00000000000E+00 0. -1.
          2   -1    0    0  505    0 -0.00000000000E+00 -0.00000000000E+00 -0.23097656882E+03  0.23097656882E+03  0.00000000000E+00 0.  1.
         21    1    1    2  503  501  0.24829439076E+02 -0.62671142597E+02 -0.14620051255E+02  0.68977670720E+02  0.00000000000E+00 0.  1.
         21    1    1    2  504  502 -0.29862206843E+02  0.86287350084E+02  0.87729950692E+02  0.12662465175E+03  0.00000000000E+00 0. -1.
         21    1    1    2  505  504 -0.13172682725E+02  0.33722911701E+02 -0.15234849963E+02  0.39279192929E+02  0.00000000000E+00 0. -1.
          2    1    1    2  501    0  0.18205450492E+02 -0.57339119187E+02 -0.13612265102E+03  0.14882402070E+03  0.00000000000E+00 0.  1.
<scales pt_clust_3="14000.00000" pt_clust_4="83.70484" pt_clust_5="36.20434" pt_clust_6="34.93209"></scales>
<clustering>
<clus scale="   36.204">  2  5  1 -1</clus>
<clus scale="   34.932">  2  6  1 -1</clus>
<clus scale="   83.705">  1  4  2 -1</clus>
<clus scale="   83.705">  1  3  2 -1</clus>
</clustering>
</event>
<event>
 6    0  0.1631680E+002  0.1097243E+03  0.7546771E-02  0.1261081E+00
         21   -1    0    0  505  502  0.00000000000E+00  0.00000000000E+00  0.22871892612E+04  0.22871892612E+04  0.00000000000E+00 0. -1.
          2   -1    0    0  503    0 -0.00000000000E+00 -0.00000000000E+00 -0.73875052289E+03  0.73875052289E+03  0.00000000000E+00 0. -1.
         21    1    1    2  503  504 -0.42753885168E+02  0.18145162831E+02  0.19931488278E+01  0.46487786282E+02  0.00000000000E+00 0. -1.
         21    1    1    2  504  502 -0.48559389414E+02  0.56273080550E+02  0.15806404117E+04  0.15823870529E+04  0.00000000000E+00 0. -1.
         21    1    1    2  505  501  0.68754947469E+02 -0.16188455316E+03  0.66714132943E+03  0.68993579758E+03  0.00000000000E+00 0. -1.
          2    1    1    2  501    0  0.22558327113E+02  0.87466309778E+02 -0.70133615165E+03  0.70712914738E+03  0.00000000000E+00 0. -1.
<scales pt_clust_3="46.44504" pt_clust_4="74.37894" pt_clust_5="14000.00000" pt_clust_6="109.72427"></scales>
<clustering>
<clus scale="   46.445">  2  3  1 -1</clus>
<clus scale="   74.379">  1  4  2 -1</clus>
<clus scale="  109.724">  2  6  1 -1</clus>
<clus scale="   74.379">  1  3  2 -1</clus>
</clustering>
</event>
<event>
 6    0  0.1631680E+002  0.9297342E+02  0.7546771E-02  0.1295807E+00
          2   -1    0    0  505    0 -0.00000000000E+00  0.00000000000E+00  0.16728427299E+03  0.16728427299E+03  0.00000000000E+00 0. -1.
         21   -1    0    0  503  502  0.00000000000E+00 -0.00000000000E+00 -0.10262527803E+04  0.10262527803E+04  0.00000000000E+00 0.  1.
         21    1    1    2  503  501 -0.11706849447E+03 -0.31909095497E+02 -0.80737603910E+03  0.81644307290E+03  0.00000000000E+00 0.  1.
         21    1    1    2  504  502  0.34200054039E+02 -0.58383217832E+01 -0.17918899232E+03  0.18251691611E+03  0.00000000000E+00 0.  1.
         21    1    1    2  505  504 -0.29266765063E+02  0.71081369870E+01  0.19803879143E+02  0.36045287872E+02  0.00000000000E+00 0. -1.
          2    1    1    2  501    0  0.11213520549E+03  0.30639280293E+02  0.10779264500E+03  0.15853177638E+03  0.00000000000E+00 0. -1.
<scales pt_clust_3="92.97342" pt_clust_4="34.33607" pt_clust_5="30.11759" pt_clust_6="14000.00000"></scales>
<clustering>
<clus scale="   30.118">  1  5  2 -1</clus>
<clus scale="   34.336">  2  4  1 -1</clus>
<clus scale="   92.973">  2  3  1 -1</clus>
<clus scale="   34.336">  2  3  1 -1</clus>
</clustering>
</event>
<event>
 6    0  0.1631680E+002  0.1063117E+03  0.7546771E-02  0.1267556E+00
          1   -1    0    0  504    0 -0.00000000000E+00  0.00000000000E+00  0.16984229134E+04  0.16984229134E+04  0.00000000000E+00 0.  1.
         21   -1    0    0  503  502  0.00000000000E+00 -0.00000000000E+00 -0.10132922374E+04  0.10132922374E+04  0.00000000000E+00 0. -1.
         21    1    1    2  503  501  0.11028516903E+03  0.84022700558E+02 -0.91711211885E+03  0.92753289497E+03  0.00000000000E+00 0. -1.
         21    1    1    2  504  505 -0.10921340057E+03  0.19465388063E+02  0.37301122902E+03  0.38915786664E+03  0.00000000000E+00 0. -1.
         21    1    1    2  505  502 -0.81094697014E+02 -0.29610727117E+02 -0.57477025474E+02  0.10371476993E+03  0.00000000000E+00 0.  1.
          1    1    1    2  501    0  0.80022928563E+02 -0.73877361504E+02  0.12867085914E+04  0.12913096193E+04  0.00000000000E+00 0.  1.
<scales pt_clust_3="62.46732" pt_clust_4="106.31174" pt_clust_5="86.33160" pt_clust_6="14000.00000"></scales>
<clustering>
<clus scale="   86.332">  2  5  1 -1</clus>
<clus scale="   62.467">  2  3  1 -1</clus>
<clus scale="  106.312">  2  4  1 -1</clus>
<clus scale="   86.332">  2  3  1 -1</clus>
</clustering>
</event>
<event>
 6    0  0.1631680E+002  0.1117195E+03  0.7546771E-02  0.1257418E+00
         21   -1    0    0  504  502  0.00000000000E+00  0.00000000000E+00  0.46880299322E+03  0.46880299322E+03  0.00000000000E+00 0.  1.
          1   -1    0    0  505    0 -0.00000000000E+00 -0.00000000000E+00 -0.15315673468E+04  0.15315673468E+04  0.00000000000E+00 0.  1.
         21    1    1    2  503  502 -0.47830782199E+01 -0.36736503460E+02  0.21814963216E+03  0.22127293223E+03  0.00000000000E+00 0.  1.
         21    1    1    2  504  501  0.33351500397E+02 -0.17260508546E+02  0.22729115976E+03  0.23037256573E+03  0.00000000000E+00 0.  1.
         21    1    1    2  505  503  0.29317151518E+02 -0.49874302422E+02 -0.28938989605E+02  0.64686988912E+02  0.00000000000E+00 0.  1.
          1    1    1    2  501    0 -0.57885573694E+02  0.10387131443E+03 -0.14792661559E+04  0.14840378532E+04  0.00000000000E+00 0.  1.
<scales pt_clust_3="37.04657" pt_clust_4="58.65541" pt_clust_5="14000.00000" pt_clust_6="111.71955"></scales>
<clustering>
<clus scale="   37.047">  1  3  2 -1</clus>
<clus scale="   58.655">  1  4  2 -1</clus>
<clus scale="  111.720">  2  6  1 -1</clus>
<clus scale="   37.047">  1  3  2 -1</clus>
</clustering>
</event>
<event>
 6    0  0.1631680E+002  0.8291202E+02  0.7546771E-02  0.1320985E+00
          2   -1    0    0  503    0 -0.00000000000E+00  0.00000000000E+00  0.12767203633E+04  0.12767203633E+04  0.00000000000E+00 0. -1.
         21   -1    0    0  505  502  0.00000000000E+00 -0.00000000000E+00 -0.14119055998E+03  0.14119055998E+03  0.00000000000E+00 0.  1.
         21    1    1    2  503  504 -0.91112519575E+01 -0.33664983263E+02  0.35084398255E+03  0.35257317837E+03  0.00000000000E+00 0.  1.
         21    1    1    2  504  502  0.59582900690E+02  0.43304016189E+02 -0.76716013736E+02  0.10635180598E+03  0.00000000000E+00 0.  1.
         21    1    1    2  505  501 -0.12693137983E+03 -0.76470315810E+02  0.75056898899E+02  0.16611087399E+03  0.00000000000E+00 0.  1.
          2    1    1    2  501    0  0.76459731101E+02  0.66831282884E+02  0.78634493560E+03  0.79287506493E+03  0.00000000000E+00 0. -1.
<scales pt_clust_3="34.87615" pt_clust_4="73.22276" pt_clust_5="14000.00000" pt_clust_6="82.91202"></scales>
<clustering>
<clus scale="   34.876">  1  3  2 -1</clus>
<clus scale="   73.223">  2  4  1 -1</clus>
<clus scale="   82.912">  1  6  2 -1</clus>
<clus scale="   73.223">  2  3  1 -1</clus>
</clustering>
</event>
<event>
 6    0  0.2288528E+002  0.9666302E+02  0.7546771E-02  0.1287474E+00
         21   -1    0    0  504  502  0.00000000000E+00  0.00000000000E+00  0.11061034530E+04  0.11061034530E+04  0.00000000000E+00 0. -1.
          1   -1    0    0  505    0 -0.00000000000E+00 -0.00000000000E+00 -0.84225676023E+03  0.84225676023E+03  0.00000000000E+00 0. -1.
         21    1    1    2  503  502 -0.17026765901E+02 -0.34490208246E+02  0.66048016535E+02  0.76431837019E+02  0.00000000000E+00 0. -1.
         21    1    1    2  504  501  0.58519002166E+02 -0.14106994268E+02  0.10148072107E+04  0.10165909482E+04  0.00000000000E+00 0. -1.
         21    1    1    2  505  503 -0.28521002985E+02 -0.57312347397E+02 -0.50769666697E+02  0.81705029416E+02  0.00000000000E+00 0. -1.
          1    1    1    2  501    0 -0.12971233280E+02  0.10590954991E+03 -0.76623886782E+03  0.77363239863E+03  0.00000000000E+00 0. -1.
<scales pt_clust_3="38.46408" pt_clust_4="63.62301" pt_clust_5="14000.00000" pt_clust_6="96.66302"></scales>
<clustering>
<clus scale="   38.464">  1  3  2 -1</clus>
<clus scale="   63.623">  1  4  2 -1</clus>
<clus scale="   96.663">  2  6  1 -1</clus>
<clus scale="   38.464">  1  3  2 -1</clus>
</clustering>
</event>
<event>
 6    0  0.1631680E+002  0.8320811E+02  0.7546771E-02  0.1320186E+00
          2   -1    0    0  503    0 -0.00000000000E+00  0.00000000000E+00  0.14893619494E+04  0.14893619494E+04  0.00000000000E+00 0.  1.
         21   -1    0    0  505  502  0.00000000000E+00 -0.00000000000E+00 -0.47675081511E+02  0.47675081511E+02  0.00000000000E+00 0. -1.
         21    1    1    2  503  504  0.14162879779E+02 -0.49561495623E+02  0.21521556999E+03  0.22130221549E+03  0.00000000000E+00 0.  1.
         21    1    1    2  504  502 -0.53627741336E+02 -0.89162730637E+02  0.65476270140E+02  0.12293522330E+03  0.00000000000E+00 0. -1.
         21    1    1    2  505  501  0.35047215794E+02  0.15655875693E+02  0.16638556278E+02  0.41836053036E+02  0.00000000000E+00 0. -1.
          2    1    1    2  501    0  0.44176457637E+01  0.12306835057E+03  0.11443564714E+04  0.11509635391E+04  0.00000000000E+00 0.  1.
<scales pt_clust_3="51.18115" pt_clust_4="83.20811" pt_clust_5="38.38507" pt_clust_6="14000.00000"></scales>
<clustering>
<clus scale="   38.385">  2  5  1 -1</clus>
<clus scale="   51.181">  1  3  2 -1</clus>
<clus scale="   83.208">  2  4  1 -1</clus>
<clus scale="   38.385">  2  3  1 -1</clus>
</clustering>
</event>
<event>
 6    0  0.1631680E+002  0.1127521E+03  0.7546771E-02  0.1255557E+00
          2   -1    0    0  505    0 -0.00000000000E+00  0.00000000000E+00  0.33045122083E+04  0.33045122083E+04  0.00000000000E+00 0.  1.
         21   -1    0    0  501  502  0.00000000000E+00 -0.00000000000E+00 -0.19711659194E+02  0.19711659194E+02  0.00000000000E+00 0. -1.
         21    1    1    2  503  502 -0.12479151842E+02  0.36618383650E+02  0.15190016833E+03  0.15674915116E+03  0.00000000000E+00 0. -1.
         21    1    1    2  504  503  0.67094792752E+02 -0.10780157552E+03  0.33884951622E+03  0.36185893045E+03  0.00000000000E+00 0. -1.
         21    1    1    2  505  504  0.28197541108E+02 -0.78071956628E+02  0.81404800345E+03  0.81826919999E+03  0.00000000000E+00 0. -1.
          2    1    1    2  501    0 -0.82813182017E+02  0.14925514850E+03  0.19800028611E+04  0.19873465859E+04  0.00000000000E+00 0.  1.
<scales pt_clust_3="38.68637" pt_clust_4="112.75215" pt_clust_5="78.28561" pt_clust_6="14000.00000"></scales>
<clustering>
<clus scale="   38.686">  2  3  1 -1</clus>
<clus scale="   78.286">  1  5  2 -1</clus>
<clus scale="  112.752">  2  4  1 -1</clus>
<clus scale="   38.686">  2  3  1 -1</clus>
</clustering>
</event>
<event>
 6    0  0.1631680E+002  0.1604672E+03  0.7546771E-02  0.1188170E+00
         21   -1    0    0  505  502  0.00000000000E+00  0.00000000000E+00  0.87504109463E+03  0.87504109463E+03  0.00000000000E+00 0. -1.
          3   -1    0    0  503    0 -0.00000000000E+00 -0.00000000000E+00 -0.16620887496E+03  0.16620887496E+03  0.00000000000E+00 0. -1.
         21    1    1    2  503  502  0.45970093776E+02 -0.41661310259E+02 -0.26443565458E+02  0.67440169398E+02  0.00000000000E+00 0.  1.
         21    1    1    2  504  501 -0.14124445742E+03 -0.11824995197E+02  0.17678925248E+03  0.22659273389E+03  0.00000000000E+00 0. -1.
         21    1    1    2  505  504 -0.42273278005E+02 -0.32265154594E+01  0.59297716166E+03  0.59449083650E+03  0.00000000000E+00 0. -1.
          3    1    1    2  501    0  0.13754764165E+03  0.56712820916E+02 -0.34490629005E+02  0.15272622980E+03  0.00000000000E+00 0. -1.
<scales pt_clust_3="59.95697" pt_clust_4="160.46716" pt_clust_5="42.39623" pt_clust_6="14000.00000"></scales>
<clustering>
<clus scale="   42.396">  1  5  2 -1</clus>
<clus scale="   59.957">  2  3  1 -1</clus>
<clus scale="  160.467">  1  4  2 -1</clus>
<clus scale="   42.396">  1  3  2 -1</clus>
</clustering>
</event>
<event>
 6    0  0.1631680E+002  0.1237073E+03  0.7546771E-02  0.1237104E+00
         21   -1    0    0  505  502  0.00000000000E+00  0.00000000000E+00  0.22608113684E+03  0.22608113684E+03  0.00000000000E+00 0. -1.
          2   -1    0    0  504    0 -0.00000000000E+00 -0.00000000000E+00 -0.28380850391E+04  0.28380850391E+04  0.00000000000E+00 0. -1.
         21    1    1    2  503  502 -0.86433553242E+02 -0.94687096607E+02  0.18414018687E+03  0.22437471740E+03  0.00000000000E+00 0. -1.
         21    1    1    2  504  503  0.39097817714E+02  0.34810776937E+01 -0.24413671665E+03  0.24727210451E+03  0.00000000000E+00 0.  1.
         21    1    1    2  505  501 -0.25818599662E+02  0.12394504659E+03 -0.18510611113E+03  0.22426155943E+03  0.00000000000E+00 0. -1.
          2    1    1    2  501    0  0.73154335190E+02 -0.32739027673E+02 -0.23669012613E+04  0.23682577946E+04  0.00000000000E+00 0. -1.
<scales pt_clust_3="14000.00000" pt_clust_4="39.25248" pt_clust_5="123.70728" pt_clust_6="112.80364"></scales>
<clustering>
<clus scale="   39.252">  2  4  1 -1</clus>
<clus scale="  112.804">  2  6  1 -1</clus>
<clus scale="  123.707">  2  5  1 -1</clus>
<clus scale="  123.707">  1  3  2 -1</clus>
</clustering>
</event>
<event>
 6    0  0.1631680E+002  0.8391920E+02  0.7546771E-02  0.1318283E+00
          2   -1    0    0  503    0 -0.00000000000E+00  0.00000000000E+00  0.21777822965E+04  0.21777822965E+04  0.00000000000E+00 0.  1.
         21   -1    0    0  505  502  0.00000000000E+00 -0.00000000000E+00 -0.54540582680E+02  0.54540582680E+02  0.00000000000E+00 0. -1.
         21    1    1    2  503  504 -0.30307266761E+02 -0.33841945706E+01  0.13023421358E+04  0.13026991295E+04  0.00000000000E+00 0.  1.
         21    1    1    2  504  502 -0.93557586263E+02  0.29872812990E+02  0.19568903747E+03  0.21895115046E+03  0.00000000000E+00 0. -1.
         21    1    1    2  505  501  0.46006793190E+02  0.31414224158E+02 -0.19255877336E+02  0.58942915699E+02  0.00000000000E+00 0. -1.
          2    1    1    2  501    0  0.77858059833E+02 -0.57902842577E+02  0.64446641785E+03  0.65172968353E+03  0.00000000000E+00 0.  1.
<scales pt_clust_3="30.49563" pt_clust_4="83.91920" pt_clust_5="55.09911" pt_clust_6="14000.00000"></scales>
<clustering>
<clus scale="   30.496">  1  3  2 -1</clus>
<clus scale="   55.099">  2  5  1 -1</clus>
<clus scale="   83.919">  2  4  1 -1</clus>
<clus scale="   55.099">  2  3  1 -1</clus>
</clustering>
</event>
<event>
 6    0  0.1631680E+002  0.1596966E+03  0.7546771E-02  0.1189040E+00
          3   -1    0    0  504    0 -0.00000000000E+00  0.00000000000E+00  0.90872586210E+03  0.90872586210E+03  0.00000000000E+00 0.  1.
         21   -1    0    0  505  502  0.00000000000E+00 -0.00000000000E+00 -0.35312347507E+03  0.35312347507E+03  0.00000000000E+00 0. -1.
         21    1    1    2  503  501 -0.11164355165E+02 -0.28605394400E+02  0.29335809975E+03  0.29496082130E+03  0.00000000000E+00 0.  1.
         21    1    1    2  504  502  0.29414600510E+02  0.17739891614E+03  0.10522898720E+03  0.20834762758E+03  0.00000000000E+00 0.  1.
         21    1    1    2  505  503 -0.19903445386E+02 -0.33915045451E+02 -0.29221633551E+03  0.29485040984E+03  0.00000000000E+00 0. -1.
          3    1    1    2  501    0  0.16532000420E+01 -0.11487847629E+03  0.44923163559E+03  0.46369047845E+03  0.00000000000E+00 0.  1.
<scales pt_clust_3="30.29622" pt_clust_4="148.55577" pt_clust_5="39.32401" pt_clust_6="30.29622"></scales>
<clustering>
<clus scale="   30.296">  3  6 -1 -1</clus>
<clus scale="   39.324">  2  5  1 -1</clus>
<clus scale="  148.556">  2  4  1 -1</clus>
<clus scale="   39.324">  2  3  1 -1</clus>
</clustering>
</event>
<event>
 6    0  0.1631680E+002  0.6988797E+02  0.7546771E-02  0.1360474E+00
          2   -1    0    0  503    0 -0.00000000000E+00  0.00000000000E+00  0.38590875357E+03  0.38590875357E+03  0.00000000000E+00 0.  1.
         21   -1    0    0  504  502  0.00000000000E+00 -0.00000000000E+00 -0.20054506931E+03  0.20054506931E+03  0.00000000000E+00 0.  1.
         21    1    1    2  503  505  0.40224366882E+01 -0.33564843135E+02  0.50350620215E+02  0.60646217093E+02  0.00000000000E+00 0. -1.
         21    1    1    2  504  501 -0.95189778110E+02 -0.30964036427E+02 -0.57220587717E+02  0.11529987453E+03  0.00000000000E+00 0.  1.
         21    1    1    2  505  502  0.61005249110E+02  0.48784735161E+01 -0.96427255668E+02  0.11420882435E+03  0.00000000000E+00 0.  1.
          2    1    1    2  501    0  0.30162092312E+02  0.59650406046E+02  0.28866090743E+03  0.29629890690E+03  0.00000000000E+00 0.  1.
<scales pt_clust_3="33.80501" pt_clust_4="69.88797" pt_clust_5="14000.00000" pt_clust_6="45.09493"></scales>
<clustering>
<clus scale="   33.805">  1  3  2 -1</clus>
<clus scale="   45.095">  1  6  2 -1</clus>
<clus scale="   69.888">  1  4  2 -1</clus>
<clus scale="   69.888">  2  3  1 -1</clus>
</clustering>
</event>
<event>
 6    0  0.1631680E+002  0.1952582E+03  0.7546771E-02  0.1153802E+00
         21   -1    0    0  504  502  0.00000000000E+00  0.00000000000E+00  0.19043790619E+03  0.19043790619E+03  0.00000000000E+00 0. -1.
          2   -1    0    0  505    0 -0.00000000000E+00 -0.00000000000E+00 -0.57336143662E+03  0.57336143662E+03  0.00000000000E+00 0.  1.
         21    1    1    2  503  502  0.51020234339E+02 -0.12597108855E+00  0.32487987650E+02  0.60485944833E+02  0.00000000000E+00 0. -1.
         21    1    1    2  504  501  0.12647411659E+01 -0.77628763224E+02 -0.14549561229E+02  0.78990595528E+02  0.00000000000E+00 0.  1.
         21    1    1    2  505  503  0.63720971810E+02 -0.76742272276E+02  0.65631834098E+02  0.11940383683E+03  0.00000000000E+00 0. -1.
          2    1    1    2  501    0 -0.11600594732E+03  0.15449700659E+03 -0.46649379095E+03  0.50491896563E+03  0.00000000000E+00 0.  1.
<scales pt_clust_3="43.25878" pt_clust_4="77.63907" pt_clust_5="43.25878" pt_clust_6="185.65344"></scales>
<clustering>
<clus scale="   43.259">  3  5 -1 -1</clus>
<clus scale="   77.639">  1  4  2 -1</clus>
<clus scale="  185.653">  2  6  1 -1</clus>
<clus scale="   77.639">  1  3  2 -1</clus>
</clustering>
</event>
<event>
 6    0  0.1631680E+002  0.1060111E+03  0.7546771E-02  0.1268140E+00
         21   -1    0    0  505  502  0.00000000000E+00  0.00000000000E+00  0.28369836301E+03  0.28369836301E+03  0.00000000000E+00 0.  1.
          2   -1    0    0  504    0 -0.00000000000E+00 -0.00000000000E+00 -0.14500003280E+04  0.14500003280E+04  0.00000000000E+00 0. -1.
         21    1    1    2  503  502  0.18195797572E+02  0.29913495883E+02  0.74966581015E+01  0.35806482205E+02  0.00000000000E+00 0. -1.
         21    1    1    2  504  503 -0.51853813840E+02  0.36270501635E+01 -0.37655306894E+03  0.38012391037E+03  0.00000000000E+00 0. -1.
         21    1    1    2  505  501 -0.76959401092E+02  0.57827758420E+02  0.24628047311E+03  0.26442554812E+03  0.00000000000E+00 0.  1.
          2    1    1    2  501    0  0.11061741736E+03 -0.91368304466E+02 -0.10435260273E+04  0.10533427504E+04  0.00000000000E+00 0. -1.
<scales pt_clust_3="35.01292" pt_clust_4="51.87149" pt_clust_5="14000.00000" pt_clust_6="106.01115"></scales>
<clustering>
<clus scale="   35.013">  1  3  2 -1</clus>
<clus scale="   51.871">  2  4  1 -1</clus>
<clus scale="  106.011">  2  6  1 -1</clus>
<clus scale="   35.013">  1  3  2 -1</clus>
</clustering>
</event>
<event>
 6    0  0.1631680E+002  0.8342086E+02  0.7546771E-02  0.1319615E+00
          2   -1    0    0  504    0 -0.00000000000E+00  0.00000000000E+00  0.71076313459E+02  0.71076313459E+02  0.00000000000E+00 0. -1.
         21   -1    0    0  501  502  0.00000000000E+00 -0.00000000000E+00 -0.34595271398E+03  0.34595271398E+03  0.00000000000E+00 0.  1.
         21    1    1    2  503  502 -0.24555480286E+02  0.42675106687E+02 -0.14993602357E+03  0.15781301438E+03  0.00000000000E+00 0.  1.
         21    1    1    2  504  505  0.46679964883E+02  0.56262711382E+01 -0.13553364983E+02  0.48932277188E+02  0.00000000000E+00 0. -1.
         21    1    1    2  505  503 -0.69733375138E+02  0.20133412291E+02 -0.10368166081E+03  0.12656217716E+03  0.00000000000E+00 0.  1.
          2    1    1    2  501    0  0.47608890541E+02 -0.68434790116E+02 -0.77053511550E+01  0.83721558713E+02  0.00000000000E+00 0. -1.
<scales pt_clust_3="47.98406" pt_clust_4="47.01781" pt_clust_5="83.42086" pt_clust_6="14000.00000"></scales>
<clustering>
<clus scale="   47.018">  1  4  2 -1</clus>
<clus scale="   47.984">  2  3  1 -1</clus>
<clus scale="   83.421">  2  5  1 -1</clus>
<clus scale="   47.984">  2  3  1 -1</clus>
</clustering>
</event>
<event>
 6    0  0.1631680E+002  0.8057511E+02  0.7546771E-02  0.1327427E+00
          2   -1    0    0  505    0 -0.00000000000E+00  0.00000000000E+00  0.17391643900E+04  0.17391643900E+04  0.00000000000E+00 0. -1.
         21   -1    0    0  501  502  0.00000000000E+00 -0.00000000000E+00 -0.26648400919E+03  0.26648400919E+03  0.00000000000E+00 0. -1.
         21    1    1    2  503  502 -0.75477255853E+02 -0.57754595945E+01 -0.10656257670E+03  0.13071248922E+03  0.00000000000E+00 0. -1.
         21    1    1    2  504  503  0.70883426975E+02  0.71589894112E+02 -0.12923185958E+03  0.16386105910E+03  0.00000000000E+00 0. -1.
         21    1    1    2  505  504 -0.28851091321E+02 -0.21619187192E+02  0.48089602233E+03  0.48224553810E+03  0.00000000000E+00 0. -1.
          2    1    1    2  501    0  0.33444920198E+02 -0.44195247326E+02  0.12275787947E+04  0.12288293127E+04  0.00000000000E+00 0. -1.
<scales pt_clust_3="14000.00000" pt_clust_4="80.57511" pt_clust_5="36.05239" pt_clust_6="65.52133"></scales>
<clustering>
<clus scale="   36.052">  1  5  2 -1</clus>
<clus scale="   65.521">  1  6  2 -1</clus>
<clus scale="   80.575">  1  4  2 -1</clus>
<clus scale="   80.575">  2  3  1 -1</clus>
</clustering>
</event>
<event>
 6    0  0.1631680E+002  0.1419035E+03  0.7546771E-02  0.1210790E+00
         21   -1    0    0  501  502  0.00000000000E+00  0.00000000000E+00  0.35102325326E+03  0.35102325326E+03  0.00000000000E+00 0. -1.
          2   -1    0    0  505    0 -0.00000000000E+00 -0.00000000000E+00 -0.51139967536E+03  0.51139967536E+03  0.00000000000E+00 0.  1.
         21    1    1    2  503  504 -0.86756659875E+02 -0.43546769085E+02  0.10374551162E+03  0.14207804303E+03  0.00000000000E+00 0. -1.
         21    1    1    2  504  502 -0.18967041559E+02 -0.57808946589E+02  0.19993964294E+03  0.20899158784E+03  0.00000000000E+00 0. -1.
         21    1    1    2  505  503 -0.29103055872E+02 -0.18262379127E+02 -0.82186826984E+02  0.89079609800E+02  0.00000000000E+00 0.  1.
          2    1    1    2  501    0  0.13482675731E+03  0.11961809480E+03 -0.38187474967E+03  0.42227368794E+03  0.00000000000E+00 0.  1.
<scales pt_clust_3="14000.00000" pt_clust_4="61.12231" pt_clust_5="34.35844" pt_clust_6="141.90351"></scales>
<clustering>
<clus scale="   34.358">  2  5  1 -1</clus>
<clus scale="   61.122">  1  4  2 -1</clus>
<clus scale="  141.904">  2  6  1 -1</clus>
<clus scale="   61.122">  1  3  2 -1</clus>
</clustering>
</event>
<event>
 6    0  0.1631680E+002  0.1403313E+03  0.7546771E-02  0.1212884E+00
         21   -1    0    0  504  502  0.00000000000E+00  0.00000000000E+00  0.41322659357E+02  0.41322659357E+02  0.00000000000E+00 0. -1.
          2   -1    0    0  502    0 -0.00000000000E+00 -0.00000000000E+00 -0.95710115598E+03  0.95710115598E+03  0.00000000000E+00 0.  1.
         21    1    1    2  503  501 -0.51520962431E+01 -0.33161452664E+02 -0.17067276429E+03  0.17394084773E+03  0.00000000000E+00 0.  1.
         21    1    1    2  504  505  0.12449551809E+02  0.48100937657E+02 -0.23952596399E+02  0.55158121959E+02  0.00000000000E+00 0. -1.
         21    1    1    2  505  503  0.82762653529E+02  0.32485413215E+02 -0.78328117059E+02  0.11849157275E+03  0.00000000000E+00 0. -1.
          2    1    1    2  501    0 -0.90060109095E+02 -0.47424898208E+02 -0.64282501888E+03  0.65083327290E+03  0.00000000000E+00 0.  1.
<scales pt_clust_3="30.99741" pt_clust_4="48.06100" pt_clust_5="48.06100" pt_clust_6="135.91802"></scales>
<clustering>
<clus scale="   30.997">  3  6 -1 -1</clus>
<clus scale="   48.061">  4  5 -1 -1</clus>
<clus scale="  135.918">  2  3  1 -1</clus>
<clus scale="  140.331">  1  3  2 -1</clus>
</clustering>
</event>
<event>
 6    0  0.1631680E+002  0.1392015E+03  0.7546771E-02  0.1214407E+00
          1   -1    0    0  504    0 -0.00000000000E+00  0.00000000000E+00  0.54889961013E+03  0.54889961013E+03  0.00000000000E+00 0. -1.
         21   -1    0    0  503  502  0.00000000000E+00 -0.00000000000E+00 -0.52283263045E+03  0.52283263045E+03  0.00000000000E+00 0. -1.
         21    1    1    2  503  501  0.16004804945E+03  0.56814435336E+02  0.65968775195E+02  0.18219532787E+03  0.00000000000E+00 0. -1.
         21    1    1    2  504  505 -0.21372205869E+02  0.22420251316E+02  0.20494167374E+01  0.31042534718E+02  0.00000000000E+00 0.  1.
         21    1    1    2  505  502 -0.38381782117E+02 -0.79207384340E+01 -0.44005854888E+03  0.44180021021E+03  0.00000000000E+00 0. -1.
          1    1    1    2  501    0 -0.10029406147E+03 -0.71313948217E+02  0.39810733664E+03  0.41669416778E+03  0.00000000000E+00 0. -1.
<scales pt_clust_3="139.20150" pt_clust_4="30.97481" pt_clust_5="39.21740" pt_clust_6="14000.00000"></scales>
<clustering>
<clus scale="   30.975">  1  4  2 -1</clus>
<clus scale="   39.217">  2  5  1 -1</clus>
<clus scale="  139.201">  2  3  1 -1</clus>
<clus scale="   39.217">  2  3  1 -1</clus>
</clustering>
</event>
<event>
 6    0  0.1631680E+002  0.8513936E+02  0.7546771E-02  0.1315068E+00
         21   -1    0    0  505  502  0.00000000000E+00  0.00000000000E+00  0.27802649270E+03  0.27802649270E+03  0.00000000000E+00 0.  1.
         -1   -1    0    0    0  501 -0.00000000000E+00 -0.00000000000E+00 -0.64577040097E+03  0.64577040097E+03  0.00000000000E+00 0.  1.
         21    1    1    2  503  504 -0.50682430530E+02 -0.69488938457E+02  0.14584160659E+03  0.16931389649E+03  0.00000000000E+00 0.  1.
         21    1    1    2  504  501 -0.36947228849E+02  0.46119770680E+01 -0.57555686330E+03  0.57675997689E+03  0.00000000000E+00 0.  1.
         21    1    1    2  505  503 -0.19835719325E+02  0.37615724976E+02  0.50863847248E+02  0.66298789458E+02  0.00000000000E+00 0.  1.
         -1    1    1    2    0  502  0.10746537870E+03  0.27261236413E+02  0.11107501186E+02  0.11142423082E+03  0.00000000000E+00 0.  1.
<scales pt_clust_3="14000.00000" pt_clust_4="37.23396" pt_clust_5="45.01559" pt_clust_6="85.13936"></scales>
<clustering>
<clus scale="   37.234">  2  4  1 -1</clus>
<clus scale="   45.016">  1  5  2 -1</clus>
<clus scale="   85.139">  2  6  1 -1</clus>
<clus scale="   45.016">  1  3  2 -1</clus>
</clustering>
</event>
<event>
 6    0  0.1631680E+002  0.9367003E+02  0.7546771E-02  0.1294200E+00
         21   -1    0    0  501  502  0.00000000000E+00  0.00000000000E+00  0.27825760005E+03  0.27825760005E+03  0.00000000000E+00 0. -1.
          1   -1    0    0  504    0 -0.00000000000E+00 -0.00000000000E+00 -0.29321476007E+03  0.29321476007E+03  0.00000000000E+00 0.  1.
         21    1    1    2  503  502 -0.28711923955E+02 -0.87990506468E+01  0.19889426881E+03  0.20114852233E+03  0.00000000000E+00 0. -1.
         21    1    1    2  504  505 -0.74534414977E+02  0.52153753697E+02 -0.18799366057E+03  0.20884685646E+03  0.00000000000E+00 0.  1.
         21    1    1    2  505  503 -0.94774188079E+01 -0.29858826792E+02  0.21992858935E+02  0.38276061041E+02  0.00000000000E+00 0. -1.
          1    1    1    2  501    0  0.11272375774E+03 -0.13495876258E+02 -0.47850627202E+02  0.12320092028E+03  0.00000000000E+00 0.  1.
<scales pt_clust_3="30.02995" pt_clust_4="14000.00000" pt_clust_5="39.07909" pt_clust_6="93.67003"></scales>
<clustering>
<clus scale="   30.030">  1  3  2 -1</clus>
<clus scale="   39.079">  1  5  2 -1</clus>
<clus scale="   93.670">  1  6  2 -1</clus>
<clus scale="   30.030">  1  3  2 -1</clus>
</clustering>
</event>
<event>
 6    0  0.1631680E+002  0.8290898E+02  0.7546771E-02  0.1320993E+00
         21   -1    0    0  501  502  0.00000000000E+00  0.00000000000E+00  0.74742020650E+02  0.74742020650E+02  0.00000000000E+00 0.  1.
          1   -1    0    0  505    0 -0.00000000000E+00 -0.00000000000E+00 -0.16972271947E+04  0.16972271947E+04  0.00000000000E+00 0. -1.
         21    1    1    2  503  504  0.62766651287E+02  0.23355185527E+02 -0.32820780520E+03  0.33497086530E+03  0.00000000000E+00 0.  1.
         21    1    1    2  504  502  0.43310173927E-01  0.81503301848E+02  0.39351738440E+02  0.90506073863E+02  0.00000000000E+00 0.  1.
         21    1    1    2  505  503 -0.11281206588E+02  0.34696864314E+02 -0.30074939446E+03  0.30295434687E+03  0.00000000000E+00 0. -1.
          1    1    1    2  501    0 -0.51528754874E+02 -0.13955535169E+03 -0.10328797129E+04  0.10435379294E+04  0.00000000000E+00 0. -1.
<scales pt_clust_3="67.88882" pt_clust_4="14000.00000" pt_clust_5="36.48476" pt_clust_6="82.90898"></scales>
<clustering>
<clus scale="   36.485">  2  5  1 -1</clus>
<clus scale="   67.889">  2  3  1 -1</clus>
<clus scale="   82.909">  2  6  1 -1</clus>
<clus scale="   82.909">  1  3  2 -1</clus>
</clustering>
</event>
<event>
 6    0  0.1631680E+002  0.1301459E+03  0.7546771E-02  0.1227239E+00
          2   -1    0    0  503    0 -0.00000000000E+00  0.00000000000E+00  0.11647934099E+04  0.11647934099E+04  0.00000000000E+00 0.  1.
         21   -1    0    0  504  502  0.00000000000E+00 -0.00000000000E+00 -0.12403743611E+03  0.12403743611E+03  0.00000000000E+00 0.  1.
         21    1    1    2  503  505  0.23024299626E+02 -0.35291312173E+02  0.17217465974E+03  0.17725605362E+03  0.00000000000E+00 0. -1.
         21    1    1    2  504  501 -0.92768764066E+02 -0.37349788979E+02 -0.81001518216E+02  0.12869458526E+03  0.00000000000E+00 0.  1.
         21    1    1    2  505  502 -0.77047798899E+01 -0.48628608415E+02  0.44294276006E+02  0.66227547716E+02  0.00000000000E+00 0. -1.
          2    1    1    2  501    0  0.77449244329E+02  0.12126970957E+03  0.90528855627E+03  0.91665265942E+03  0.00000000000E+00 0.  1.
<scales pt_clust_3="42.13781" pt_clust_4="130.14588" pt_clust_5="51.00401" pt_clust_6="14000.00000"></scales>
<clustering>
<clus scale="   42.138">  1  3  2 -1</clus>
<clus scale="   51.004">  2  5  1 -1</clus>
<clus scale="  130.146">  2  4  1 -1</clus>
<clus scale="   51.004">  2  3  1 -1</clus>
</clustering>
</event>
<event>
 6    0  0.1631680E+002  0.9213511E+02  0.7546771E-02  0.1297762E+00
         21   -1    0    0  505  502  0.00000000000E+00  0.00000000000E+00  0.48347111581E+02  0.48347111581E+02  0.00000000000E+00 0. -1.
          2   -1    0    0  504    0 -0.00000000000E+00 -0.00000000000E+00 -0.14710091496E+04  0.14710091496E+04  0.00000000000E+00 0. -1.
         21    1    1    2  503  502 -0.16324327421E+02  0.61852823099E+02 -0.75271561572E+02  0.98782910326E+02  0.00000000000E+00 0. -1.
         21    1    1    2  504  503 -0.18137433709E+02  0.69801276687E+02 -0.32713408344E+03  0.33498939279E+03  0.00000000000E+00 0. -1.
         21    1    1    2  505  501  0.33446644458E+02 -0.24372122223E+02  0.15569753872E+02  0.44216463029E+02  0.00000000000E+00 0. -1.
          2    1    1    2  501    0  0.10151166710E+01 -0.10728197756E+03 -0.10358261468E+04  0.10413674950E+04  0.00000000000E+00 0. -1.
<scales pt_clust_3="46.59427" pt_clust_4="92.13511" pt_clust_5="41.38452" pt_clust_6="14000.00000"></scales>
<clustering>
<clus scale="   41.385">  1  5  2 -1</clus>
<clus scale="   46.594">  1  3  2 -1</clus>
<clus scale="   92.135">  1  4  2 -1</clus>
<clus scale="   41.385">  1  3  2 -1</clus>
</clustering>
</event>
<event>
 6    0  0.1631680E+002  0.5939387E+02  0.7546771E-02  0.1400393E+00
          2   -1    0    0  503    0 -0.00000000000E+00  0.00000000000E+00  0.32424818701E+04  0.32424818701E+04  0.00000000000E+00 0. -1.
         21   -1    0    0  505  502  0.00000000000E+00 -0.00000000000E+00 -0.73347616133E+02  0.73347616133E+02  0.00000000000E+00 0. -1.
         21    1    1    2  503  504 -0.33024160808E+02 -0.10270862161E+00  0.14670420532E+04  0.14674137084E+04  0.00000000000E+00 0. -1.
         21    1    1    2  504  502 -0.82364839794E+02  0.34095270926E+02  0.21468538738E+01  0.89168735078E+02  0.00000000000E+00 0. -1.
         21    1    1    2  505  501  0.45225109690E+02  0.10751749861E+02 -0.97753963381E+01  0.47502305682E+02  0.00000000000E+00 0.  1.
          2    1    1    2  501    0  0.70163890912E+02 -0.44744312166E+02  0.17097207432E+04  0.17117447371E+04  0.00000000000E+00 0. -1.
<scales pt_clust_3="33.02432" pt_clust_4="59.39387" pt_clust_5="46.14402" pt_clust_6="14000.00000"></scales>
<clustering>
<clus scale="   33.024">  1  3  2 -1</clus>
<clus scale="   46.144">  2  5  1 -1</clus>
<clus scale="   59.394">  2  4  1 -1</clus>
<clus scale="   46.144">  2  3  1 -1</clus>
</clustering>
</event>
<event>
 6    0  0.1631680E+002  0.6587365E+02  0.7546771E-02  0.1374715E+00
          1   -1    0    0  503    0 -0.00000000000E+00  0.00000000000E+00  0.26043081004E+04  0.26043081004E+04  0.00000000000E+00 0.  1.
         21   -1    0    0  504  502  0.00000000000E+00 -0.00000000000E+00 -0.18613186853E+02  0.18613186853E+02  0.00000000000E+00 0.  1.
         21    1    1    2  503  502 -0.60932305694E+01 -0.63234850196E+02  0.16577472792E+04  0.16589640790E+04  0.00000000000E+00 0.  1.
         21    1    1    2  504  505 -0.98974372084E+01  0.33637965832E+02  0.20527617510E+02  0.40630716081E+02  0.00000000000E+00 0.  1.
         21    1    1    2  505  501 -0.47471283525E+02 -0.37409607396E+02  0.17560526550E+03  0.18571540258E+03  0.00000000000E+00 0.  1.
          1    1    1    2  501    0  0.63461951303E+02  0.67006491760E+02  0.73181475134E+03  0.73761108959E+03  0.00000000000E+00 0.  1.
<scales pt_clust_3="65.87365" pt_clust_4="35.06383" pt_clust_5="56.12887" pt_clust_6="14000.00000"></scales>
<clustering>
<clus scale="   35.064">  2  4  1 -1</clus>
<clus scale="   56.129">  2  5  1 -1</clus>
<clus scale="   65.874">  1  3  2 -1</clus>
<clus scale="   35.064">  2  3  1 -1</clus>
</clustering>
</event>
<event>
 6    0  0.1631680E+002  0.7974567E+02  0.7546771E-02  0.1329775E+00
         21   -1    0    0  503  502  0.00000000000E+00  0.00000000000E+00  0.16842850077E+03  0.16842850077E+03  0.00000000000E+00 0. -1.
          1   -1    0    0  505    0 -0.00000000000E+00 -0.00000000000E+00 -0.13352434146E+04  0.13352434146E+04  0.00000000000E+00 0. -1.
         21    1    1    2  503  501  0.60615074073E+02  0.35558145171E+02  0.13690342431E+03  0.15388670014E+03  0.00000000000E+00 0. -1.
         21    1    1    2  504  502 -0.31367049658E+02 -0.73060046958E+01 -0.11971816018E+02  0.34359771356E+02  0.00000000000E+00 0.  1.
         21    1    1    2  505  504 -0.41884811736E+02  0.53239225347E+02 -0.99733929158E+02  0.12056371425E+03  0.00000000000E+00 0. -1.
          1    1    1    2  501    0  0.12636787322E+02 -0.81491365821E+02 -0.11920125930E+04  0.11948617297E+04  0.00000000000E+00 0. -1.
<scales pt_clust_3="42.76396" pt_clust_4="32.20667" pt_clust_5="14000.00000" pt_clust_6="79.74567"></scales>
<clustering>
<clus scale="   32.207">  1  4  2 -1</clus>
<clus scale="   42.764">  1  3  2 -1</clus>
<clus scale="   79.746">  2  6  1 -1</clus>
<clus scale="   32.207">  1  3  2 -1</clus>
</clustering>
</event>
<event>
 6    0  0.1631680E+002  0.7503755E+02  0.7546771E-02  0.1343755E+00
         21   -1    0    0  503  502  0.00000000000E+00  0.00000000000E+00  0.29212981240E+03  0.29212981240E+03  0.00000000000E+00 0.  1.
         -4   -1    0    0    0  501 -0.00000000000E+00 -0.00000000000E+00 -0.17248481139E+03  0.17248481139E+03  0.00000000000E+00 0. -1.
         21    1    1    2  503  505  0.34074996913E+02  0.54769042552E+01  0.59943275303E+02  0.69168621130E+02  0.00000000000E+00 0.  1.
         21    1    1    2  504  501 -0.23824246814E+02  0.33889311842E+02 -0.12696687440E+03  0.13355398679E+03  0.00000000000E+00 0. -1.
         21    1    1    2  505  504  0.72566513703E+02 -0.56824048750E+02  0.61530434158E+02  0.11081906765E+03  0.00000000000E+00 0.  1.
         -4    1    1    2    0  502 -0.82817263802E+02  0.17457832653E+02  0.12513816595E+03  0.15107294821E+03  0.00000000000E+00 0. -1.
<scales pt_clust_3="34.51234" pt_clust_4="41.20927" pt_clust_5="14000.00000" pt_clust_6="75.03755"></scales>
<clustering>
<clus scale="   34.512">  1  3  2 -1</clus>
<clus scale="   41.209">  2  4  1 -1</clus>
<clus scale="   75.038">  1  6  2 -1</clus>
<clus scale="   34.512">  1  3  2 -1</clus>
</clustering>
</event>
<event>
 6    0  0.1631680E+002  0.1328407E+03  0.7546771E-02  0.1223300E+00
          1   -1    0    0  505    0 -0.00000000000E+00  0.00000000000E+00  0.42534793574E+04  0.42534793574E+04  0.00000000000E+00 0.  1.
         21   -1    0    0  503  502  0.00000000000E+00 -0.00000000000E+00 -0.86603444438E+02  0.86603444438E+02  0.00000000000E+00 0.  1.
         21    1    1    2  503  501  0.10419940181E+03  0.73939895093E+02  0.27993005924E+03  0.30771002826E+03  0.00000000000E+00 0.  1.
         21    1    1    2  504  502 -0.13140695972E+03 -0.33083777372E+02 -0.84198985293E+01  0.13576899528E+03  0.00000000000E+00 0.  1.
         21    1    1    2  505  504  0.19500185501E+02  0.23235955068E+02  0.82064258295E+03  0.82120302958E+03  0.00000000000E+00 0.  1.
          1    1    1    2  501    0  0.77073724053E+01 -0.64092072789E+02  0.30747231693E+04  0.30754007487E+04  0.00000000000E+00 0.  1.
<scales pt_clust_3="132.84074" pt_clust_4="14000.00000" pt_clust_5="30.33425" pt_clust_6="50.06680"></scales>
<clustering>
<clus scale="   30.334">  1  5  2 -1</clus>
<clus scale="   50.067">  1  6  2 -1</clus>
<clus scale="  132.841">  1  3  2 -1</clus>
<clus scale="  132.841">  2  3  1 -1</clus>
</clustering>
</event>
<event>
 6    0  0.1631680E+002  0.7423073E+02  0.7546771E-02  0.1346270E+00
         21   -1    0    0  503  502  0.00000000000E+00  0.00000000000E+00  0.67081861086E+02  0.67081861086E+02  0.00000000000E+00 0. -1.
          2   -1    0    0  505    0 -0.00000000000E+00 -0.00000000000E+00 -0.66006622022E+03  0.66006622022E+03  0.00000000000E+00 0. -1.
         21    1    1    2  503  501  0.81708349158E+02 -0.43983477033E+02 -0.34942293071E+02  0.99155254117E+02  0.00000000000E+00 0. -1.
         21    1    1    2  504  502 -0.68975804455E+02 -0.28798700066E+02 -0.17240079349E+02  0.76708846046E+02  0.00000000000E+00 0. -1.
         21    1    1    2  505  504 -0.43697265527E+02  0.30127182256E+02 -0.31259126967E+03  0.31706529296E+03  0.00000000000E+00 0. -1.
          2    1    1    2  501    0  0.30964720825E+02  0.42654994843E+02 -0.22821071704E+03  0.23421868818E+03  0.00000000000E+00 0. -1.
<scales pt_clust_3="14000.00000" pt_clust_4="74.23073" pt_clust_5="64.91959" pt_clust_6="52.70923"></scales>
<clustering>
<clus scale="   52.709">  2  6  1 -1</clus>
<clus scale="   64.920">  2  5  1 -1</clus>
<clus scale="   74.231">  1  4  2 -1</clus>
<clus scale="   74.231">  1  3  2 -1</clus>
</clustering>
</event>
<event>
 6    0  0.1631680E+002  0.1868468E+03  0.7546771E-02  0.1161336E+00
          2   -1    0    0  504    0 -0.00000000000E+00  0.00000000000E+00  0.51051420298E+03  0.51051420298E+03  0.00000000000E+00 0.  1.
         21   -1    0    0  503  502  0.00000000000E+00 -0.00000000000E+00 -0.35689680652E+03  0.35689680652E+03  0.00000000000E+00 0.  1.
         21    1    1    2  503  501 -0.65801528721E+02 -0.44041137840E+02 -0.17341303435E+03  0.19063458104E+03  0.00000000000E+00 0.  1.
         21    1    1    2  504  505  0.21417478067E+02 -0.11130011359E+03  0.14917725905E+03  0.18735068260E+03  0.00000000000E+00 0. -1.
         21    1    1    2  505  502  0.14302125577E+03 -0.94220133358E+02  0.72132702552E+01  0.17141920662E+03  0.00000000000E+00 0.  1.
          2    1    1    2  501    0 -0.98637205112E+02  0.24956138479E+03  0.17063990152E+03  0.31800653924E+03  0.00000000000E+00 0.  1.
<scales pt_clust_3="79.17994" pt_clust_4="116.97646" pt_clust_5="186.84680" pt_clust_6="14000.00000"></scales>
<clustering>
<clus scale="   79.180">  2  3  1 -1</clus>
<clus scale="  116.976">  1  4  2 -1</clus>
<clus scale="  186.847">  2  5  1 -1</clus>
<clus scale="   79.180">  2  3  1 -1</clus>
</clustering>
</event>
<event>
 6    0  0.1631680E+002  0.7614776E+02  0.7546771E-02  0.1340353E+00
         21   -1    0    0  504  502  0.00000000000E+00  0.00000000000E+00  0.28534736501E+03  0.28534736501E+03  0.00000000000E+00 0. -1.
          2   -1    0    0  505    0 -0.00000000000E+00 -0.00000000000E+00 -0.16809681318E+03  0.16809681318E+03  0.00000000000E+00 0.  1.
         21    1    1    2  503  502  0.27457788388E+02  0.50571649258E+02  0.50864526625E+02  0.76802486422E+02  0.00000000000E+00 0. -1.
         21    1    1    2  504  501 -0.75744412552E+02  0.51891782205E+01  0.17490577659E+03  0.19067295111E+03  0.00000000000E+00 0. -1.
         21    1    1    2  505  503 -0.35286310109E+02  0.12650419656E+02 -0.77964678672E+01  0.38287618231E+02  0.00000000000E+00 0.  1.
          2    1    1    2  501    0  0.83572934273E+02 -0.68411247135E+02 -0.10072328351E+03  0.14768112242E+03  0.00000000000E+00 0.  1.
<scales pt_clust_3="57.12968" pt_clust_4="76.14776" pt_clust_5="37.48542" pt_clust_6="14000.00000"></scales>
<clustering>
<clus scale="   37.485">  2  5  1 -1</clus>
<clus scale="   57.130">  1  3  2 -1</clus>
<clus scale="   76.148">  1  4  2 -1</clus>
<clus scale="   57.130">  1  3  2 -1</clus>
</clustering>
</event>
<event>
 6    0  0.1631680E+002  0.9235213E+02  0.7546771E-02  0.1297254E+00
         -1   -1    0    0    0  501 -0.00000000000E+00  0.00000000000E+00  0.58767060937E+03  0.58767060937E+03  0.00000000000E+00 0. -1.
         21   -1    0    0  503  502  0.00000000000E+00 -0.00000000000E+00 -0.18558678622E+03  0.18558678622E+03  0.00000000000E+00 0.  1.
         21    1    1    2  503  504 -0.31230590536E+02  0.19961290639E+02 -0.34357775552E+02  0.50539683914E+02  0.00000000000E+00 0. -1.
         21    1    1    2  504  501 -0.28785626572E+02  0.31153252342E+02  0.15882213844E+02  0.45292186359E+02  0.00000000000E+00 0.  1.
         21    1    1    2  505  502  0.10997910417E+03  0.26920965128E+02 -0.98552297824E+02  0.15010895085E+03  0.00000000000E+00 0.  1.
         -1    1    1    2    0  505 -0.49962887066E+02 -0.78035508109E+02  0.51911168268E+03  0.52731657447E+03  0.00000000000E+00 0. -1.
<scales pt_clust_3="37.06485" pt_clust_4="46.10986" pt_clust_5="14000.00000" pt_clust_6="92.35213"></scales>
<clustering>
<clus scale="   37.065">  2  3  1 -1</clus>
<clus scale="   46.110">  2  4  1 -1</clus>
<clus scale="   92.352">  1  6  2 -1</clus>
<clus scale="   37.065">  2  3  1 -1</clus>
</clustering>
</event>
<event>
 6    0  0.2580401E+002  0.1224473E+03  0.7546771E-02  0.1239113E+00
          2   -1    0    0  505    0 -0.00000000000E+00  0.00000000000E+00  0.33962068496E+04  0.33962068496E+04  0.00000000000E+00 0.  1.
         21   -1    0    0  503  502  0.00000000000E+00 -0.00000000000E+00 -0.42237273578E+03  0.42237273578E+03  0.00000000000E+00 0.  1.
         21    1    1    2  503  501  0.33181928423E+02  0.20374589152E+02 -0.25023649745E+02  0.46285497767E+02  0.00000000000E+00 0. -1.
         21    1    1    2  504  502  0.66414026318E+02  0.52463102488E+02 -0.37343524052E+03  0.38290609669E+03  0.00000000000E+00 0.  1.
         21    1    1    2  505  504 -0.49724814363E+02  0.45007588729E+02  0.14722212371E+03  0.16177946074E+03  0.00000000000E+00 0. -1.
          2    1    1    2  501    0 -0.49871140378E+02 -0.11784528037E+03  0.32250708804E+04  0.32276085302E+04  0.00000000000E+00 0.  1.
<scales pt_clust_3="38.93795" pt_clust_4="14000.00000" pt_clust_5="66.86693" pt_clust_6="122.44732"></scales>
<clustering>
<clus scale="   38.938">  2  3  1 -1</clus>
<clus scale="   66.867">  1  5  2 -1</clus>
<clus scale="  122.447">  1  6  2 -1</clus>
<clus scale="   38.938">  2  3  1 -1</clus>
</clustering>
</event>
<event>
 6    0  0.1631680E+002  0.1476504E+03  0.7546771E-02  0.1203390E+00
          1   -1    0    0  505    0 -0.00000000000E+00  0.00000000000E+00  0.37867805723E+04  0.37867805723E+04  0.00000000000E+00 0.  1.
         21   -1    0    0  504  502  0.00000000000E+00 -0.00000000000E+00 -0.23334937017E+03  0.23334937017E+03  0.00000000000E+00 0. -1.
         21    1    1    2  503  502 -0.63562968297E+01 -0.35552606344E+02 -0.46080260731E+00  0.36119283856E+02  0.00000000000E+00 0.  1.
         21    1    1    2  504  501  0.14656699554E+03 -0.73653403376E+01 -0.18331671234E+03  0.23482152679E+03  0.00000000000E+00 0. -1.
         21    1    1    2  505  503  0.35247858469E+02 -0.16883182910E+02  0.22674636252E+04  0.22678004200E+04  0.00000000000E+00 0. -1.
          1    1    1    2  501    0 -0.17545855718E+03  0.59801129591E+02  0.14697450918E+04  0.14813887118E+04  0.00000000000E+00 0.  1.
<scales pt_clust_3="36.11634" pt_clust_4="147.65042" pt_clust_5="39.09019" pt_clust_6="14000.00000"></scales>
<clustering>
<clus scale="   36.116">  2  3  1 -1</clus>
<clus scale="   39.090">  1  5  2 -1</clus>
<clus scale="  147.650">  2  4  1 -1</clus>
<clus scale="   36.116">  2  3  1 -1</clus>
</clustering>
</event>
<event>
 6    0  0.1631680E+002  0.1038998E+03  0.7546771E-02  0.1272303E+00
         21   -1    0    0  503  502  0.00000000000E+00  0.00000000000E+00  0.15019115296E+04  0.15019115296E+04  0.00000000000E+00 0. -1.
          4   -1    0    0  504    0 -0.00000000000E+00 -0.00000000000E+00 -0.16490422944E+03  0.16490422944E+03  0.00000000000E+00 0.  1.
         21    1    1    2  503  505 -0.30099087200E+02 -0.40563790955E+02  0.11324430467E+04  0.11335689790E+04  0.00000000000E+00 0. -1.
         21    1    1    2  504  502 -0.31236058251E+02  0.70923002090E+01 -0.24306503529E+02  0.40209428884E+02  0.00000000000E+00 0. -1.
         21    1    1    2  505  501 -0.73794314477E+02  0.51140464220E+02  0.31784628264E+03  0.33028352565E+03  0.00000000000E+00 0. -1.
          4    1    1    2  501    0  0.13512945993E+03 -0.17668973473E+02 -0.88975525612E+02  0.16275382552E+03  0.00000000000E+00 0.  1.
<scales pt_clust_3="50.56613" pt_clust_4="32.03111" pt_clust_5="14000.00000" pt_clust_6="103.89977"></scales>
<clustering>
<clus scale="   32.031">  2  4  1 -1</clus>
<clus scale="   50.566">  1  3  2 -1</clus>
<clus scale="  103.900">  2  6  1 -1</clus>
<clus scale="   50.566">  1  3  2 -1</clus>
</clustering>
</event>
<event>
 6    0  0.1631680E+002  0.6981386E+02  0.7546771E-02  0.1360727E+00
          1   -1    0    0  503    0 -0.00000000000E+00  0.00000000000E+00  0.17843651557E+03  0.17843651557E+03  0.00000000000E+00 0. -1.
         21   -1    0    0  504  502  0.00000000000E+00 -0.00000000000E+00 -0.29043556754E+03  0.29043556754E+03  0.00000000000E+00 0. -1.
         21    1    1    2  503  505 -0.73373965461E+02  0.29531958127E+00  0.75725772463E+02  0.10544296390E+03  0.00000000000E+00 0. -1.
         21    1    1    2  504  501  0.27835947925E+02 -0.86334294649E+02 -0.19414940408E+03  0.21429522051E+03  0.00000000000E+00 0. -1.
         21    1    1    2  505  502 -0.10160588474E+02  0.31033217502E+02 -0.44906514046E+02  0.55523807060E+02  0.00000000000E+00 0.  1.
          1    1    1    2  501    0  0.55698606009E+02  0.55005757565E+02  0.51331093696E+02  0.93610091639E+02  0.00000000000E+00 0. -1.
<scales pt_clust_3="69.81386" pt_clust_4="62.95037" pt_clust_5="32.65422" pt_clust_6="14000.00000"></scales>
<clustering>
<clus scale="   32.654">  2  5  1 -1</clus>
<clus scale="   62.950">  2  4  1 -1</clus>
<clus scale="   69.814">  1  3  2 -1</clus>
<clus scale="   32.654">  2  3  1 -1</clus>
</clustering>
</event>
<event>
 6    0  0.1631680E+002  0.1035495E+03  0.7546771E-02  0.1273004E+00
          1   -1    0    0  505    0 -0.00000000000E+00  0.00000000000E+00  0.23979879678E+04  0.23979879678E+04  0.00000000000E+00 0. -1.
         21   -1    0    0  504  502  0.00000000000E+00 -0.00000000000E+00 -0.14509403603E+03  0.14509403603E+03  0.00000000000E+00 0.  1.
         21    1    1    2  503  502 -0.54397872184E+02 -0.83679335682E+01 -0.26956664310E+02  0.61284684556E+02  0.00000000000E+00 0.  1.
         21    1    1    2  504  501 -0.32904510056E+02 -0.49933838945E+02 -0.88876891234E+02  0.10712234524E+03  0.00000000000E+00 0.  1.
         21    1    1    2  505  503 -0.20362731737E+02  0.28898236039E+02  0.20164724028E+03  0.20472263774E+03  0.00000000000E+00 0. -1.
          1    1    1    2  501    0  0.10766511398E+03  0.29403536474E+02  0.21670802470E+04  0.21699523363E+04  0.00000000000E+00 0. -1.
<scales pt_clust_3="55.16131" pt_clust_4="14000.00000" pt_clust_5="35.35179" pt_clust_6="103.54948"></scales>
<clustering>
<clus scale="   35.352">  1  5  2 -1</clus>
<clus scale="   55.161">  2  3  1 -1</clus>
<clus scale="  103.549">  1  6  2 -1</clus>
<clus scale="   55.161">  2  3  1 -1</clus>
</clustering>
</event>
<event>
 6    0  0.1631680E+002  0.1215733E+03  0.7546771E-02  0.1240524E+00
         21   -1    0    0  503  502  0.00000000000E+00  0.00000000000E+00  0.59458341769E+03  0.59458341769E+03  0.00000000000E+00 0.  1.
         -1   -1    0    0    0  501 -0.00000000000E+00 -0.00000000000E+00 -0.30010030935E+03  0.30010030935E+03  0.00000000000E+00 0. -1.
         21    1    1    2  503  505  0.10988999239E+03  0.31848517538E+02  0.43035400756E+03  0.44530294219E+03  0.00000000000E+00 0.  1.
         21    1    1    2  504  502  0.98857283998E+01 -0.33968211045E+02  0.69766071868E+02  0.78223217599E+02  0.00000000000E+00 0. -1.
         21    1    1    2  505  501  0.66127580859E+02 -0.67120901987E+02 -0.13862617113E+02  0.95237831701E+02  0.00000000000E+00 0.  1.
         -1    1    1    2    0  504 -0.18590330165E+03  0.69240595494E+02 -0.19177435397E+03  0.27591973556E+03  0.00000000000E+00 0. -1.
<scales pt_clust_3="121.57334" pt_clust_4="35.37749" pt_clust_5="96.66589" pt_clust_6="14000.00000"></scales>
<clustering>
<clus scale="   35.377">  1  4  2 -1</clus>
<clus scale="   96.666">  2  5  1 -1</clus>
<clus scale="  121.573">  1  3  2 -1</clus>
<clus scale="   35.377">  1  3  2 -1</clus>
</clustering>
</event>
<event>
 6    0  0.1631680E+002  0.7925651E+02  0.7546771E-02  0.1331175E+00
          2   -1    0    0  505    0 -0.00000000000E+00  0.00000000000E+00  0.27482609968E+03  0.27482609968E+03  0.00000000000E+00 0. -1.
         21   -1    0    0  504  502  0.00000000000E+00 -0.00000000000E+00 -0.12325954323E+04  0.12325954323E+04  0.00000000000E+00 0. -1.
         21    1    1    2  503  502  0.11332530630E+02  0.77962212620E+02 -0.11843413782E+04  0.11869587327E+04  0.00000000000E+00 0. -1.
         21    1    1    2  504  501  0.46238073929E+01 -0.10672127695E+03  0.30678138881E+02  0.11113936636E+03  0.00000000000E+00 0.  1.
         21    1    1    2  505  503  0.17823034938E+02  0.35051208362E+02  0.99477257098E+02  0.10696715600E+03  0.00000000000E+00 0.  1.
          2    1    1    2  501    0 -0.33779372960E+02 -0.62921440279E+01  0.96416649615E+02  0.10235627698E+03  0.00000000000E+00 0. -1.
<scales pt_clust_3="79.25651" pt_clust_4="14000.00000" pt_clust_5="31.41620" pt_clust_6="34.36040"></scales>
<clustering>
<clus scale="   34.360">  1  6  2 -1</clus>
<clus scale="   31.416">  1  5  2 -1</clus>
<clus scale="   79.257">  2  3  1 -1</clus>
<clus scale="   79.257">  2  3  1 -1</clus>
</clustering>
</event>
<event>
 6    0  0.1631680E+002  0.9865361E+02  0.7546771E-02  0.1283153E+00
          1   -1    0    0  505    0 -0.00000000000E+00  0.00000000000E+00  0.97542875320E+03  0.97542875320E+03  0.00000000000E+00 0. -1.
         21   -1    0    0  501  502  0.00000000000E+00 -0.00000000000E+00 -0.32885366679E+03  0.32885366679E+03  0.00000000000E+00 0. -1.
         21    1    1    2  503  502  0.21405988845E+02  0.33283587179E+02 -0.28317238871E+03  0.28592414250E+03  0.00000000000E+00 0. -1.
         21    1    1    2  504  503 -0.65788660523E+02  0.58081328756E+02  0.28488641969E+02  0.92266956841E+02  0.00000000000E+00 0. -1.
         21    1    1    2  505  504  0.13835249027E+02  0.35894553287E+02  0.42126964500E+02  0.57048349751E+02  0.00000000000E+00 0. -1.
          1    1    1    2  501    0  0.30547422650E+02 -0.12725946922E+03  0.85913186866E+03  0.86904297090E+03  0.00000000000E+00 0. -1.
<scales pt_clust_3="39.62888" pt_clust_4="14000.00000" pt_clust_5="38.46860" pt_clust_6="98.65361"></scales>
<clustering>
<clus scale="   38.469">  1  5  2 -1</clus>
<clus scale="   39.629">  2  3  1 -1</clus>
<clus scale="   98.654">  1  6  2 -1</clus>
<clus scale="   39.629">  2  3  1 -1</clus>
</clustering>
</event>
<event>
 6    0  0.1631680E+002  0.2484048E+03  0.7546771E-02  0.1114317E+00
         21   -1    0    0  505  502  0.00000000000E+00  0.00000000000E+00  0.11642798721E+03  0.11642798721E+03  0.00000000000E+00 0.  1.
          2   -1    0    0  503    0 -0.00000000000E+00 -0.00000000000E+00 -0.97165744587E+03  0.97165744587E+03  0.00000000000E+00 0. -1.
         21    1    1    2  503  504  0.10195097381E+03  0.18178022944E+03 -0.32210944051E+03  0.38365680568E+03  0.00000000000E+00 0.  1.
         21    1    1    2  504  502  0.58776710154E+02  0.64694623734E+02 -0.49715610000E+02  0.10055713736E+03  0.00000000000E+00 0.  1.
         21    1    1    2  505  501 -0.14561563374E+03 -0.42198695459E+02 -0.15495607693E+03  0.21678567404E+03  0.00000000000E+00 0.  1.
          2    1    1    2  501    0 -0.15112050226E+02 -0.20427615772E+03 -0.32844833122E+03  0.38708581600E+03  0.00000000000E+00 0. -1.
<scales pt_clust_3="63.53760" pt_clust_4="63.53760" pt_clust_5="151.60687" pt_clust_6="228.20801"></scales>
<clustering>
<clus scale="   63.538">  3  4 -1 -1</clus>
<clus scale="  151.607">  1  5  2 -1</clus>
<clus scale="  228.208">  2  6  1 -1</clus>
<clus scale="  151.607">  1  3  2 -1</clus>
</clustering>
</event>
<event>
 6    0  0.1631680E+002  0.1120239E+03  0.7546771E-02  0.1256867E+00
         21   -1    0    0  503  502  0.00000000000E+00  0.00000000000E+00  0.33170482483E+03  0.33170482483E+03  0.00000000000E+00 0.  1.
          2   -1    0    0  505    0 -0.00000000000E+00 -0.00000000000E+00 -0.40851172764E+04  0.40851172764E+04  0.00000000000E+00 0. -1.
         21    1    1    2  503  504  0.88835684290E+02  0.24678898066E+02  0.29251582750E+03  0.30670235759E+03  0.00000000000E+00 0.  1.
         21    1    1    2  504  501 -0.33312343145E+02 -0.65737489413E+02 -0.71243474320E+03  0.71623626901E+03  0.00000000000E+00 0. -1.
         21    1    1    2  505  502 -0.83627297442E+01  0.57024632302E+02  0.23364696214E+01  0.57681912488E+02  0.00000000000E+00 0.  1.
          2    1    1    2  501    0 -0.47160611401E+02 -0.15966040955E+02 -0.33358300055E+04  0.33362015622E+04  0.00000000000E+00 0. -1.
<scales pt_clust_3="112.02395" pt_clust_4="14000.00000" pt_clust_5="57.33235" pt_clust_6="49.78994"></scales>
<clustering>
<clus scale="   49.790">  2  6  1 -1</clus>
<clus scale="   57.332">  1  5  2 -1</clus>
<clus scale="  112.024">  1  3  2 -1</clus>
<clus scale="   57.332">  1  3  2 -1</clus>
</clustering>
</event>
<event>
 6    0  0.1631680E+002  0.8967839E+02  0.7546771E-02  0.1303632E+00
         21   -1    0    0  503  502  0.00000000000E+00  0.00000000000E+00  0.16173971149E+03  0.16173971149E+03  0.00000000000E+00 0.  1.
          2   -1    0    0  505    0 -0.00000000000E+00 -0.00000000000E+00 -0.81069396408E+03  0.81069396408E+03  0.00000000000E+00 0. -1.
         21    1    1    2  503  501 -0.10365290974E+03 -0.70506810238E+02 -0.15580794441E+03  0.19997812763E+03  0.00000000000E+00 0. -1.
         21    1    1    2  504  502  0.27262871197E+01  0.90655080870E+02  0.11302213830E+03  0.14491300864E+03  0.00000000000E+00 0.  1.
         21    1    1    2  505  504  0.74227831324E+02  0.35919115454E+02 -0.19511880257E+03  0.21182847050E+03  0.00000000000E+00 0. -1.
          2    1    1    2  501    0  0.26698791298E+02 -0.56067386086E+02 -0.41104964390E+03  0.41571406879E+03  0.00000000000E+00 0. -1.
<scales pt_clust_3="89.67839" pt_clust_4="14000.00000" pt_clust_5="88.19580" pt_clust_6="62.09974"></scales>
<clustering>
<clus scale="   62.100">  2  6  1 -1</clus>
<clus scale="   88.196">  2  5  1 -1</clus>
<clus scale="   89.678">  2  3  1 -1</clus>
<clus scale="   89.678">  1  3  2 -1</clus>
</clustering>
</event>
<event>
 6    0  0.1426607E+003  0.8811312E+02  0.7546771E-02  0.1307486E+00
         21   -1    0    0  503  502  0.00000000000E+00  0.00000000000E+00  0.11120691909E+04  0.11120691909E+04  0.00000000000E+00 0.  1.
          2   -1    0    0  505    0 -0.00000000000E+00 -0.00000000000E+00 -0.26478528769E+04  0.26478528769E+04  0.00000000000E+00 0. -1.
         21    1    1    2  503  501 -0.58483711178E+02  0.29662760885E+02  0.77364519240E+03  0.77641941474E+03  0.00000000000E+00 0.  1.
         21    1    1    2  504  502 -0.29426945256E+02 -0.39009684293E+02  0.32702653153E+03  0.33065700189E+03  0.00000000000E+00 0. -1.
         21    1    1    2  505  504 -0.29964141297E+02  0.14463722058E+02 -0.33492567476E+02  0.47210179999E+02  0.00000000000E+00 0.  1.
          2    1    1    2  501    0  0.11787479773E+03 -0.51167986494E+01 -0.26029628424E+04  0.26056354711E+04  0.00000000000E+00 0. -1.
<scales pt_clust_3="14000.00000" pt_clust_4="48.86863" pt_clust_5="33.27235" pt_clust_6="88.11312"></scales>
<clustering>
<clus scale="   33.272">  2  5  1 -1</clus>
<clus scale="   48.869">  1  4  2 -1</clus>
<clus scale="   88.113">  2  6  1 -1</clus>
<clus scale="   48.869">  1  3  2 -1</clus>
</clustering>
</event>
<event>
 6    0  0.1631680E+002  0.1221146E+03  0.7546771E-02  0.1239649E+00
          2   -1    0    0  505    0 -0.00000000000E+00  0.00000000000E+00  0.48754642786E+03  0.48754642786E+03  0.00000000000E+00 0. -1.
         21   -1    0    0  503  502  0.00000000000E+00 -0.00000000000E+00 -0.11387672537E+03  0.11387672537E+03  0.00000000000E+00 0.  1.
         21    1    1    2  503  501 -0.63801135479E+02 -0.11612000044E+03  0.17017207912E+02  0.13358152849E+03  0.00000000000E+00 0.  1.
         21    1    1    2  504  502  0.42143677730E+02 -0.14785644067E+02 -0.37103631820E+01  0.44815975255E+02  0.00000000000E+00 0. -1.
         21    1    1    2  505  504  0.86266713057E+02  0.18444100426E+02  0.10946699701E+03  0.14058859860E+03  0.00000000000E+00 0. -1.
          2    1    1    2  501    0 -0.64609255308E+02  0.11246154408E+03  0.25089586075E+03  0.28243705088E+03  0.00000000000E+00 0. -1.
<scales pt_clust_3="122.11461" pt_clust_4="44.66212" pt_clust_5="94.92187" pt_clust_6="14000.00000"></scales>
<clustering>
<clus scale="   44.662">  2  4  1 -1</clus>
<clus scale="   94.922">  1  5  2 -1</clus>
<clus scale="  122.115">  2  3  1 -1</clus>
<clus scale="   44.662">  2  3  1 -1</clus>
</clustering>
</event>
<event>
 6    0  0.1631680E+002  0.1057773E+03  0.7546771E-02  0.1268596E+00
          2   -1    0    0  503    0 -0.00000000000E+00  0.00000000000E+00  0.53402058718E+03  0.53402058718E+03  0.00000000000E+00 0.  1.
         21   -1    0    0  501  502  0.00000000000E+00 -0.00000000000E+00 -0.11723026227E+03  0.11723026227E+03  0.00000000000E+00 0.  1.
         21    1    1    2  503  505  0.10026582553E+02  0.29392349319E+02  0.33819982266E+02  0.45915506712E+02  0.00000000000E+00 0.  1.
         21    1    1    2  504  502  0.22292091318E+02 -0.48071067260E+02 -0.15841060807E+02  0.55305551714E+02  0.00000000000E+00 0.  1.
         21    1    1    2  505  504 -0.65554822344E+02  0.13138313655E+03  0.13788180889E+02  0.14747568353E+03  0.00000000000E+00 0.  1.
          2    1    1    2  501    0  0.33236148473E+02 -0.11270441861E+03  0.38502322257E+03  0.40255410749E+03  0.00000000000E+00 0.  1.
<scales pt_clust_3="31.05548" pt_clust_4="52.09907" pt_clust_5="14000.00000" pt_clust_6="105.77734"></scales>
<clustering>
<clus scale="   31.055">  1  3  2 -1</clus>
<clus scale="   52.099">  2  4  1 -1</clus>
<clus scale="  105.777">  1  6  2 -1</clus>
<clus scale="   52.099">  2  3  1 -1</clus>
</clustering>
</event>
<event>
 6    0  0.1631680E+002  0.9489023E+02  0.7546771E-02  0.1291424E+00
          1   -1    0    0  504    0 -0.00000000000E+00  0.00000000000E+00  0.84221171148E+03  0.84221171148E+03  0.00000000000E+00 0. -1.
         21   -1    0    0  505  502  0.00000000000E+00 -0.00000000000E+00 -0.20455159967E+03  0.20455159967E+03  0.00000000000E+00 0.  1.
         21    1    1    2  503  502 -0.53578089505E+02  0.15618033437E+02  0.25561503486E+03  0.26163635200E+03  0.00000000000E+00 0. -1.
         21    1    1    2  504  503  0.24387369851E+02 -0.44218506495E+02  0.16636690909E+03  0.17386192385E+03  0.00000000000E+00 0.  1.
         21    1    1    2  505  501 -0.92900450186E+02 -0.13967997268E+02 -0.17561416573E+03  0.19916308342E+03  0.00000000000E+00 0.  1.
          1    1    1    2  501    0  0.12209116984E+03  0.42568470326E+02  0.39129233359E+03  0.41210195189E+03  0.00000000000E+00 0. -1.
<scales pt_clust_3="44.21582" pt_clust_4="50.49772" pt_clust_5="14000.00000" pt_clust_6="94.89023"></scales>
<clustering>
<clus scale="   50.498">  1  4  2 -1</clus>
<clus scale="   44.216">  1  3  2 -1</clus>
<clus scale="   94.890">  1  6  2 -1</clus>
<clus scale="   94.890">  2  3  1 -1</clus>
</clustering>
</event>
<event>
 6    0  0.1631680E+002  0.9306152E+02  0.7546771E-02  0.1295603E+00
         21   -1    0    0  501  502  0.00000000000E+00  0.00000000000E+00  0.87275869919E+02  0.87275869919E+02  0.00000000000E+00 0. -1.
          2   -1    0    0  503    0 -0.00000000000E+00 -0.00000000000E+00 -0.52765139474E+03  0.52765139474E+03  0.00000000000E+00 0. -1.
         21    1    1    2  503  505  0.40500614756E+02  0.12051202857E+02 -0.11180043494E+03  0.11951932287E+03  0.00000000000E+00 0. -1.
         21    1    1    2  504  502 -0.83063754560E+02  0.29146611067E+01 -0.17154140896E+02  0.84866643158E+02  0.00000000000E+00 0. -1.
         21    1    1    2  505  504  0.10396963965E+03  0.48813667155E+02 -0.34675277950E+02  0.11997847711E+03  0.00000000000E+00 0. -1.
          2    1    1    2  501    0 -0.61406499843E+02 -0.63779531119E+02 -0.27674567103E+03  0.29056282152E+03  0.00000000000E+00 0. -1.
<scales pt_clust_3="42.25555" pt_clust_4="93.06152" pt_clust_5="14000.00000" pt_clust_6="64.82295"></scales>
<clustering>
<clus scale="   42.256">  2  3  1 -1</clus>
<clus scale="   64.823">  2  6  1 -1</clus>
<clus scale="   93.062">  1  4  2 -1</clus>
<clus scale="   93.062">  1  3  2 -1</clus>
</clustering>
</event>
<event>
 6    0  0.1631680E+002  0.1022881E+03  0.7546771E-02  0.1275557E+00
         21   -1    0    0  503  502  0.00000000000E+00  0.00000000000E+00  0.19417705158E+03  0.19417705158E+03  0.00000000000E+00 0. -1.
          1   -1    0    0  504    0 -0.00000000000E+00 -0.00000000000E+00 -0.27664355378E+04  0.27664355378E+04  0.00000000000E+00 0. -1.
         21    1    1    2  503  505 -0.24493640902E+02 -0.30815566649E+02  0.83661162035E+02  0.92459329575E+02  0.00000000000E+00 0.  1.
         21    1    1    2  504  502 -0.23632554017E+02  0.23816570962E+02 -0.28210046682E+03  0.28408871861E+03  0.00000000000E+00 0. -1.
         21    1    1    2  505  501 -0.64374324543E+02  0.80916992679E+02  0.77394812462E+02  0.12915715373E+03  0.00000000000E+00 0. -1.
          1    1    1    2  501    0  0.11250051946E+03 -0.73917996992E+02 -0.24512139939E+04  0.24549073874E+04  0.00000000000E+00 0. -1.
<scales pt_clust_3="39.35723" pt_clust_4="33.55185" pt_clust_5="14000.00000" pt_clust_6="102.28812"></scales>
<clustering>
<clus scale="   33.552">  2  4  1 -1</clus>
<clus scale="   39.357">  1  3  2 -1</clus>
<clus scale="  102.288">  2  6  1 -1</clus>
<clus scale="   39.357">  1  3  2 -1</clus>
</clustering>
</event>
<event>
 6    0  0.1631680E+002  0.1102130E+03  0.7546771E-02  0.1260176E+00
         21   -1    0    0  505  502  0.00000000000E+00  0.00000000000E+00  0.64134768006E+02  0.64134768006E+02  0.00000000000E+00 0.  1.
          2   -1    0    0  503    0 -0.00000000000E+00 -0.00000000000E+00 -0.36285996462E+04  0.36285996462E+04  0.00000000000E+00 0.  1.
         21    1    1    2  503  504 -0.46347975566E+02 -0.72515315147E+02 -0.20625982453E+04  0.20643929198E+04  0.00000000000E+00 0.  1.
         21    1    1    2  504  502 -0.30333212256E+02  0.73324041879E+02 -0.15472478306E+03  0.17388581706E+03  0.00000000000E+00 0.  1.
         21    1    1    2  505  501 -0.15273149427E+02  0.52708413741E+02  0.37029461691E+02  0.66201412414E+02  0.00000000000E+00 0.  1.
          2    1    1    2  501    0  0.91954337249E+02 -0.53517140474E+02 -0.13841713115E+04  0.13882542649E+04  0.00000000000E+00 0.  1.
<scales pt_clust_3="83.52028" pt_clust_4="110.21304" pt_clust_5="54.87664" pt_clust_6="14000.00000"></scales>
<clustering>
<clus scale="   54.877">  1  5  2 -1</clus>
<clus scale="   83.520">  2  3  1 -1</clus>
<clus scale="  110.213">  1  4  2 -1</clus>
<clus scale="   54.877">  1  3  2 -1</clus>
</clustering>
</event>
<event>
 6    0  0.1631680E+002  0.1717428E+03  0.7546771E-02  0.1176043E+00
          2   -1    0    0  503    0 -0.00000000000E+00  0.00000000000E+00  0.38603259650E+03  0.38603259650E+03  0.00000000000E+00 0.  1.
         21   -1    0    0  501  502  0.00000000000E+00 -0.00000000000E+00 -0.15035980175E+04  0.15035980175E+04  0.00000000000E+00 0.  1.
         21    1    1    2  503  504 -0.70077037192E+02 -0.10034233430E+02  0.27538439155E+03  0.28433789774E+03  0.00000000000E+00 0.  1.
         21    1    1    2  504  505  0.93793854283E+01 -0.14077704194E+03 -0.39947585599E+03  0.42365918842E+03  0.00000000000E+00 0.  1.
         21    1    1    2  505  502 -0.51254163442E+02 -0.30874788115E+02 -0.96439954569E+03  0.96625396535E+03  0.00000000000E+00 0.  1.
          2    1    1    2  501    0  0.11195181521E+03  0.18168606348E+03 -0.29074410907E+02  0.21537956254E+03  0.00000000000E+00 0.  1.
<scales pt_clust_3="71.25042" pt_clust_4="14000.00000" pt_clust_5="59.83512" pt_clust_6="171.74277"></scales>
<clustering>
<clus scale="   59.835">  2  5  1 -1</clus>
<clus scale="   71.250">  1  3  2 -1</clus>
<clus scale="  171.743">  1  6  2 -1</clus>
<clus scale="   59.835">  2  3  1 -1</clus>
</clustering>
</event>
<event>
 6    0  0.1631680E+002  0.1790269E+03  0.7546771E-02  0.1168748E+00
          2   -1    0    0  504    0 -0.00000000000E+00  0.00000000000E+00  0.10880090952E+04  0.10880090952E+04  0.00000000000E+00 0.  1.
         21   -1    0    0  503  502  0.00000000000E+00 -0.00000000000E+00 -0.20212979220E+03  0.20212979220E+03  0.00000000000E+00 0.  1.
         21    1    1    2  503  501 -0.30098403156E+02  0.33985743226E+02  0.32272327573E+02  0.55699620664E+02  0.00000000000E+00 0.  1.
         21    1    1    2  504  505  0.40707749656E+02  0.61197630027E+02  0.39944396375E+03  0.40614991196E+03  0.00000000000E+00 0.  1.
         21    1    1    2  505  502  0.12117425213E+03 -0.18883377494E+03 -0.10391595223E+03  0.24726487633E+03  0.00000000000E+00 0.  1.
          2    1    1    2  501    0 -0.13178359863E+03  0.93650401686E+02  0.55807896386E+03  0.58102447841E+03  0.00000000000E+00 0.  1.
<scales pt_clust_3="45.39763" pt_clust_4="73.70893" pt_clust_5="179.02686" pt_clust_6="14000.00000"></scales>
<clustering>
<clus scale="   45.398">  2  3  1 -1</clus>
<clus scale="   73.709">  1  4  2 -1</clus>
<clus scale="  179.027">  2  5  1 -1</clus>
<clus scale="   45.398">  2  3  1 -1</clus>
</clustering>
</event>
<event>
 6    0  0.1631680E+002  0.1237030E+03  0.7546771E-02  0.1237110E+00
         21   -1    0    0  501  502  0.00000000000E+00  0.00000000000E+00  0.57522894144E+02  0.57522894144E+02  0.00000000000E+00 0. -1.
          2   -1    0    0  504    0 -0.00000000000E+00 -0.00000000000E+00 -0.15383206648E+04  0.15383206648E+04  0.00000000000E+00 0. -1.
         21    1    1    2  503  502 -0.25541410519E+01 -0.12550925221E+03 -0.23821544578E+02  0.12777543588E+03  0.00000000000E+00 0. -1.
         21    1    1    2  504  505  0.30596004754E+02  0.67807162535E+01 -0.36313942533E+03  0.36448914366E+03  0.00000000000E+00 0. -1.
         21    1    1    2  505  503 -0.30847812088E+02  0.18132773376E+02 -0.14207942758E+03  0.14651603572E+03  0.00000000000E+00 0. -1.
          2    1    1    2  501    0  0.28059483861E+01  0.10059576258E+03 -0.95175737315E+03  0.95706294367E+03  0.00000000000E+00 0. -1.
<scales pt_clust_3="14000.00000" pt_clust_4="31.33837" pt_clust_5="33.06824" pt_clust_6="123.70298"></scales>
<clustering>
<clus scale="   31.338">  2  4  1 -1</clus>
<clus scale="   33.068">  2  5  1 -1</clus>
<clus scale="  123.703">  2  6  1 -1</clus>
<clus scale="  123.703">  1  3  2 -1</clus>
</clustering>
</event>
<event>
 6    0  0.1631680E+002  0.1152380E+03  0.7546771E-02  0.1251166E+00
         21   -1    0    0  504  502  0.00000000000E+00  0.00000000000E+00  0.20929728182E+03  0.20929728182E+03  0.00000000000E+00 0.  1.
          2   -1    0    0  503    0 -0.00000000000E+00 -0.00000000000E+00 -0.11860595587E+04  0.11860595587E+04  0.00000000000E+00 0. -1.
         21    1    1    2  503  502  0.28780904282E+02  0.22277909609E+02 -0.10990775705E+03  0.11577720314E+03  0.00000000000E+00 0. -1.
         21    1    1    2  504  505  0.32313318696E+02 -0.12674920892E+02  0.10392300180E+03  0.10956639306E+03  0.00000000000E+00 0.  1.
         21    1    1    2  505  501  0.52860241827E+02 -0.48976975001E+02  0.82681446375E+02  0.10967757666E+03  0.00000000000E+00 0.  1.
          2    1    1    2  501    0 -0.11395446481E+03  0.39373986283E+02 -0.10534589681E+04  0.10603356677E+04  0.00000000000E+00 0. -1.
<scales pt_clust_3="36.39568" pt_clust_4="32.48757" pt_clust_5="32.48757" pt_clust_6="105.30233"></scales>
<clustering>
<clus scale="   32.488">  4  5 -1 -1</clus>
<clus scale="   36.396">  2  3  1 -1</clus>
<clus scale="  105.302">  2  6  1 -1</clus>
<clus scale="  115.238">  1  3  2 -1</clus>
</clustering>
</event>
<event>
 6    0  0.1631680E+002  0.9547921E+02  0.7546771E-02  0.1290100E+00
          2   -1    0    0  505    0 -0.00000000000E+00  0.00000000000E+00  0.66782539736E+03  0.66782539736E+03  0.00000000000E+00 0.  1.
         21   -1    0    0  503  502  0.00000000000E+00 -0.00000000000E+00 -0.67685521011E+02  0.67685521011E+02  0.00000000000E+00 0.  1.
         21    1    1    2  503  501  0.28836451713E+02 -0.53824412778E+02  0.15617242583E+02  0.63027824206E+02  0.00000000000E+00 0.  1.
         21    1    1    2  504  502 -0.44906827723E+02  0.14209055180E+02 -0.25721286387E+01  0.47171350108E+02  0.00000000000E+00 0.  1.
         21    1    1    2  505  504 -0.77539415532E+01 -0.83286041271E+02  0.31294317681E+03  0.32392919009E+03  0.00000000000E+00 0.  1.
          2    1    1    2  501    0  0.23824317564E+02  0.12290139887E+03  0.27415158559E+03  0.30138255396E+03  0.00000000000E+00 0.  1.
<scales pt_clust_3="46.12844" pt_clust_4="47.10117" pt_clust_5="14000.00000" pt_clust_6="95.47921"></scales>
<clustering>
<clus scale="   47.101">  2  4  1 -1</clus>
<clus scale="   46.128">  2  3  1 -1</clus>
<clus scale="   95.479">  2  6  1 -1</clus>
<clus scale="   47.101">  2  3  1 -1</clus>
</clustering>
</event>
<event>
 6    0  0.1631680E+002  0.1036055E+03  0.7546771E-02  0.1272892E+00
          2   -1    0    0  505    0 -0.00000000000E+00  0.00000000000E+00  0.52101499431E+03  0.52101499431E+03  0.00000000000E+00 0. -1.
         21   -1    0    0  503  502  0.00000000000E+00 -0.00000000000E+00 -0.28373268806E+03  0.28373268806E+03  0.00000000000E+00 0. -1.
         21    1    1    2  503  501  0.44189382373E+02 -0.25178890810E+02 -0.11147345331E+03  0.12252758403E+03  0.00000000000E+00 0. -1.
         21    1    1    2  504  502 -0.12264957312E+03 -0.40777331241E+02 -0.12644050356E+03  0.18081180678E+03  0.00000000000E+00 0. -1.
         21    1    1    2  505  504  0.34172024336E+02 -0.35021247489E+02  0.12381047364E+03  0.13312869114E+03  0.00000000000E+00 0. -1.
          2    1    1    2  501    0  0.44288166413E+02  0.10097746954E+03  0.35138578948E+03  0.36827960042E+03  0.00000000000E+00 0. -1.
<scales pt_clust_3="51.52191" pt_clust_4="14000.00000" pt_clust_5="48.93072" pt_clust_6="103.60551"></scales>
<clustering>
<clus scale="   48.931">  1  5  2 -1</clus>
<clus scale="   51.522">  2  3  1 -1</clus>
<clus scale="  103.606">  1  6  2 -1</clus>
<clus scale="   51.522">  2  3  1 -1</clus>
</clustering>
</event>
<event>
 6    0  0.1631680E+002  0.1153605E+03  0.7546771E-02  0.1250953E+00
          2   -1    0    0  505    0 -0.00000000000E+00  0.00000000000E+00  0.12531504723E+04  0.12531504723E+04  0.00000000000E+00 0.  1.
         21   -1    0    0  503  502  0.00000000000E+00 -0.00000000000E+00 -0.47052924649E+02  0.47052924649E+02  0.00000000000E+00 0. -1.
         21    1    1    2  503  501 -0.10607094186E+03 -0.48164627939E+02  0.55920376164E+02  0.12922060425E+03  0.00000000000E+00 0. -1.
         21    1    1    2  504  502  0.51866364536E+02 -0.20622412186E+02  0.24800438610E+03  0.25420774807E+03  0.00000000000E+00 0.  1.
         21    1    1    2  505  504 -0.38654084672E+02  0.17698875240E+02  0.11705819424E+03  0.12453918775E+03  0.00000000000E+00 0. -1.
          2    1    1    2  501    0  0.92858661995E+02  0.51088164885E+02  0.78511459110E+03  0.79223585684E+03  0.00000000000E+00 0.  1.
<scales pt_clust_3="14000.00000" pt_clust_4="46.40291" pt_clust_5="42.51339" pt_clust_6="115.36053"></scales>
<clustering>
<clus scale="   42.513">  1  5  2 -1</clus>
<clus scale="   46.403">  1  4  2 -1</clus>
<clus scale="  115.361">  1  6  2 -1</clus>
<clus scale="  115.361">  2  3  1 -1</clus>
</clustering>
</event>
<event>
 6    0  0.1631680E+002  0.1381449E+03  0.7546771E-02  0.1215847E+00
          2   -1    0    0  505    0 -0.00000000000E+00  0.00000000000E+00  0.47404657406E+03  0.47404657406E+03  0.00000000000E+00 0. -1.
         21   -1    0    0  504  502  0.00000000000E+00 -0.00000000000E+00 -0.47341363519E+03  0.47341363519E+03  0.00000000000E+00 0.  1.
         21    1    1    2  503  501  0.10421660096E+03  0.68668336182E+02 -0.11598671461E+03  0.17038004072E+03  0.00000000000E+00 0.  1.
         21    1    1    2  504  503 -0.88751165745E+01  0.37241825084E+02 -0.31456040487E+03  0.31688163333E+03  0.00000000000E+00 0.  1.
         21    1    1    2  505  502 -0.27655412431E+02 -0.13503705100E+02  0.29970178497E+02  0.42957926944E+02  0.00000000000E+00 0. -1.
          2    1    1    2  501    0 -0.67686071957E+02 -0.92406456167E+02  0.40120987986E+03  0.41724060825E+03  0.00000000000E+00 0. -1.
<scales pt_clust_3="14000.00000" pt_clust_4="38.26699" pt_clust_5="30.77616" pt_clust_6="138.14486"></scales>
<clustering>
<clus scale="   30.776">  1  5  2 -1</clus>
<clus scale="   38.267">  2  4  1 -1</clus>
<clus scale="  138.145">  1  6  2 -1</clus>
<clus scale="   38.267">  2  3  1 -1</clus>
</clustering>
</event>
<event>
 6    0  0.1631680E+002  0.1007265E+03  0.7546771E-02  0.1278776E+00
          1   -1    0    0  504    0 -0.00000000000E+00  0.00000000000E+00  0.13673580410E+04  0.13673580410E+04  0.00000000000E+00 0. -1.
         21   -1    0    0  503  502  0.00000000000E+00 -0.00000000000E+00 -0.22335679457E+03  0.22335679457E+03  0.00000000000E+00 0. -1.
         21    1    1    2  503  501 -0.57329986199E+02 -0.92515460007E+02  0.57027756220E+02  0.12287392985E+03  0.00000000000E+00 0.  1.
         21    1    1    2  504  505  0.36662237208E+02  0.32043109355E+02  0.83233397304E+02  0.96429657891E+02  0.00000000000E+00 0. -1.
         21    1    1    2  505  502  0.48503801839E+02 -0.11673946875E+02 -0.17916501445E+03  0.18598118784E+03  0.00000000000E+00 0. -1.
          1    1    1    2  501    0 -0.27836052848E+02  0.72146297527E+02  0.11829051074E+04  0.11854300600E+04  0.00000000000E+00 0. -1.
<scales pt_clust_3="14000.00000" pt_clust_4="48.69169" pt_clust_5="49.96407" pt_clust_6="100.72653"></scales>
<clustering>
<clus scale="   48.692">  1  4  2 -1</clus>
<clus scale="   49.964">  2  5  1 -1</clus>
<clus scale="  100.727">  1  6  2 -1</clus>
<clus scale="   49.964">  2  3  1 -1</clus>
</clustering>
</event>
<event>
 6    0  0.1631680E+002  0.1544771E+03  0.7546771E-02  0.1195077E+00
         -1   -1    0    0    0  501 -0.00000000000E+00  0.00000000000E+00  0.16900974057E+03  0.16900974057E+03  0.00000000000E+00 0.  1.
         21   -1    0    0  504  502  0.00000000000E+00 -0.00000000000E+00 -0.86780643415E+03  0.86780643415E+03  0.00000000000E+00 0. -1.
         21    1    1    2  503  505 -0.93879076619E+02 -0.14746737612E+03 -0.29942890331E+03  0.34672406346E+03  0.00000000000E+00 0. -1.
         21    1    1    2  504  503 -0.29054571623E+02  0.36768816198E+02 -0.43742009638E+03  0.43992323727E+03  0.00000000000E+00 0. -1.
         21    1    1    2  505  501  0.20921067954E+02  0.27921599318E+02  0.99277990683E+02  0.10523034841E+03  0.00000000000E+00 0.  1.
         -1    1    1    2    0  502  0.10201258029E+03  0.82776960600E+02 -0.61225684580E+02  0.14493852557E+03  0.00000000000E+00 0.  1.
<scales pt_clust_3="14000.00000" pt_clust_4="47.03451" pt_clust_5="34.88992" pt_clust_6="154.47709"></scales>
<clustering>
<clus scale="   34.890">  1  5  2 -1</clus>
<clus scale="   47.035">  2  4  1 -1</clus>
<clus scale="  154.477">  1  6  2 -1</clus>
<clus scale="   47.035">  2  3  1 -1</clus>
</clustering>
</event>
<event>
 6    0  0.1631680E+002  0.9885238E+02  0.7546771E-02  0.1282728E+00
         21   -1    0    0  501  502  0.00000000000E+00  0.00000000000E+00  0.18059756627E+03  0.18059756627E+03  0.00000000000E+00 0. -1.
          2   -1    0    0  505    0 -0.00000000000E+00 -0.00000000000E+00 -0.19444359271E+04  0.19444359271E+04  0.00000000000E+00 0.  1.
         21    1    1    2  503  502  0.35776284125E+02 -0.13466075358E+01  0.12213476248E+03  0.12727394102E+03  0.00000000000E+00 0. -1.
         21    1    1    2  504  503 -0.49423601843E+02 -0.43484383930E+02  0.21835098772E+02  0.69356727167E+02  0.00000000000E+00 0. -1.
         21    1    1    2  505  504  0.10973433029E+03  0.26184578543E+02 -0.35459676983E+03  0.37211036612E+03  0.00000000000E+00 0. -1.
          2    1    1    2  501    0 -0.96087012574E+02  0.18646412923E+02 -0.15532114523E+04  0.15562924591E+04  0.00000000000E+00 0.  1.
<scales pt_clust_3="35.80162" pt_clust_4="48.96151" pt_clust_5="14000.00000" pt_clust_6="98.85238"></scales>
<clustering>
<clus scale="   35.802">  1  3  2 -1</clus>
<clus scale="   48.962">  1  4  2 -1</clus>
<clus scale="   98.852">  2  6  1 -1</clus>
<clus scale="   35.802">  1  3  2 -1</clus>
</clustering>
</event>
<event>
 6    0  0.1631680E+002  0.1386783E+03  0.7546771E-02  0.1215119E+00
         21   -1    0    0  504  502  0.00000000000E+00  0.00000000000E+00  0.12036387661E+03  0.12036387661E+03  0.00000000000E+00 0. -1.
          1   -1    0    0  503    0 -0.00000000000E+00 -0.00000000000E+00 -0.13085198811E+04  0.13085198811E+04  0.00000000000E+00 0.  1.
         21    1    1    2  503  505  0.60979951165E+02 -0.10868189805E+03 -0.26378815890E+03  0.29174389828E+03  0.00000000000E+00 0. -1.
         21    1    1    2  504  501  0.30649980073E+01 -0.41635241566E+02  0.85732544116E+02  0.95356995934E+02  0.00000000000E+00 0. -1.
         21    1    1    2  505  502 -0.37546158487E+02  0.67096085190E+01 -0.24298255095E+02  0.45223202720E+02  0.00000000000E+00 0. -1.
          1    1    1    2  501    0 -0.26498790685E+02  0.14360753109E+03 -0.98580213458E+03  0.99655966076E+03  0.00000000000E+00 0.  1.
<scales pt_clust_3="138.67829" pt_clust_4="45.61121" pt_clust_5="38.14096" pt_clust_6="14000.00000"></scales>
<clustering>
<clus scale="   38.141">  1  5  2 -1</clus>
<clus scale="   45.611">  1  4  2 -1</clus>
<clus scale="  138.678">  1  3  2 -1</clus>
<clus scale="   38.141">  1  3  2 -1</clus>
</clustering>
</event>
<event>
 6    0  0.1631680E+002  0.6700556E+02  0.7546771E-02  0.1370582E+00
          2   -1    0    0  504    0 -0.00000000000E+00  0.00000000000E+00  0.38117253494E+04  0.38117253494E+04  0.00000000000E+00 0. -1.
         21   -1    0    0  503  502  0.00000000000E+00 -0.00000000000E+00 -0.12927606456E+03  0.12927606456E+03  0.00000000000E+00 0.  1.
         21    1    1    2  503  501  0.78220146419E+02  0.97033242270E+02 -0.84630097762E+02  0.15065223151E+03  0.00000000000E+00 0.  1.
         21    1    1    2  504  505  0.17314036352E+02  0.43071787032E+02  0.34707102437E+03  0.35016174927E+03  0.00000000000E+00 0. -1.
         21    1    1    2  505  502 -0.49445134310E+02 -0.39661813238E+02  0.10036826949E+03  0.11870834114E+03  0.00000000000E+00 0.  1.
          2    1    1    2  501    0 -0.46089048461E+02 -0.10044321606E+03  0.33196400888E+04  0.33214790921E+04  0.00000000000E+00 0. -1.
<scales pt_clust_3="67.00556" pt_clust_4="46.42149" pt_clust_5="62.11129" pt_clust_6="14000.00000"></scales>
<clustering>
<clus scale="   46.421">  1  4  2 -1</clus>
<clus scale="   62.111">  2  5  1 -1</clus>
<clus scale="   67.006">  2  3  1 -1</clus>
<clus scale="   62.111">  2  3  1 -1</clus>
</clustering>
</event>
<event>
 6    0  0.1631680E+002  0.1346252E+03  0.7546771E-02  0.1220750E+00
          2   -1    0    0  503    0 -0.00000000000E+00  0.00000000000E+00  0.16237926300E+04  0.16237926300E+04  0.00000000000E+00 0. -1.
         21   -1    0    0  501  502  0.00000000000E+00 -0.00000000000E+00 -0.18939744947E+03  0.18939744947E+03  0.00000000000E+00 0. -1.
         21    1    1    2  503  505  0.43080985289E+02  0.12008395221E+03  0.41043878998E+03  0.42980940798E+03  0.00000000000E+00 0.  1.
         21    1    1    2  504  502  0.46333328604E+02  0.48225746854E+02 -0.13612861973E+03  0.15166905125E+03  0.00000000000E+00 0. -1.
         21    1    1    2  505  504  0.19729231386E+02 -0.75153049842E+02  0.16848960430E+02  0.79505414528E+02  0.00000000000E+00 0.  1.
          2    1    1    2  501    0 -0.10914354528E+03 -0.93156649224E+02  0.11432360499E+04  0.11522062057E+04  0.00000000000E+00 0. -1.
<scales pt_clust_3="134.62523" pt_clust_4="66.87675" pt_clust_5="66.52397" pt_clust_6="14000.00000"></scales>
<clustering>
<clus scale="   66.877">  2  4  1 -1</clus>
<clus scale="   66.524">  2  5  1 -1</clus>
<clus scale="  134.625">  2  3  1 -1</clus>
<clus scale="   66.877">  2  3  1 -1</clus>
</clustering>
</event>
<event>
 6    0  0.1631680E+002  0.1437957E+03  0.7546771E-02  0.1208311E+00
          1   -1    0    0  505    0 -0.00000000000E+00  0.00000000000E+00  0.17916597694E+04  0.17916597694E+04  0.00000000000E+00 0.  1.
         21   -1    0    0  503  502  0.00000000000E+00 -0.00000000000E+00 -0.50675928135E+03  0.50675928135E+03  0.00000000000E+00 0.  1.
         21    1    1    2  503  504 -0.81674868603E+02 -0.18149260220E+03 -0.39655361377E+03  0.44369484718E+03  0.00000000000E+00 0.  1.
         21    1    1    2  504  501  0.12758520233E+03  0.76620600380E+02  0.62433205448E+03  0.64182490954E+03  0.00000000000E+00 0.  1.
         21    1    1    2  505  502  0.37352233689E+02  0.44974087422E+02 -0.64237837330E+02  0.86858261816E+02  0.00000000000E+00 0.  1.
          1    1    1    2  501    0 -0.83262567411E+02  0.59897914396E+02  0.11213598846E+04  0.11260410322E+04  0.00000000000E+00 0.  1.
<scales pt_clust_3="143.79571" pt_clust_4="14000.00000" pt_clust_5="58.46245" pt_clust_6="102.54754"></scales>
<clustering>
<clus scale="   58.462">  2  5  1 -1</clus>
<clus scale="  102.548">  1  6  2 -1</clus>
<clus scale="  143.796">  2  3  1 -1</clus>
<clus scale="   58.462">  2  3  1 -1</clus>
</clustering>
</event>
<event>
 6    0  0.1631680E+002  0.1180149E+03  0.7546771E-02  0.1246408E+00
         -3   -1    0    0    0  501 -0.00000000000E+00  0.00000000000E+00  0.93659238110E+02  0.93659238110E+02  0.00000000000E+00 0. -1.
         21   -1    0    0  504  502  0.00000000000E+00 -0.00000000000E+00 -0.27532279652E+04  0.27532279652E+04  0.00000000000E+00 0.  1.
         21    1    1    2  503  505  0.53981985552E+02  0.12356087875E+03 -0.13728961598E+04  0.13795017982E+04  0.00000000000E+00 0.  1.
         21    1    1    2  504  501  0.29923131847E+02  0.64280264995E+01 -0.33063209758E+02  0.45054291513E+02  0.00000000000E+00 0.  1.
         21    1    1    2  505  502 -0.12069508162E+02 -0.10816749543E+03 -0.13185683791E+04  0.13230527013E+04  0.00000000000E+00 0.  1.
         -3    1    1    2    0  503 -0.71835609237E+02 -0.21821409815E+02  0.64959021538E+02  0.99278412356E+02  0.00000000000E+00 0. -1.
<scales pt_clust_3="14000.00000" pt_clust_4="30.60577" pt_clust_5="118.01489" pt_clust_6="46.56753"></scales>
<clustering>
<clus scale="   30.606">  1  4  2 -1</clus>
<clus scale="   46.568">  1  6  2 -1</clus>
<clus scale="  118.015">  2  5  1 -1</clus>
<clus scale="  118.015">  2  3  1 -1</clus>
</clustering>
</event>
<event>
 6    0  0.1631680E+002  0.2888501E+03  0.7546771E-02  0.1090951E+00
         21   -1    0    0  504  502  0.00000000000E+00  0.00000000000E+00  0.44924932790E+03  0.44924932790E+03  0.00000000000E+00 0. -1.
         -1   -1    0    0    0  501 -0.00000000000E+00 -0.00000000000E+00 -0.47145504487E+03  0.47145504487E+03  0.00000000000E+00 0. -1.
         21    1    1    2  503  501 -0.11077160534E+03 -0.20743083353E+03  0.33950954467E+03  0.41299470962E+03  0.00000000000E+00 0. -1.
         21    1    1    2  504  503 -0.29878436409E+02 -0.30002934675E+01  0.13574015866E+02  0.32954159523E+02  0.00000000000E+00 0. -1.
         21    1    1    2  505  502  0.43153765875E+01  0.13470333567E+03 -0.16962874938E+03  0.21665069520E+03  0.00000000000E+00 0. -1.
         -1    1    1    2    0  505  0.13633466516E+03  0.75727791324E+02 -0.20566052814E+03  0.25810480843E+03  0.00000000000E+00 0. -1.
<scales pt_clust_3="250.89304" pt_clust_4="30.02870" pt_clust_5="133.68400" pt_clust_6="133.68400"></scales>
<clustering>
<clus scale="   30.029">  1  4  2 -1</clus>
<clus scale="  133.684">  5  6 -1 -1</clus>
<clus scale="  250.893">  1  3  2 -1</clus>
<clus scale="   30.029">  1  3  2 -1</clus>
</clustering>
</event>
<event>
 6    0  0.1631680E+002  0.8168414E+02  0.7546771E-02  0.1324339E+00
         21   -1    0    0  503  502  0.00000000000E+00  0.00000000000E+00  0.10562936645E+04  0.10562936645E+04  0.00000000000E+00 0.  1.
         -1   -1    0    0    0  501 -0.00000000000E+00 -0.00000000000E+00 -0.47914608891E+03  0.47914608891E+03  0.00000000000E+00 0. -1.
         21    1    1    2  503  504 -0.16108146796E+02 -0.27428228332E+02  0.79713246803E+02  0.85825298243E+02  0.00000000000E+00 0.  1.
         21    1    1    2  504  501 -0.43384603239E+02 -0.24845105734E+02 -0.79822188032E+02  0.94186436281E+02  0.00000000000E+00 0. -1.
         21    1    1    2  505  502 -0.34117072356E+02 -0.36974552115E+02  0.95491349063E+03  0.95623787140E+03  0.00000000000E+00 0.  1.
         -1    1    1    2    0  505  0.93609822391E+02  0.89247886180E+02 -0.37765697377E+03  0.39919014751E+03  0.00000000000E+00 0. -1.
<scales pt_clust_3="31.80849" pt_clust_4="50.19885" pt_clust_5="14000.00000" pt_clust_6="81.68414"></scales>
<clustering>
<clus scale="   31.808">  1  3  2 -1</clus>
<clus scale="   50.199">  2  4  1 -1</clus>
<clus scale="   81.684">  2  6  1 -1</clus>
<clus scale="   31.808">  1  3  2 -1</clus>
</clustering>
</event>
<event>
 6    0  0.1631680E+002  0.1007934E+03  0.7546771E-02  0.1278636E+00
         21   -1    0    0  503  502  0.00000000000E+00  0.00000000000E+00  0.11116190410E+04  0.11116190410E+04  0.00000000000E+00 0.  1.
          4   -1    0    0  505    0 -0.00000000000E+00 -0.00000000000E+00 -0.48714589482E+02  0.48714589482E+02  0.00000000000E+00 0. -1.
         21    1    1    2  503  504 -0.90563930518E+01 -0.38712911231E+02  0.54569499772E+03  0.54714142440E+03  0.00000000000E+00 0.  1.
         21    1    1    2  504  501 -0.98332135834E+02 -0.15764496915E+02  0.43536496475E+03  0.44660987543E+03  0.00000000000E+00 0.  1.
         21    1    1    2  505  502  0.42125698516E+02  0.29058328411E+01 -0.92476439695E+01  0.43226580468E+02  0.00000000000E+00 0. -1.
          4    1    1    2  501    0  0.65262830369E+02  0.51571575305E+02  0.91092133017E+02  0.12335575019E+03  0.00000000000E+00 0. -1.
<scales pt_clust_3="39.75812" pt_clust_4="14000.00000" pt_clust_5="41.88971" pt_clust_6="100.79344"></scales>
<clustering>
<clus scale="   39.758">  1  3  2 -1</clus>
<clus scale="   41.890">  2  5  1 -1</clus>
<clus scale="  100.793">  2  6  1 -1</clus>
<clus scale="   39.758">  1  3  2 -1</clus>
</clustering>
</event>
<event>
 6    0  0.1631680E+002  0.1324126E+03  0.7546771E-02  0.1223919E+00
          2   -1    0    0  503    0 -0.00000000000E+00  0.00000000000E+00  0.88546887375E+03  0.88546887375E+03  0.00000000000E+00 0.  1.
         21   -1    0    0  505  502  0.00000000000E+00 -0.00000000000E+00 -0.21450028219E+03  0.21450028219E+03  0.00000000000E+00 0.  1.
         21    1    1    2  503  504  0.20398256751E+03 -0.65644572127E+02  0.78486487043E+02  0.22820654317E+03  0.00000000000E+00 0.  1.
         21    1    1    2  504  502 -0.43604591083E+02  0.29581980737E+02 -0.11456119374E+03  0.12609806128E+03  0.00000000000E+00 0.  1.
         21    1    1    2  505  501 -0.45233592554E+02 -0.15446192675E+02  0.28827908310E+02  0.55818554809E+02  0.00000000000E+00 0. -1.
          2    1    1    2  501    0 -0.11514438387E+03  0.51508784066E+02  0.67821538995E+03  0.68984599668E+03  0.00000000000E+00 0.  1.
<scales pt_clust_3="14000.00000" pt_clust_4="73.55027" pt_clust_5="47.79815" pt_clust_6="132.41261"></scales>
<clustering>
<clus scale="   47.798">  2  5  1 -1</clus>
<clus scale="   73.550">  2  4  1 -1</clus>
<clus scale="  132.413">  1  6  2 -1</clus>
<clus scale="   47.798">  2  3  1 -1</clus>
</clustering>
</event>
<event>
 6    0  0.1631680E+002  0.6213004E+02  0.7546771E-02  0.1389104E+00
         21   -1    0    0  503  502  0.00000000000E+00  0.00000000000E+00  0.31206752235E+03  0.31206752235E+03  0.00000000000E+00 0.  1.
          1   -1    0    0  504    0 -0.00000000000E+00 -0.00000000000E+00 -0.12990677230E+04  0.12990677230E+04  0.00000000000E+00 0.  1.
         21    1    1    2  503  505 -0.12229489430E+02 -0.35518275125E+02  0.41120454672E+02  0.55695601909E+02  0.00000000000E+00 0.  1.
         21    1    1    2  504  502  0.66581398398E+02  0.65516729136E+02  0.24997740695E+03  0.26685994153E+03  0.00000000000E+00 0.  1.
         21    1    1    2  505  501 -0.68861730805E+02  0.23808953646E+02 -0.29360880837E+03  0.30251435767E+03  0.00000000000E+00 0. -1.
          1    1    1    2  501    0  0.14509821837E+02 -0.53807407658E+02 -0.98448925393E+03  0.98606534426E+03  0.00000000000E+00 0.  1.
<scales pt_clust_3="37.56472" pt_clust_4="14000.00000" pt_clust_5="62.13004" pt_clust_6="55.82247"></scales>
<clustering>
<clus scale="   37.565">  1  3  2 -1</clus>
<clus scale="   55.822">  2  6  1 -1</clus>
<clus scale="   62.130">  2  5  1 -1</clus>
<clus scale="   37.565">  1  3  2 -1</clus>
</clustering>
</event>
<event>
 6    0  0.1631680E+002  0.1100729E+03  0.7546771E-02  0.1260435E+00
         -2   -1    0    0    0  501 -0.00000000000E+00  0.00000000000E+00  0.58974848641E+02  0.58974848641E+02  0.00000000000E+00 0.  1.
         21   -1    0    0  505  502  0.00000000000E+00 -0.00000000000E+00 -0.18970456128E+04  0.18970456128E+04  0.00000000000E+00 0.  1.
         21    1    1    2  503  501 -0.31514008515E+02 -0.18686382627E+02  0.20270285341E+02  0.41871208439E+02  0.00000000000E+00 0.  1.
         21    1    1    2  504  502  0.26825893064E+02  0.28413769999E+02 -0.37349671623E+03  0.37553530846E+03  0.00000000000E+00 0.  1.
         21    1    1    2  505  503  0.39154229089E+02 -0.11602181241E+03 -0.13798850231E+04  0.13853074718E+04  0.00000000000E+00 0.  1.
         -2    1    1    2    0  504 -0.34466113638E+02  0.10629442503E+03 -0.10495931024E+03  0.15330647275E+03  0.00000000000E+00 0.  1.
<scales pt_clust_3="36.63760" pt_clust_4="37.79167" pt_clust_5="14000.00000" pt_clust_6="110.07292"></scales>
<clustering>
<clus scale="   36.638">  1  3  2 -1</clus>
<clus scale="   37.792">  2  4  1 -1</clus>
<clus scale="  110.073">  1  6  2 -1</clus>
<clus scale="   37.792">  2  3  1 -1</clus>
</clustering>
</event>
<event>
 6    0  0.1631680E+002  0.8281861E+02  0.7546771E-02  0.1321238E+00
         -1   -1    0    0    0  501 -0.00000000000E+00  0.00000000000E+00  0.36925803827E+03  0.36925803827E+03  0.00000000000E+00 0. -1.
         21   -1    0    0  505  502  0.00000000000E+00 -0.00000000000E+00 -0.90780453231E+02  0.90780453231E+02  0.00000000000E+00 0.  1.
         21    1    1    2  503  501  0.67696675024E+01  0.61685629843E+02  0.42169748033E+02  0.75028214536E+02  0.00000000000E+00 0.  1.
         21    1    1    2  504  503 -0.52698980602E+02  0.17834932755E+01 -0.82248872236E+01  0.53366770321E+02  0.00000000000E+00 0.  1.
         21    1    1    2  505  504  0.36643778807E+02  0.29506166551E+02 -0.19979368753E+02  0.51113164308E+02  0.00000000000E+00 0.  1.
         -1    1    1    2    0  502  0.92855342917E+01 -0.92975289670E+02  0.26451209299E+03  0.28053034234E+03  0.00000000000E+00 0. -1.
<scales pt_clust_3="82.81861" pt_clust_4="37.06402" pt_clust_5="47.04658" pt_clust_6="14000.00000"></scales>
<clustering>
<clus scale="   47.047">  2  5  1 -1</clus>
<clus scale="   37.064">  2  4  1 -1</clus>
<clus scale="   82.819">  2  3  1 -1</clus>
<clus scale="   47.047">  2  3  1 -1</clus>
</clustering>
</event>
<event>
 6    0  0.1631680E+002  0.8529885E+02  0.7546771E-02  0.1314653E+00
         21   -1    0    0  504  502  0.00000000000E+00  0.00000000000E+00  0.31435334114E+03  0.31435334114E+03  0.00000000000E+00 0.  1.
          1   -1    0    0  505    0 -0.00000000000E+00 -0.00000000000E+00 -0.23502358208E+04  0.23502358208E+04  0.00000000000E+00 0.  1.
         21    1    1    2  503  502  0.43625826126E+02  0.54685655581E+02 -0.80893710986E+01  0.70421385646E+02  0.00000000000E+00 0. -1.
         21    1    1    2  504  501 -0.30625956375E+02 -0.15473714016E+02  0.27866193542E+03  0.28076655655E+03  0.00000000000E+00 0.  1.
         21    1    1    2  505  503  0.32628930233E+02  0.60887128618E+02 -0.86303505834E+03  0.86579524222E+03  0.00000000000E+00 0.  1.
          1    1    1    2  501    0 -0.45628799984E+02 -0.10009907018E+03 -0.14434199856E+04  0.14476059775E+04  0.00000000000E+00 0.  1.
<scales pt_clust_3="43.81688" pt_clust_4="34.31304" pt_clust_5="85.29885" pt_clust_6="14000.00000"></scales>
<clustering>
<clus scale="   34.313">  1  4  2 -1</clus>
<clus scale="   43.817">  1  3  2 -1</clus>
<clus scale="   85.299">  2  5  1 -1</clus>
<clus scale="   34.313">  1  3  2 -1</clus>
</clustering>
</event>
<event>
 6    0  0.1631680E+002  0.1404222E+03  0.7546771E-02  0.1212762E+00
          1   -1    0    0  505    0 -0.00000000000E+00  0.00000000000E+00  0.17375330451E+04  0.17375330451E+04  0.00000000000E+00 0. -1.
         21   -1    0    0  503  502  0.00000000000E+00 -0.00000000000E+00 -0.18325371221E+03  0.18325371221E+03  0.00000000000E+00 0. -1.
         21    1    1    2  503  504 -0.28181634462E+02 -0.28243159792E+02 -0.11967923343E+03  0.12615466503E+03  0.00000000000E+00 0. -1.
         21    1    1    2  504  501 -0.98451059314E+02  0.90471051110E+02  0.25988674753E+02  0.13620952017E+03  0.00000000000E+00 0. -1.
         21    1    1    2  505  502  0.91253788988E+01  0.30352680785E+02  0.17243425913E+03  0.17532293488E+03  0.00000000000E+00 0. -1.
          1    1    1    2  501    0  0.11750731488E+03 -0.92580572104E+02  0.14755356324E+04  0.14830996372E+04  0.00000000000E+00 0. -1.
<scales pt_clust_3="39.84056" pt_clust_4="140.42222" pt_clust_5="31.69476" pt_clust_6="14000.00000"></scales>
<clustering>
<clus scale="   31.695">  1  5  2 -1</clus>
<clus scale="   39.841">  2  3  1 -1</clus>
<clus scale="  140.422">  2  4  1 -1</clus>
<clus scale="   39.841">  2  3  1 -1</clus>
</clustering>
</event>
<event>
 6    0  0.1631680E+002  0.1146943E+03  0.7546771E-02  0.1252116E+00
          2   -1    0    0  503    0 -0.00000000000E+00  0.00000000000E+00  0.32490846681E+03  0.32490846681E+03  0.00000000000E+00 0. -1.
         21   -1    0    0  505  502  0.00000000000E+00 -0.00000000000E+00 -0.47910870671E+03  0.47910870671E+03  0.00000000000E+00 0. -1.
         21    1    1    2  503  504 -0.36701057863E+01 -0.49279216733E+02  0.70445940123E+02  0.86049644730E+02  0.00000000000E+00 0. -1.
         21    1    1    2  504  502  0.23435345895E+02 -0.30000882616E+02 -0.43888400068E+02  0.58098709585E+02  0.00000000000E+00 0.  1.
         21    1    1    2  505  501  0.73952547589E+02  0.94406984465E+02 -0.40179416311E+03  0.41930920276E+03  0.00000000000E+00 0. -1.
          2    1    1    2  501    0 -0.93717787698E+02 -0.15126885115E+02  0.22103638316E+03  0.24055961644E+03  0.00000000000E+00 0. -1.
<scales pt_clust_3="49.93137" pt_clust_4="38.06926" pt_clust_5="114.69434" pt_clust_6="14000.00000"></scales>
<clustering>
<clus scale="   38.069">  2  4  1 -1</clus>
<clus scale="   49.931">  1  3  2 -1</clus>
<clus scale="  114.694">  2  5  1 -1</clus>
<clus scale="   38.069">  2  3  1 -1</clus>
</clustering>
</event>
<event>
 6    0  0.1631680E+002  0.1566814E+03  0.7546771E-02  0.1192495E+00
         21   -1    0    0  504  502  0.00000000000E+00  0.00000000000E+00  0.13383404803E+03  0.13383404803E+03  0.00000000000E+00 0. -1.
          2   -1    0    0  503    0 -0.00000000000E+00 -0.00000000000E+00 -0.30833018287E+04  0.30833018287E+04  0.00000000000E+00 0.  1.
         21    1    1    2  503  505  0.18180644611E+02 -0.73176995015E+02 -0.32990251051E+02  0.82302886355E+02  0.00000000000E+00 0. -1.
         21    1    1    2  504  501  0.21652522349E+02 -0.43511246211E+02 -0.11959327169E+03  0.12909148270E+03  0.00000000000E+00 0. -1.
         21    1    1    2  505  502 -0.11073668256E+02 -0.45163517604E+02  0.96800894290E+02  0.10739079377E+03  0.00000000000E+00 0. -1.
          2    1    1    2  501    0 -0.28759498704E+02  0.16185175883E+03 -0.28936851523E+04  0.28983507139E+04  0.00000000000E+00 0.  1.
<scales pt_clust_3="14000.00000" pt_clust_4="54.10006" pt_clust_5="46.50128" pt_clust_6="156.68137"></scales>
<clustering>
<clus scale="   46.501">  1  5  2 -1</clus>
<clus scale="   54.100">  1  4  2 -1</clus>
<clus scale="  156.681">  2  6  1 -1</clus>
<clus scale="   46.501">  1  3  2 -1</clus>
</clustering>
</event>
<event>
 6    0  0.1631680E+002  0.1968273E+03  0.7546771E-02  0.1152444E+00
         21   -1    0    0  505  502  0.00000000000E+00  0.00000000000E+00  0.90512143097E+02  0.90512143097E+02  0.00000000000E+00 0.  1.
         -4   -1    0    0    0  501 -0.00000000000E+00 -0.00000000000E+00 -0.62743852073E+03  0.62743852073E+03  0.00000000000E+00 0.  1.
         21    1    1    2  503  502  0.15139847966E+03 -0.76303973091E+02 -0.15432590021E+03  0.22926028751E+03  0.00000000000E+00 0.  1.
         21    1    1    2  504  503  0.41459724589E+02  0.62944363319E+01 -0.98841052583E+01  0.43083920765E+02  0.00000000000E+00 0.  1.
         21    1    1    2  505  501 -0.40137136610E+02 -0.17374413147E+02 -0.13768192505E+02  0.45852187432E+02  0.00000000000E+00 0.  1.
         -4    1    1    2    0  504 -0.15272106764E+03  0.87383949907E+02 -0.35894817966E+03  0.39975426812E+03  0.00000000000E+00 0.  1.
<scales pt_clust_3="35.55467" pt_clust_4="35.55467" pt_clust_5="43.73625" pt_clust_6="183.38530"></scales>
<clustering>
<clus scale="   35.555">  3  4 -1 -1</clus>
<clus scale="   43.736">  1  5  2 -1</clus>
<clus scale="  183.385">  2  6  1 -1</clus>
<clus scale="   43.736">  1  3  2 -1</clus>
</clustering>
</event>
<event>
 6    0  0.1631680E+002  0.7409410E+02  0.7546771E-02  0.1346699E+00
          1   -1    0    0  504    0 -0.00000000000E+00  0.00000000000E+00  0.36128463518E+04  0.36128463518E+04  0.00000000000E+00 0.  1.
         21   -1    0    0  505  502  0.00000000000E+00 -0.00000000000E+00 -0.11817866900E+02  0.11817866900E+02  0.00000000000E+00 0. -1.
         21    1    1    2  503  502 -0.40608437494E+02 -0.40160229140E+02  0.83821195079E+03  0.84015544017E+03  0.00000000000E+00 0. -1.
         21    1    1    2  504  503  0.11080608716E+02  0.33718452705E+02  0.32593604612E+03  0.32786280683E+03  0.00000000000E+00 0.  1.
         21    1    1    2  505  501 -0.42576090961E+02 -0.58940933924E+02  0.14046071438E+03  0.15816437493E+03  0.00000000000E+00 0. -1.
          1    1    1    2  501    0  0.72103919739E+02  0.65382710360E+02  0.22964197736E+04  0.22984815968E+04  0.00000000000E+00 0.  1.
<scales pt_clust_3="49.21955" pt_clust_4="35.49245" pt_clust_5="74.09410" pt_clust_6="14000.00000"></scales>
<clustering>
<clus scale="   35.492">  1  4  2 -1</clus>
<clus scale="   49.220">  1  3  2 -1</clus>
<clus scale="   74.094">  2  5  1 -1</clus>
<clus scale="   74.094">  2  3  1 -1</clus>
</clustering>
</event>
<event>
 6    0  0.1631680E+002  0.9309706E+02  0.7546771E-02  0.1295520E+00
         21   -1    0    0  503  502  0.00000000000E+00  0.00000000000E+00  0.10172625743E+04  0.10172625743E+04  0.00000000000E+00 0.  1.
         -1   -1    0    0    0  501 -0.00000000000E+00 -0.00000000000E+00 -0.14271084163E+03  0.14271084163E+03  0.00000000000E+00 0.  1.
         21    1    1    2  503  505  0.23065135884E+02  0.63842013709E+02  0.24871369441E+03  0.25781059907E+03  0.00000000000E+00 0.  1.
         21    1    1    2  504  502  0.37971502043E+02  0.90485983380E+01  0.70205600414E+03  0.70314034520E+03  0.00000000000E+00 0.  1.
         21    1    1    2  505  501  0.96120754594E+01  0.31664468957E+02 -0.64248537101E+02  0.72269669354E+02  0.00000000000E+00 0.  1.
         -1    1    1    2    0  504 -0.70648713386E+02 -0.10455508100E+03 -0.11969428784E+02  0.12675280231E+03  0.00000000000E+00 0.  1.
<scales pt_clust_3="93.09706" pt_clust_4="39.15685" pt_clust_5="33.09125" pt_clust_6="14000.00000"></scales>
<clustering>
<clus scale="   33.091">  2  5  1 -1</clus>
<clus scale="   39.157">  1  4  2 -1</clus>
<clus scale="   93.097">  1  3  2 -1</clus>
<clus scale="   39.157">  1  3  2 -1</clus>
</clustering>
</event>
<event>
 6    0  0.1631680E+002  0.1187536E+03  0.7546771E-02  0.1245167E+00
          2   -1    0    0  503    0 -0.00000000000E+00  0.00000000000E+00  0.72687445258E+03  0.72687445258E+03  0.00000000000E+00 0. -1.
         21   -1    0    0  505  502  0.00000000000E+00 -0.00000000000E+00 -0.36800015354E+03  0.36800015354E+03  0.00000000000E+00 0.  1.
         21    1    1    2  503  504  0.13646895657E+02  0.91526389837E+02  0.10521616663E+03  0.14012051783E+03  0.00000000000E+00 0.  1.
         21    1    1    2  504  502  0.19804174143E+02 -0.74290009398E+02  0.81995888444E+01  0.77320398777E+02  0.00000000000E+00 0. -1.
         21    1    1    2  505  501 -0.13511903111E+03  0.32994562646E+02 -0.29450136951E+03  0.32569441256E+03  0.00000000000E+00 0.  1.
          2    1    1    2  501    0  0.10166796131E+03 -0.50230943085E+02  0.53995991308E+03  0.55173927695E+03  0.00000000000E+00 0. -1.
<scales pt_clust_3="88.85963" pt_clust_4="76.88440" pt_clust_5="14000.00000" pt_clust_6="118.75360"></scales>
<clustering>
<clus scale="   76.884">  2  4  1 -1</clus>
<clus scale="   88.860">  1  3  2 -1</clus>
<clus scale="  118.754">  1  6  2 -1</clus>
<clus scale="   76.884">  2  3  1 -1</clus>
</clustering>
</event>
<event>
 6    0  0.1631680E+002  0.8424902E+02  0.7546771E-02  0.1317408E+00
         -2   -1    0    0    0  501 -0.00000000000E+00  0.00000000000E+00  0.31957284628E+03  0.31957284628E+03  0.00000000000E+00 0. -1.
         21   -1    0    0  503  502  0.00000000000E+00 -0.00000000000E+00 -0.27901233049E+03  0.27901233049E+03  0.00000000000E+00 0. -1.
         21    1    1    2  503  504  0.60960856928E+01 -0.37926460896E+02 -0.18922024889E+03  0.19307998676E+03  0.00000000000E+00 0. -1.
         21    1    1    2  504  501  0.20723134923E+01 -0.83275455675E+02  0.13969985874E+03  0.16265038129E+03  0.00000000000E+00 0. -1.
         21    1    1    2  505  502 -0.40934709228E+02  0.38477422553E+02 -0.51120625900E+02  0.75957098801E+02  0.00000000000E+00 0. -1.
         -2    1    1    2    0  505  0.32766310043E+02  0.82724494019E+02  0.14120153184E+03  0.16689770992E+03  0.00000000000E+00 0. -1.
<scales pt_clust_3="38.41326" pt_clust_4="14000.00000" pt_clust_5="38.16118" pt_clust_6="84.24902"></scales>
<clustering>
<clus scale="   38.413">  2  3  1 -1</clus>
<clus scale="   38.161">  2  5  1 -1</clus>
<clus scale="   84.249">  2  6  1 -1</clus>
<clus scale="   38.413">  2  3  1 -1</clus>
</clustering>
</event>
<event>
 6    0  0.1631680E+002  0.9006137E+02  0.7546771E-02  0.1302703E+00
         21   -1    0    0  505  502  0.00000000000E+00  0.00000000000E+00  0.76567401458E+03  0.76567401458E+03  0.00000000000E+00 0.  1.
          2   -1    0    0  504    0 -0.00000000000E+00 -0.00000000000E+00 -0.14165012086E+04  0.14165012086E+04  0.00000000000E+00 0. -1.
         21    1    1    2  503  501  0.95052333043E+02 -0.25394962402E+02 -0.17863275028E+03  0.20393506222E+03  0.00000000000E+00 0.  1.
         21    1    1    2  504  502  0.17501660061E+01 -0.48907109741E+02  0.17679830557E+03  0.18344647535E+03  0.00000000000E+00 0.  1.
         21    1    1    2  505  503 -0.30765945626E+02  0.12705565282E+02  0.57074639103E+03  0.57171620379E+03  0.00000000000E+00 0.  1.
          2    1    1    2  501    0 -0.66036553423E+02  0.61596506861E+02 -0.12197391403E+04  0.12230774818E+04  0.00000000000E+00 0. -1.
<scales pt_clust_3="14000.00000" pt_clust_4="45.76829" pt_clust_5="33.28626" pt_clust_6="90.06137"></scales>
<clustering>
<clus scale="   33.286">  1  5  2 -1</clus>
<clus scale="   45.768">  1  4  2 -1</clus>
<clus scale="   90.061">  2  6  1 -1</clus>
<clus scale="   33.286">  1  3  2 -1</clus>
</clustering>
</event>
<event>
 6    0  0.1631680E+002  0.1756257E+03  0.7546771E-02  0.1172105E+00
         21   -1    0    0  501  502  0.00000000000E+00  0.00000000000E+00  0.60012595983E+03  0.60012595983E+03  0.00000000000E+00 0.  1.
          1   -1    0    0  505    0 -0.00000000000E+00 -0.00000000000E+00 -0.11550266275E+04  0.11550266275E+04  0.00000000000E+00 0.  1.
         21    1    1    2  503  502  0.32620716741E+02 -0.92609000384E+01  0.34393228071E+03  0.34559989749E+03  0.00000000000E+00 0.  1.
         21    1    1    2  504  503  0.86196089137E+02  0.12769113709E+03  0.10575069373E+03  0.18686359062E+03  0.00000000000E+00 0.  1.
         21    1    1    2  505  504  0.60882371734E+01  0.54912066604E+02 -0.10074996441E+04  0.10090133470E+04  0.00000000000E+00 0.  1.
          1    1    1    2  501    0 -0.12490504305E+03 -0.17334230365E+03  0.29160019445E+01  0.21367575221E+03  0.00000000000E+00 0.  1.
<scales pt_clust_3="33.90981" pt_clust_4="175.62573" pt_clust_5="55.23201" pt_clust_6="14000.00000"></scales>
<clustering>
<clus scale="   33.910">  1  3  2 -1</clus>
<clus scale="   55.232">  2  5  1 -1</clus>
<clus scale="  175.626">  1  4  2 -1</clus>
<clus scale="   33.910">  1  3  2 -1</clus>
</clustering>
</event>
<event>
 6    0  0.1631680E+002  0.1315556E+03  0.7546771E-02  0.1225166E+00
          2   -1    0    0  504    0 -0.00000000000E+00  0.00000000000E+00  0.20541569489E+03  0.20541569489E+03  0.00000000000E+00 0.  1.
         21   -1    0    0  503  502  0.00000000000E+00 -0.00000000000E+00 -0.13208066466E+04  0.13208066466E+04  0.00000000000E+00 0. -1.
         21    1    1    2  503  501 -0.77789502137E+02  0.82151793041E+02 -0.71280986775E+03  0.72173265916E+03  0.00000000000E+00 0. -1.
         21    1    1    2  504  505  0.94654509813E+01  0.30631354158E+02  0.61828759073E+02  0.69646752030E+02  0.00000000000E+00 0.  1.
         21    1    1    2  505  502  0.16266652617E+03 -0.13926750551E+03 -0.55902147943E+03  0.59863248433E+03  0.00000000000E+00 0. -1.
          2    1    1    2  501    0 -0.94342475018E+02  0.26484358308E+02  0.94611636440E+02  0.13621044592E+03  0.00000000000E+00 0.  1.
<scales pt_clust_3="14000.00000" pt_clust_4="32.06048" pt_clust_5="131.55560" pt_clust_6="100.83941"></scales>
<clustering>
<clus scale="   32.060">  1  4  2 -1</clus>
<clus scale="  100.839">  1  6  2 -1</clus>
<clus scale="  131.556">  1  5  2 -1</clus>
<clus scale="  131.556">  2  3  1 -1</clus>
</clustering>
</event>
<event>
 6    0  0.1631680E+002  0.2731678E+03  0.7546771E-02  0.1099480E+00
          2   -1    0    0  504    0 -0.00000000000E+00  0.00000000000E+00  0.18490027421E+04  0.18490027421E+04  0.00000000000E+00 0. -1.
         21   -1    0    0  501  502  0.00000000000E+00 -0.00000000000E+00 -0.10669152153E+03  0.10669152153E+03  0.00000000000E+00 0.  1.
         21    1    1    2  503  505 -0.10348934000E+03  0.20451469440E+03  0.11558818546E+03  0.25670397803E+03  0.00000000000E+00 0.  1.
         21    1    1    2  504  503 -0.46889885771E+02 -0.14833925923E+02  0.12218780012E+03  0.13171395235E+03  0.00000000000E+00 0.  1.
         21    1    1    2  505  502  0.40953421199E+02  0.74646676929E+02  0.89179784349E+02  0.12329778190E+03  0.00000000000E+00 0.  1.
          2    1    1    2  501    0  0.10942580457E+03 -0.26432744541E+03  0.14153554507E+04  0.14439785514E+04  0.00000000000E+00 0. -1.
<scales pt_clust_3="273.16777" pt_clust_4="49.18035" pt_clust_5="82.97560" pt_clust_6="14000.00000"></scales>
<clustering>
<clus scale="   49.180">  1  4  2 -1</clus>
<clus scale="   82.976">  2  5  1 -1</clus>
<clus scale="  273.168">  2  3  1 -1</clus>
<clus scale="   82.976">  2  3  1 -1</clus>
</clustering>
</event>
<event>
 6    0  0.1631680E+002  0.1888902E+03  0.7546771E-02  0.1159466E+00
         -3   -1    0    0    0  501 -0.00000000000E+00  0.00000000000E+00  0.10605232637E+04  0.10605232637E+04  0.00000000000E+00 0. -1.
         21   -1    0    0  504  502  0.00000000000E+00 -0.00000000000E+00 -0.50396042548E+03  0.50396042548E+03  0.00000000000E+00 0.  1.
         21    1    1    2  503  501  0.38260787977E+02 -0.35697304309E+02  0.10636021280E+03  0.11853556554E+03  0.00000000000E+00 0.  1.
         21    1    1    2  504  503  0.32160625284E+02  0.10315918505E+02 -0.32236166310E+03  0.32412615728E+03  0.00000000000E+00 0.  1.
         21    1    1    2  505  502  0.38580324170E+02 -0.18270339166E+03 -0.10440420644E+03  0.21393739519E+03  0.00000000000E+00 0.  1.
         -3    1    1    2    0  505 -0.10900173743E+03  0.20808477747E+03  0.87696849495E+03  0.90788457114E+03  0.00000000000E+00 0. -1.
<scales pt_clust_3="52.89207" pt_clust_4="33.77461" pt_clust_5="188.89025" pt_clust_6="14000.00000"></scales>
<clustering>
<clus scale="   33.775">  2  4  1 -1</clus>
<clus scale="   52.892">  1  3  2 -1</clus>
<clus scale="  188.890">  2  5  1 -1</clus>
<clus scale="   33.775">  2  3  1 -1</clus>
</clustering>
</event>
<event>
 6    0  0.1631680E+002  0.1171344E+03  0.7546771E-02  0.1247901E+00
         21   -1    0    0  505  502  0.00000000000E+00  0.00000000000E+00  0.34939284849E+03  0.34939284849E+03  0.00000000000E+00 0.  1.
          2   -1    0    0  504    0 -0.00000000000E+00 -0.00000000000E+00 -0.23533053731E+04  0.23533053731E+04  0.00000000000E+00 0. -1.
         21    1    1    2  503  502 -0.68583014587E+02  0.65890265082E+02 -0.98378865526E+02  0.13683405316E+03  0.00000000000E+00 0. -1.
         21    1    1    2  504  503  0.11865269008E+02  0.28460940530E+02 -0.71661018755E+02  0.78013533143E+02  0.00000000000E+00 0.  1.
         21    1    1    2  505  501 -0.42369006834E+02 -0.12363773974E+02  0.32357595030E+03  0.32657218384E+03  0.00000000000E+00 0.  1.
          2    1    1    2  501    0  0.99086752413E+02 -0.81987431637E+02 -0.21574485906E+04  0.21612784515E+04  0.00000000000E+00 0. -1.
<scales pt_clust_3="117.13439" pt_clust_4="30.83520" pt_clust_5="44.12338" pt_clust_6="14000.00000"></scales>
<clustering>
<clus scale="   30.835">  2  4  1 -1</clus>
<clus scale="   44.123">  1  5  2 -1</clus>
<clus scale="  117.134">  1  3  2 -1</clus>
<clus scale="   44.123">  1  3  2 -1</clus>
</clustering>
</event>
<event>
 6    0  0.1631680E+002  0.1076368E+03  0.7546771E-02  0.1265010E+00
          1   -1    0    0  505    0 -0.00000000000E+00  0.00000000000E+00  0.57915261741E+03  0.57915261741E+03  0.00000000000E+00 0.  1.
         21   -1    0    0  501  502  0.00000000000E+00 -0.00000000000E+00 -0.61069968747E+03  0.61069968747E+03  0.00000000000E+00 0.  1.
         21    1    1    2  503  502  0.31405296710E+02 -0.17654884438E+02 -0.44530850937E+03  0.44676353490E+03  0.00000000000E+00 0.  1.
         21    1    1    2  504  503  0.33957371006E+02  0.30403150186E+02 -0.13845454370E+03  0.14576390245E+03  0.00000000000E+00 0.  1.
         21    1    1    2  505  504  0.12317161074E+02 -0.10531253128E+03  0.28387625006E+03  0.30303162715E+03  0.00000000000E+00 0.  1.
          1    1    1    2  501    0 -0.77679828791E+02  0.92564265532E+02  0.26833973294E+03  0.29429324038E+03  0.00000000000E+00 0.  1.
<scales pt_clust_3="36.02760" pt_clust_4="62.91636" pt_clust_5="14000.00000" pt_clust_6="107.63679"></scales>
<clustering>
<clus scale="   36.028">  2  3  1 -1</clus>
<clus scale="   62.916">  2  4  1 -1</clus>
<clus scale="  107.637">  2  6  1 -1</clus>
<clus scale="   36.028">  2  3  1 -1</clus>
</clustering>
</event>
<event>
 6    0  0.1631680E+002  0.7864748E+02  0.7546771E-02  0.1332934E+00
         21   -1    0    0  504  502  0.00000000000E+00  0.00000000000E+00  0.13284060998E+03  0.13284060998E+03  0.00000000000E+00 0.  1.
          1   -1    0    0  505    0 -0.00000000000E+00 -0.00000000000E+00 -0.10578577670E+04  0.10578577670E+04  0.00000000000E+00 0.  1.
         21    1    1    2  503  501  0.39289146485E+02  0.22513138182E+02 -0.20420028514E+03  0.20916078713E+03  0.00000000000E+00 0.  1.
         21    1    1    2  504  503  0.18412610892E+02 -0.11208928453E+03  0.41747618577E+02  0.12102022807E+03  0.00000000000E+00 0.  1.
         21    1    1    2  505  502 -0.41853642567E+02  0.48933836430E+02  0.26946380741E+02  0.69802257692E+02  0.00000000000E+00 0.  1.
          1    1    1    2  501    0 -0.15848114810E+02  0.40642309917E+02 -0.78951087119E+03  0.79071510409E+03  0.00000000000E+00 0.  1.
<scales pt_clust_3="60.29695" pt_clust_4="14000.00000" pt_clust_5="78.64748" pt_clust_6="43.62293"></scales>
<clustering>
<clus scale="   43.623">  2  6  1 -1</clus>
<clus scale="   60.297">  2  3  1 -1</clus>
<clus scale="   78.647">  1  5  2 -1</clus>
<clus scale="   78.647">  1  3  2 -1</clus>
</clustering>
</event>
<event>
 6    0  0.1631680E+002  0.1644171E+03  0.7546771E-02  0.1183798E+00
         -4   -1    0    0    0  501 -0.00000000000E+00  0.00000000000E+00  0.35738632602E+03  0.35738632602E+03  0.00000000000E+00 0. -1.
         21   -1    0    0  505  502  0.00000000000E+00 -0.00000000000E+00 -0.28103537806E+03  0.28103537806E+03  0.00000000000E+00 0.  1.
         21    1    1    2  503  504  0.22623319269E+02 -0.23344812159E+02  0.48362325934E+02  0.58272715736E+02  0.00000000000E+00 0.  1.
         21    1    1    2  504  502 -0.15188237384E+03  0.10687964567E+03 -0.15121135484E+03  0.23949193718E+03  0.00000000000E+00 0.  1.
         21    1    1    2  505  501  0.14560038603E+03 -0.39611377233E+01  0.19373113709E+01  0.14566714180E+03  0.00000000000E+00 0. -1.
         -4    1    1    2    0  503 -0.16341331464E+02 -0.79573695784E+02  0.17726266550E+03  0.19498990937E+03  0.00000000000E+00 0. -1.
<scales pt_clust_3="32.27886" pt_clust_4="14000.00000" pt_clust_5="164.41714" pt_clust_6="115.04486"></scales>
<clustering>
<clus scale="   32.279">  3  6 -1 -1</clus>
<clus scale="  115.045">  1  3  2 -1</clus>
<clus scale="  164.417">  1  5  2 -1</clus>
<clus scale="  164.417">  2  3  1 -1</clus>
</clustering>
</event>
<event>
 6    0  0.1631680E+002  0.1594050E+03  0.7546771E-02  0.1189370E+00
          1   -1    0    0  504    0 -0.00000000000E+00  0.00000000000E+00  0.13773840552E+04  0.13773840552E+04  0.00000000000E+00 0.  1.
         21   -1    0    0  505  502  0.00000000000E+00 -0.00000000000E+00 -0.10139595494E+03  0.10139595494E+03  0.00000000000E+00 0. -1.
         21    1    1    2  503  502  0.87416367421E+02  0.15471351296E+03  0.36881993872E+02  0.18148877061E+03  0.00000000000E+00 0. -1.
         21    1    1    2  504  503  0.33234864950E+02 -0.45217761919E+01  0.80988589561E+03  0.81058014200E+03  0.00000000000E+00 0.  1.
         21    1    1    2  505  501  0.83248372872E+01 -0.37687648991E+02  0.20719096475E+02  0.43805738905E+02  0.00000000000E+00 0.  1.
          1    1    1    2  501    0 -0.12897606966E+03 -0.11250408778E+03  0.40850111433E+03  0.44290535865E+03  0.00000000000E+00 0.  1.
<scales pt_clust_3="159.40498" pt_clust_4="33.54106" pt_clust_5="39.29590" pt_clust_6="14000.00000"></scales>
<clustering>
<clus scale="   33.541">  1  4  2 -1</clus>
<clus scale="   39.296">  2  5  1 -1</clus>
<clus scale="  159.405">  2  3  1 -1</clus>
<clus scale="   39.296">  2  3  1 -1</clus>
</clustering>
</event>
<event>
 6    0  0.1631680E+002  0.8490952E+02  0.7546771E-02  0.1315669E+00
          1   -1    0    0  504    0 -0.00000000000E+00  0.00000000000E+00  0.10731450695E+04  0.10731450695E+04  0.00000000000E+00 0. -1.
         21   -1    0    0  505  502  0.00000000000E+00 -0.00000000000E+00 -0.17247349088E+04  0.17247349088E+04  0.00000000000E+00 0.  1.
         21    1    1    2  503  501 -0.60462231509E+02 -0.76897986868E+01  0.64828070249E+02  0.88980296331E+02  0.00000000000E+00 0.  1.
         21    1    1    2  504  502 -0.27067665866E+02 -0.46005720334E+02 -0.55635888633E+03  0.55891358477E+03  0.00000000000E+00 0.  1.
         21    1    1    2  505  503  0.10414323967E+03  0.83289748594E+02 -0.11508819962E+04  0.11585820497E+04  0.00000000000E+00 0.  1.
          1    1    1    2  501    0 -0.16613342295E+02 -0.29594229574E+02  0.99082297301E+03  0.99140404751E+03  0.00000000000E+00 0. -1.
<scales pt_clust_3="14000.00000" pt_clust_4="53.90612" pt_clust_5="84.90952" pt_clust_6="33.93850"></scales>
<clustering>
<clus scale="   33.938">  1  6  2 -1</clus>
<clus scale="   53.906">  2  4  1 -1</clus>
<clus scale="   84.910">  2  5  1 -1</clus>
<clus scale="   53.906">  2  3  1 -1</clus>
</clustering>
</event>
<event>
 6    0  0.1631680E+002  0.8295508E+02  0.7546771E-02  0.1320869E+00
         -4   -1    0    0    0  501 -0.00000000000E+00  0.00000000000E+00  0.13073881979E+03  0.13073881979E+03  0.00000000000E+00 0. -1.
         21   -1    0    0  505  502  0.00000000000E+00 -0.00000000000E+00 -0.32918039438E+03  0.32918039438E+03  0.00000000000E+00 0. -1.
         21    1    1    2  503  501 -0.25156681166E+02 -0.27645518303E+02 -0.12140214942E+02  0.39300357611E+02  0.00000000000E+00 0. -1.
         21    1    1    2  504  502 -0.14665501449E+02 -0.55832990147E+02 -0.10250508154E+03  0.11764221803E+03  0.00000000000E+00 0. -1.
         21    1    1    2  505  503  0.18002880378E+02 -0.33799379879E+02 -0.15794387427E+03  0.16252005784E+03  0.00000000000E+00 0. -1.
         -4    1    1    2    0  504  0.21819302237E+02  0.11727788833E+03  0.74147596166E+02  0.14045658069E+03  0.00000000000E+00 0. -1.
<scales pt_clust_3="37.37825" pt_clust_4="82.95508" pt_clust_5="38.54662" pt_clust_6="14000.00000"></scales>
<clustering>
<clus scale="   37.378">  1  3  2 -1</clus>
<clus scale="   38.547">  2  5  1 -1</clus>
<clus scale="   82.955">  2  4  1 -1</clus>
<clus scale="   38.547">  2  3  1 -1</clus>
</clustering>
</event>
<event>
 6    0  0.1631680E+002  0.1400619E+03  0.7546771E-02  0.1213246E+00
          2   -1    0    0  505    0 -0.00000000000E+00  0.00000000000E+00  0.42738189736E+04  0.42738189736E+04  0.00000000000E+00 0.  1.
         21   -1    0    0  504  502  0.00000000000E+00 -0.00000000000E+00 -0.30290268214E+02  0.30290268214E+02  0.00000000000E+00 0.  1.
         21    1    1    2  503  502 -0.14124432475E+03  0.53550050184E+02  0.30855982323E+03  0.34355018798E+03  0.00000000000E+00 0.  1.
         21    1    1    2  504  501  0.15161244358E+02 -0.45796695188E+02  0.91238781883E+02  0.10320715063E+03  0.00000000000E+00 0.  1.
         21    1    1    2  505  503 -0.83233660680E+02  0.40826783755E+02  0.67390777881E+03  0.68025463091E+03  0.00000000000E+00 0. -1.
          2    1    1    2  501    0  0.20931674107E+03 -0.48580138752E+02  0.31698223215E+04  0.31770972723E+04  0.00000000000E+00 0.  1.
<scales pt_clust_3="14000.00000" pt_clust_4="48.24107" pt_clust_5="88.41150" pt_clust_6="140.06187"></scales>
<clustering>
<clus scale="   48.241">  2  4  1 -1</clus>
<clus scale="   88.412">  1  5  2 -1</clus>
<clus scale="  140.062">  1  6  2 -1</clus>
<clus scale="   48.241">  2  3  1 -1</clus>
</clustering>
</event>
<event>
 6    0  0.1631680E+002  0.1367420E+03  0.7546771E-02  0.1217781E+00
         21   -1    0    0  505  502  0.00000000000E+00  0.00000000000E+00  0.18698073268E+03  0.18698073268E+03  0.00000000000E+00 0.  1.
         -3   -1    0    0    0  501 -0.00000000000E+00 -0.00000000000E+00 -0.39082785666E+03  0.39082785666E+03  0.00000000000E+00 0. -1.
         21    1    1    2  503  502 -0.32160593325E+02  0.20653723092E+02  0.50267639160E+02  0.63148361715E+02  0.00000000000E+00 0.  1.
         21    1    1    2  504  503 -0.72587057081E+02 -0.12772338916E+03  0.55677572847E+02  0.15710549676E+03  0.00000000000E+00 0.  1.
         21    1    1    2  505  501  0.73116479147E+01  0.51803123661E+02 -0.17306229584E+03  0.18079707425E+03  0.00000000000E+00 0.  1.
         -3    1    1    2    0  504  0.97436002491E+02  0.55266542407E+02 -0.13673004015E+03  0.17675765661E+03  0.00000000000E+00 0. -1.
<scales pt_clust_3="38.22146" pt_clust_4="136.74200" pt_clust_5="52.80033" pt_clust_6="14000.00000"></scales>
<clustering>
<clus scale="   38.221">  1  3  2 -1</clus>
<clus scale="   52.800">  2  5  1 -1</clus>
<clus scale="  136.742">  1  4  2 -1</clus>
<clus scale="   38.221">  1  3  2 -1</clus>
</clustering>
</event>
<event>
 6    0  0.1631680E+002  0.6237962E+02  0.7546771E-02  0.1388108E+00
         21   -1    0    0  503  502  0.00000000000E+00  0.00000000000E+00  0.18656531253E+04  0.18656531253E+04  0.00000000000E+00 0. -1.
          2   -1    0    0  505    0 -0.00000000000E+00 -0.00000000000E+00 -0.12235278143E+04  0.12235278143E+04  0.00000000000E+00 0.  1.
         21    1    1    2  503  501 -0.24455833954E+02 -0.40163729160E+02  0.17382510634E+04  0.17388869924E+04  0.00000000000E+00 0. -1.
         21    1    1    2  504  502  0.12744509577E+02  0.99630505157E+02  0.10176973592E+03  0.14298859825E+03  0.00000000000E+00 0. -1.
         21    1    1    2  505  504 -0.17040440375E+02 -0.81052764348E+02 -0.39425002285E+03  0.40285606329E+03  0.00000000000E+00 0.  1.
          2    1    1    2  501    0  0.28751764752E+02  0.21585988351E+02 -0.80364546548E+03  0.80444928557E+03  0.00000000000E+00 0.  1.
<scales pt_clust_3="46.99823" pt_clust_4="14000.00000" pt_clust_5="62.37962" pt_clust_6="35.95301"></scales>
<clustering>
<clus scale="   35.953">  2  6  1 -1</clus>
<clus scale="   46.998">  1  3  2 -1</clus>
<clus scale="   62.380">  2  5  1 -1</clus>
<clus scale="   46.998">  1  3  2 -1</clus>
</clustering>
</event>
<event>
 6    0  0.1631680E+002  0.1243600E+03  0.7546771E-02  0.1236073E+00
         21   -1    0    0  505  502  0.00000000000E+00  0.00000000000E+00  0.40244579142E+02  0.40244579142E+02  0.00000000000E+00 0. -1.
          2   -1    0    0  504    0 -0.00000000000E+00 -0.00000000000E+00 -0.12576023526E+04  0.12576023526E+04  0.00000000000E+00 0. -1.
         21    1    1    2  503  502  0.31410236977E+02 -0.23647054390E+02 -0.10443860688E+03  0.11159394596E+03  0.00000000000E+00 0.  1.
         21    1    1    2  504  503 -0.23457002695E+02 -0.42382648666E+02 -0.59384067501E+03  0.59581311431E+03  0.00000000000E+00 0. -1.
         21    1    1    2  505  501 -0.10456532388E+03 -0.52614553427E+02 -0.14549153298E+03  0.18673506462E+03  0.00000000000E+00 0. -1.
          2    1    1    2  501    0  0.96612089593E+02  0.11864425648E+03 -0.37358695863E+03  0.40370480690E+03  0.00000000000E+00 0. -1.
<scales pt_clust_3="39.31649" pt_clust_4="48.59956" pt_clust_5="124.36001" pt_clust_6="14000.00000"></scales>
<clustering>
<clus scale="   39.316">  1  3  2 -1</clus>
<clus scale="   48.600">  2  4  1 -1</clus>
<clus scale="  124.360">  1  5  2 -1</clus>
<clus scale="   39.316">  1  3  2 -1</clus>
</clustering>
</event>
<event>
 6    0  0.1631680E+002  0.1935704E+03  0.7546771E-02  0.1155280E+00
         21   -1    0    0  501  502  0.00000000000E+00  0.00000000000E+00  0.20203614124E+03  0.20203614124E+03  0.00000000000E+00 0.  1.
          1   -1    0    0  505    0 -0.00000000000E+00 -0.00000000000E+00 -0.63569048553E+03  0.63569048553E+03  0.00000000000E+00 0. -1.
         21    1    1    2  503  502 -0.48182914545E+01 -0.35026498470E+02  0.73366253371E+02  0.81441258962E+02  0.00000000000E+00 0.  1.
         21    1    1    2  504  503  0.40216182247E+02 -0.17194775868E+03  0.14852581598E+02  0.17721165935E+03  0.00000000000E+00 0.  1.
         21    1    1    2  505  504  0.46332742642E+02  0.55631164548E+02 -0.99761601167E+02  0.12326364662E+03  0.00000000000E+00 0. -1.
          1    1    1    2  501    0 -0.81730633435E+02  0.15134309260E+03 -0.42211157809E+03  0.45581006184E+03  0.00000000000E+00 0. -1.
<scales pt_clust_3="35.35635" pt_clust_4="14000.00000" pt_clust_5="69.59254" pt_clust_6="193.57041"></scales>
<clustering>
<clus scale="   35.356">  1  3  2 -1</clus>
<clus scale="   69.593">  2  5  1 -1</clus>
<clus scale="  193.570">  2  6  1 -1</clus>
<clus scale="   35.356">  1  3  2 -1</clus>
</clustering>
</event>
<event>
 6    0  0.1631680E+002  0.8243378E+02  0.7546771E-02  0.1322283E+00
          2   -1    0    0  503    0 -0.00000000000E+00  0.00000000000E+00  0.22695668629E+04  0.22695668629E+04  0.00000000000E+00 0.  1.
         21   -1    0    0  505  502  0.00000000000E+00 -0.00000000000E+00 -0.83851855677E+02  0.83851855677E+02  0.00000000000E+00 0.  1.
         21    1    1    2  503  504  0.94051523795E+02 -0.87993219144E+02  0.63140044756E+03  0.64440284056E+03  0.00000000000E+00 0. -1.
         21    1    1    2  504  502 -0.52076430516E+01  0.32551017891E+02 -0.20664202776E+02  0.38906266697E+02  0.00000000000E+00 0. -1.
         21    1    1    2  505  501 -0.44985575362E+02 -0.69935747379E+01 -0.35557894726E+02  0.57766564339E+02  0.00000000000E+00 0.  1.
          2    1    1    2  501    0 -0.43858305382E+02  0.62435775990E+02  0.16105366572E+04  0.16123430470E+04  0.00000000000E+00 0.  1.
<scales pt_clust_3="82.43378" pt_clust_4="32.96496" pt_clust_5="53.79096" pt_clust_6="14000.00000"></scales>
<clustering>
<clus scale="   32.965">  2  4  1 -1</clus>
<clus scale="   53.791">  2  5  1 -1</clus>
<clus scale="   82.434">  2  3  1 -1</clus>
<clus scale="   32.965">  2  3  1 -1</clus>
</clustering>
</event>
<event>
 6    0  0.1631680E+002  0.9203346E+02  0.7546771E-02  0.1298001E+00
         21   -1    0    0  503  502  0.00000000000E+00  0.00000000000E+00  0.10907632152E+03  0.10907632152E+03  0.00000000000E+00 0. -1.
          1   -1    0    0  505    0 -0.00000000000E+00 -0.00000000000E+00 -0.66976444414E+03  0.66976444414E+03  0.00000000000E+00 0.  1.
         21    1    1    2  503  501  0.17403428769E+02 -0.69884674365E+02  0.44452933800E+02  0.84633388018E+02  0.00000000000E+00 0. -1.
         21    1    1    2  504  502  0.34864986510E+02 -0.78355876061E+01  0.26233215561E+02  0.44329959578E+02  0.00000000000E+00 0. -1.
         21    1    1    2  505  504 -0.14158813109E+02 -0.31588630434E+02 -0.93888789407E+02  0.10006706920E+03  0.00000000000E+00 0.  1.
          1    1    1    2  501    0 -0.38109602170E+02  0.10930889240E+03 -0.53748548257E+03  0.54981034886E+03  0.00000000000E+00 0.  1.
<scales pt_clust_3="92.03346" pt_clust_4="35.62985" pt_clust_5="34.61667" pt_clust_6="14000.00000"></scales>
<clustering>
<clus scale="   34.617">  2  5  1 -1</clus>
<clus scale="   35.630">  1  4  2 -1</clus>
<clus scale="   92.033">  1  3  2 -1</clus>
<clus scale="   35.630">  1  3  2 -1</clus>
</clustering>
</event>
<event>
 6    0  0.1631680E+002  0.1117876E+03  0.7546771E-02  0.1257295E+00
         21   -1    0    0  503  502  0.00000000000E+00  0.00000000000E+00  0.52137506961E+03  0.52137506961E+03  0.00000000000E+00 0. -1.
         -1   -1    0    0    0  501 -0.00000000000E+00 -0.00000000000E+00 -0.23797376314E+03  0.23797376314E+03  0.00000000000E+00 0.  1.
         21    1    1    2  503  504  0.89092076613E+02 -0.16704129720E+02  0.11071550765E+03  0.14308860786E+03  0.00000000000E+00 0.  1.
         21    1    1    2  504  501  0.58628189230E+02 -0.70017845451E+01 -0.36405580597E+02  0.69366100206E+02  0.00000000000E+00 0.  1.
         21    1    1    2  505  502 -0.98669208902E+02  0.93138627288E+02  0.35387598073E+03  0.37899686861E+03  0.00000000000E+00 0. -1.
         -1    1    1    2    0  505 -0.49051056941E+02 -0.69432713023E+02 -0.14478460131E+03  0.16789725608E+03  0.00000000000E+00 0.  1.
<scales pt_clust_3="14000.00000" pt_clust_4="59.04481" pt_clust_5="111.78759" pt_clust_6="75.34849"></scales>
<clustering>
<clus scale="   59.045">  2  4  1 -1</clus>
<clus scale="   75.348">  2  6  1 -1</clus>
<clus scale="  111.788">  1  5  2 -1</clus>
<clus scale="  111.788">  1  3  2 -1</clus>
</clustering>
</event>
<event>
 6    0  0.1631680E+002  0.1019884E+03  0.7546771E-02  0.1276169E+00
         -2   -1    0    0    0  501 -0.00000000000E+00  0.00000000000E+00  0.21229965798E+04  0.21229965798E+04  0.00000000000E+00 0.  1.
         21   -1    0    0  504  502  0.00000000000E+00 -0.00000000000E+00 -0.46743274793E+02  0.46743274793E+02  0.00000000000E+00 0. -1.
         21    1    1    2  503  501  0.29299682853E+02 -0.19976636849E+02  0.11337030713E+04  0.11342575507E+04  0.00000000000E+00 0.  1.
         21    1    1    2  504  503  0.97450376075E+02 -0.37930233768E+02  0.42735643043E+02  0.11296731216E+03  0.00000000000E+00 0. -1.
         21    1    1    2  505  502 -0.74734306991E+02  0.64118221914E+02  0.22418603097E+03  0.24485861125E+03  0.00000000000E+00 0. -1.
         -2    1    1    2    0  505 -0.52015751937E+02 -0.62113512965E+01  0.67562855967E+03  0.67765638046E+03  0.00000000000E+00 0.  1.
<scales pt_clust_3="35.46177" pt_clust_4="14000.00000" pt_clust_5="101.98839" pt_clust_6="37.64634"></scales>
<clustering>
<clus scale="   35.462">  1  3  2 -1</clus>
<clus scale="   37.646">  1  6  2 -1</clus>
<clus scale="  101.988">  1  5  2 -1</clus>
<clus scale="  101.988">  2  3  1 -1</clus>
</clustering>
</event>
<event>
 6    0  0.1631680E+002  0.1332827E+03  0.7546771E-02  0.1222665E+00
          2   -1    0    0  503    0 -0.00000000000E+00  0.00000000000E+00  0.14415070308E+04  0.14415070308E+04  0.00000000000E+00 0.  1.
         21   -1    0    0  505  502  0.00000000000E+00 -0.00000000000E+00 -0.15745626172E+04  0.15745626172E+04  0.00000000000E+00 0.  1.
         21    1    1    2  503  504  0.42398565374E+02 -0.29373577454E+02  0.18838078609E+03  0.19531453086E+03  0.00000000000E+00 0. -1.
         21    1    1    2  504  502  0.13074422058E+03  0.89200387547E+01 -0.14431947550E+04  0.14491324022E+04  0.00000000000E+00 0.  1.
         21    1    1    2  505  501 -0.20989349867E+03  0.62090368583E+02 -0.27871664931E+02  0.22065204364E+03  0.00000000000E+00 0. -1.
          2    1    1    2  501    0  0.36750712717E+02 -0.41636829884E+02  0.11496300474E+04  0.11509706714E+04  0.00000000000E+00 0.  1.
<scales pt_clust_3="51.57951" pt_clust_4="14000.00000" pt_clust_5="133.28267" pt_clust_6="102.26723"></scales>
<clustering>
<clus scale="   51.580">  1  3  2 -1</clus>
<clus scale="  102.267">  1  6  2 -1</clus>
<clus scale="  133.283">  1  5  2 -1</clus>
<clus scale="  133.283">  2  3  1 -1</clus>
</clustering>
</event>
<event>
 6    0  0.1631680E+002  0.9581079E+02  0.7546771E-02  0.1289360E+00
          3   -1    0    0  505    0 -0.00000000000E+00  0.00000000000E+00  0.32571198648E+03  0.32571198648E+03  0.00000000000E+00 0.  1.
         21   -1    0    0  504  502  0.00000000000E+00 -0.00000000000E+00 -0.22805984261E+03  0.22805984261E+03  0.00000000000E+00 0.  1.
         21    1    1    2  503  502  0.20991490975E+02 -0.52187626343E+02 -0.86456161589E+02  0.10314484434E+03  0.00000000000E+00 0.  1.
         21    1    1    2  504  501  0.78470197761E+02  0.36612257410E+02 -0.97225954304E+02  0.13019568165E+03  0.00000000000E+00 0.  1.
         21    1    1    2  505  503 -0.13416186462E+02 -0.44825520342E+02  0.67234393538E+02  0.81913277358E+02  0.00000000000E+00 0. -1.
          3    1    1    2  501    0 -0.86045502274E+02  0.60400889275E+02  0.21409986623E+03  0.23851802574E+03  0.00000000000E+00 0.  1.
<scales pt_clust_3="57.47476" pt_clust_4="95.81079" pt_clust_5="46.79018" pt_clust_6="14000.00000"></scales>
<clustering>
<clus scale="   46.790">  1  5  2 -1</clus>
<clus scale="   57.475">  2  3  1 -1</clus>
<clus scale="   95.811">  2  4  1 -1</clus>
<clus scale="   57.475">  2  3  1 -1</clus>
</clustering>
</event>
<event>
 6    0  0.1631680E+002  0.9988556E+02  0.7546771E-02  0.1280537E+00
         21   -1    0    0  505  502  0.00000000000E+00  0.00000000000E+00  0.13290815413E+03  0.13290815413E+03  0.00000000000E+00 0.  1.
          2   -1    0    0  504    0 -0.00000000000E+00 -0.00000000000E+00 -0.55702803111E+04  0.55702803111E+04  0.00000000000E+00 0.  1.
         21    1    1    2  503  502  0.33105165118E+01 -0.39338358765E+02  0.10556975240E+03  0.11270953204E+03  0.00000000000E+00 0.  1.
         21    1    1    2  504  503 -0.61403656228E+02  0.31489584637E+02 -0.61544013067E+03  0.61929682494E+03  0.00000000000E+00 0.  1.
         21    1    1    2  505  501 -0.47337043273E+02  0.39508859767E+02 -0.23561938444E+02  0.66006898194E+02  0.00000000000E+00 0. -1.
          2    1    1    2  501    0  0.10543018299E+03 -0.31660085639E+02 -0.49039398403E+04  0.49051752101E+04  0.00000000000E+00 0.  1.
<scales pt_clust_3="39.47741" pt_clust_4="14000.00000" pt_clust_5="44.59718" pt_clust_6="99.88556"></scales>
<clustering>
<clus scale="   39.477">  1  3  2 -1</clus>
<clus scale="   44.597">  1  5  2 -1</clus>
<clus scale="   99.886">  2  6  1 -1</clus>
<clus scale="   39.477">  1  3  2 -1</clus>
</clustering>
</event>
<event>
 6    0  0.1631680E+002  0.1473342E+03  0.7546771E-02  0.1203788E+00
          2   -1    0    0  503    0 -0.00000000000E+00  0.00000000000E+00  0.52764579157E+03  0.52764579157E+03  0.00000000000E+00 0.  1.
         21   -1    0    0  504  502  0.00000000000E+00 -0.00000000000E+00 -0.26401557427E+03  0.26401557427E+03  0.00000000000E+00 0.  1.
         21    1    1    2  503  505 -0.35023095133E+02 -0.16098801129E+03 -0.14060858081E+03  0.21659762226E+03  0.00000000000E+00 0.  1.
         21    1    1    2  504  501  0.11693491326E+02  0.91307525343E+02  0.23920160069E+03  0.25630296076E+03  0.00000000000E+00 0.  1.
         21    1    1    2  505  502  0.22588262832E+02  0.21733837087E+02 -0.71153110780E+02  0.77751877572E+02  0.00000000000E+00 0. -1.
          2    1    1    2  501    0  0.74134097539E+00  0.47946648856E+02  0.23619030820E+03  0.24100890525E+03  0.00000000000E+00 0.  1.
<scales pt_clust_3="141.18103" pt_clust_4="30.41013" pt_clust_5="31.34628" pt_clust_6="30.41013"></scales>
<clustering>
<clus scale="   30.410">  4  6 -1 -1</clus>
<clus scale="   31.346">  2  5  1 -1</clus>
<clus scale="  141.181">  2  3  1 -1</clus>
<clus scale="   31.346">  2  3  1 -1</clus>
</clustering>
</event>
<event>
 6    0  0.1631680E+002  0.1129603E+03  0.7546771E-02  0.1255184E+00
          2   -1    0    0  503    0 -0.00000000000E+00  0.00000000000E+00  0.36536056629E+03  0.36536056629E+03  0.00000000000E+00 0. -1.
         21   -1    0    0  505  502  0.00000000000E+00 -0.00000000000E+00 -0.14641347013E+04  0.14641347013E+04  0.00000000000E+00 0.  1.
         21    1    1    2  503  504  0.10899915221E+02  0.38644553474E+02 -0.25189452852E+02  0.47399559070E+02  0.00000000000E+00 0.  1.
         21    1    1    2  504  502 -0.32576445150E+02 -0.65803281065E+02  0.40706103193E+02  0.83954055380E+02  0.00000000000E+00 0.  1.
         21    1    1    2  505  501 -0.11275301498E+03  0.31193094262E+01 -0.13878310869E+04  0.13924073032E+04  0.00000000000E+00 0.  1.
          2    1    1    2  501    0  0.13442954491E+03  0.24039418165E+02  0.27354030149E+03  0.30573434990E+03  0.00000000000E+00 0. -1.
<scales pt_clust_3="40.15233" pt_clust_4="66.49370" pt_clust_5="14000.00000" pt_clust_6="112.96031"></scales>
<clustering>
<clus scale="   40.152">  1  3  2 -1</clus>
<clus scale="   66.494">  1  4  2 -1</clus>
<clus scale="  112.960">  1  6  2 -1</clus>
<clus scale="  112.960">  2  3  1 -1</clus>
</clustering>
</event>
<event>
 6    0  0.1631680E+002  0.1056453E+03  0.7546771E-02  0.1268853E+00
         21   -1    0    0  505  502  0.00000000000E+00  0.00000000000E+00  0.47022818658E+03  0.47022818658E+03  0.00000000000E+00 0.  1.
          1   -1    0    0  504    0 -0.00000000000E+00 -0.00000000000E+00 -0.24373515631E+03  0.24373515631E+03  0.00000000000E+00 0. -1.
         21    1    1    2  503  502 -0.21238595716E+02  0.46286499839E+02  0.76329808775E+02  0.91759237807E+02  0.00000000000E+00 0.  1.
         21    1    1    2  504  503 -0.45132473589E+00  0.30962087466E+02 -0.41609510034E+02  0.51867194637E+02  0.00000000000E+00 0.  1.
         21    1    1    2  505  501  0.11269144569E+03  0.46167440602E+01  0.35147083114E+03  0.36912385645E+03  0.00000000000E+00 0.  1.
          1    1    1    2  501    0 -0.91001525235E+02 -0.81865331365E+02 -0.15969809962E+03  0.20121305399E+03  0.00000000000E+00 0. -1.
<scales pt_clust_3="52.03832" pt_clust_4="30.96538" pt_clust_5="105.64526" pt_clust_6="14000.00000"></scales>
<clustering>
<clus scale="   30.965">  2  4  1 -1</clus>
<clus scale="   52.038">  1  3  2 -1</clus>
<clus scale="  105.645">  1  5  2 -1</clus>
<clus scale="   52.038">  1  3  2 -1</clus>
</clustering>
</event>
<event>
 6    0  0.1631680E+002  0.1144739E+03  0.7546771E-02  0.1252502E+00
         21   -1    0    0  505  502  0.00000000000E+00  0.00000000000E+00  0.22529892806E+03  0.22529892806E+03  0.00000000000E+00 0. -1.
          1   -1    0    0  504    0 -0.00000000000E+00 -0.00000000000E+00 -0.69695425278E+03  0.69695425278E+03  0.00000000000E+00 0.  1.
         21    1    1    2  503  502  0.32683273733E+02  0.22624088215E+02  0.11686175093E+03  0.12343708754E+03  0.00000000000E+00 0. -1.
         21    1    1    2  504  503  0.12807327285E+02 -0.72271837573E+02  0.66573274071E+02  0.99092113505E+02  0.00000000000E+00 0. -1.
         21    1    1    2  505  501  0.76095391294E+02  0.77681639389E+02 -0.19785137001E+03  0.22576560918E+03  0.00000000000E+00 0. -1.
          1    1    1    2  501    0 -0.12158599231E+03 -0.28033890032E+02 -0.45723897971E+03  0.47395837062E+03  0.00000000000E+00 0.  1.
<scales pt_clust_3="39.74979" pt_clust_4="66.71694" pt_clust_5="114.47392" pt_clust_6="14000.00000"></scales>
<clustering>
<clus scale="   39.750">  1  3  2 -1</clus>
<clus scale="   66.717">  1  4  2 -1</clus>
<clus scale="  114.474">  1  5  2 -1</clus>
<clus scale="   39.750">  1  3  2 -1</clus>
</clustering>
</event>
<event>
 6    0  0.1631680E+002  0.7892674E+02  0.7546771E-02  0.1332125E+00
          1   -1    0    0  504    0 -0.00000000000E+00  0.00000000000E+00  0.11626418133E+04  0.11626418133E+04  0.00000000000E+00 0.  1.
         21   -1    0    0  503  502  0.00000000000E+00 -0.00000000000E+00 -0.24313621961E+03  0.24313621961E+03  0.00000000000E+00 0. -1.
         21    1    1    2  503  501 -0.59930474686E+02 -0.51049831662E+02 -0.22475945029E+03  0.23814818412E+03  0.00000000000E+00 0. -1.
         21    1    1    2  504  505 -0.14799136877E+02  0.31497554310E+02  0.58369723866E+02  0.67956861641E+02  0.00000000000E+00 0.  1.
         21    1    1    2  505  502 -0.20687013470E+02 -0.35554641424E+02  0.10764739549E+03  0.11523908542E+03  0.00000000000E+00 0.  1.
          1    1    1    2  501    0  0.95416625034E+02  0.55106918775E+02  0.97824792458E+03  0.98443390168E+03  0.00000000000E+00 0.  1.
<scales pt_clust_3="78.92674" pt_clust_4="34.80101" pt_clust_5="39.23732" pt_clust_6="14000.00000"></scales>
<clustering>
<clus scale="   34.801">  1  4  2 -1</clus>
<clus scale="   39.237">  1  5  2 -1</clus>
<clus scale="   78.927">  2  3  1 -1</clus>
<clus scale="   78.927">  2  3  1 -1</clus>
</clustering>
</event>
<event>
 6    0  0.1631680E+002  0.1251696E+03  0.7546771E-02  0.1234805E+00
         21   -1    0    0  504  502  0.00000000000E+00  0.00000000000E+00  0.87460336429E+03  0.87460336429E+03  0.00000000000E+00 0. -1.
         -2   -1    0    0    0  501 -0.00000000000E+00 -0.00000000000E+00 -0.37588424229E+02  0.37588424229E+02  0.00000000000E+00 0. -1.
         21    1    1    2  503  501 -0.16900499317E+01  0.50963322431E+02  0.31194406577E+02  0.59776312229E+02  0.00000000000E+00 0.  1.
         21    1    1    2  504  505  0.86308826812E+02 -0.45964757183E+02  0.57246527729E+03  0.58075680468E+03  0.00000000000E+00 0. -1.
         21    1    1    2  505  503  0.88745366715E+01 -0.30837880828E+02  0.11085300075E+03  0.11540415967E+03  0.00000000000E+00 0. -1.
         -2    1    1    2    0  502 -0.93493313552E+02  0.25839315579E+02  0.12250225545E+03  0.15625451193E+03  0.00000000000E+00 0. -1.
<scales pt_clust_3="50.99134" pt_clust_4="30.08277" pt_clust_5="30.08277" pt_clust_6="113.62094"></scales>
<clustering>
<clus scale="   30.083">  4  5 -1 -1</clus>
<clus scale="   50.991">  2  3  1 -1</clus>
<clus scale="  113.621">  2  6  1 -1</clus>
<clus scale="  125.170">  1  3  2 -1</clus>
</clustering>
</event>
<event>
 6    0  0.1631680E+002  0.1032801E+03  0.7546771E-02  0.1273546E+00
         21   -1    0    0  505  502  0.00000000000E+00  0.00000000000E+00  0.48364439897E+03  0.48364439897E+03  0.00000000000E+00 0. -1.
          2   -1    0    0  503    0 -0.00000000000E+00 -0.00000000000E+00 -0.74894046596E+02  0.74894046596E+02  0.00000000000E+00 0.  1.
         21    1    1    2  503  502  0.15141032963E+02 -0.47986514485E+02  0.98321453041E+01  0.51270142704E+02  0.00000000000E+00 0. -1.
         21    1    1    2  504  501  0.61763532522E+01  0.12417850159E+03  0.17740575574E+03  0.21663621527E+03  0.00000000000E+00 0. -1.
         21    1    1    2  505  504  0.72457206895E+02 -0.22866796927E+02  0.12281930398E+03  0.14442132344E+03  0.00000000000E+00 0. -1.
          2    1    1    2  501    0 -0.93774593110E+02 -0.53325190182E+02  0.98693147347E+02  0.14621076415E+03  0.00000000000E+00 0.  1.
<scales pt_clust_3="50.31855" pt_clust_4="103.28012" pt_clust_5="82.14972" pt_clust_6="14000.00000"></scales>
<clustering>
<clus scale="   50.319">  2  3  1 -1</clus>
<clus scale="   82.150">  1  5  2 -1</clus>
<clus scale="  103.280">  1  4  2 -1</clus>
<clus scale="   82.150">  1  3  2 -1</clus>
</clustering>
</event>
<event>
 6    0  0.1631680E+002  0.8801627E+02  0.7546771E-02  0.1307728E+00
          2   -1    0    0  505    0 -0.00000000000E+00  0.00000000000E+00  0.95803399382E+03  0.95803399382E+03  0.00000000000E+00 0. -1.
         21   -1    0    0  504  502  0.00000000000E+00 -0.00000000000E+00 -0.53835593289E+03  0.53835593289E+03  0.00000000000E+00 0.  1.
         21    1    1    2  503  502  0.55760682941E+02 -0.78232920206E+02  0.11448160913E+02  0.96750731028E+02  0.00000000000E+00 0.  1.
         21    1    1    2  504  501 -0.40521396895E+02 -0.96240569628E+01 -0.48788579335E+03  0.48966024285E+03  0.00000000000E+00 0.  1.
         21    1    1    2  505  503 -0.48660282010E+02  0.40286685992E+01  0.13550983438E+03  0.14403807979E+03  0.00000000000E+00 0. -1.
          2    1    1    2  501    0  0.33420995963E+02  0.83828308570E+02  0.76060585898E+03  0.76594087305E+03  0.00000000000E+00 0. -1.
<scales pt_clust_3="88.01627" pt_clust_4="41.64860" pt_clust_5="52.24327" pt_clust_6="14000.00000"></scales>
<clustering>
<clus scale="   41.649">  2  4  1 -1</clus>
<clus scale="   52.243">  1  5  2 -1</clus>
<clus scale="   88.016">  2  3  1 -1</clus>
<clus scale="   41.649">  2  3  1 -1</clus>
</clustering>
</event>
<event>
 6    0  0.1631680E+002  0.8806055E+02  0.7546771E-02  0.1307617E+00
         -2   -1    0    0    0  501 -0.00000000000E+00  0.00000000000E+00  0.97841303477E+03  0.97841303477E+03  0.00000000000E+00 0.  1.
         21   -1    0    0  505  502  0.00000000000E+00 -0.00000000000E+00 -0.67578912391E+02  0.67578912391E+02  0.00000000000E+00 0.  1.
         21    1    1    2  503  502  0.39283307862E+02  0.20360809191E+02 -0.35281265337E+02  0.56590710468E+02  0.00000000000E+00 0.  1.
         21    1    1    2  504  503 -0.48662732906E+02 -0.90973750115E+02  0.22569160470E+03  0.24815516359E+03  0.00000000000E+00 0.  1.
         21    1    1    2  505  501  0.28332580533E+02 -0.16510750984E+02  0.28042975304E+02  0.43147983517E+02  0.00000000000E+00 0.  1.
         -2    1    1    2    0  504 -0.18953155489E+02  0.87123691908E+02  0.69238080772E+03  0.69809808959E+03  0.00000000000E+00 0.  1.
<scales pt_clust_3="61.45275" pt_clust_4="88.06055" pt_clust_5="32.79238" pt_clust_6="14000.00000"></scales>
<clustering>
<clus scale="   32.792">  2  5  1 -1</clus>
<clus scale="   61.453">  2  3  1 -1</clus>
<clus scale="   88.061">  2  4  1 -1</clus>
<clus scale="   32.792">  2  3  1 -1</clus>
</clustering>
</event>
<event>
 6    0  0.1631680E+002  0.7789307E+02  0.7546771E-02  0.1335139E+00
          2   -1    0    0  503    0 -0.00000000000E+00  0.00000000000E+00  0.17834042077E+04  0.17834042077E+04  0.00000000000E+00 0. -1.
         21   -1    0    0  505  502  0.00000000000E+00 -0.00000000000E+00 -0.71610178427E+03  0.71610178427E+03  0.00000000000E+00 0. -1.
         21    1    1    2  503  504 -0.46117017792E+01 -0.32151461694E+02  0.18491453072E+02  0.37375367812E+02  0.00000000000E+00 0.  1.
         21    1    1    2  504  502  0.10446712375E+03  0.19832077377E+02 -0.20326110536E+03  0.22939435082E+03  0.00000000000E+00 0. -1.
         21    1    1    2  505  501 -0.28458606548E+02 -0.30764275095E+02 -0.48843655940E+03  0.49023117554E+03  0.00000000000E+00 0. -1.
          2    1    1    2  501    0 -0.71396815422E+02  0.43083659412E+02  0.17405086352E+04  0.17425050978E+04  0.00000000000E+00 0. -1.
<scales pt_clust_3="32.48052" pt_clust_4="14000.00000" pt_clust_5="41.92229" pt_clust_6="77.89307"></scales>
<clustering>
<clus scale="   32.481">  1  3  2 -1</clus>
<clus scale="   41.922">  2  5  1 -1</clus>
<clus scale="   77.893">  1  6  2 -1</clus>
<clus scale="   41.922">  2  3  1 -1</clus>
</clustering>
</event>
<event>
 6    0  0.1631680E+002  0.4087582E+03  0.7546771E-02  0.1040789E+00
          2   -1    0    0  503    0 -0.00000000000E+00  0.00000000000E+00  0.22259614769E+04  0.22259614769E+04  0.00000000000E+00 0. -1.
         21   -1    0    0  505  502  0.00000000000E+00 -0.00000000000E+00 -0.52705037250E+03  0.52705037250E+03  0.00000000000E+00 0.  1.
         21    1    1    2  503  504 -0.12185253642E+02 -0.28351244645E+02  0.25319144068E+03  0.25506504879E+03  0.00000000000E+00 0. -1.
         21    1    1    2  504  502 -0.97484934931E+02  0.77033434784E+02 -0.33505303053E+03  0.35734856356E+03  0.00000000000E+00 0.  1.
         21    1    1    2  505  501 -0.32409752468E+03 -0.63174324147E+02  0.24066463141E+02  0.33107309674E+03  0.00000000000E+00 0.  1.
          2    1    1    2  501    0  0.43376771326E+03  0.14492134008E+02  0.17567062311E+04  0.18095251403E+04  0.00000000000E+00 0. -1.
<scales pt_clust_3="30.85893" pt_clust_4="124.20238" pt_clust_5="408.75820" pt_clust_6="14000.00000"></scales>
<clustering>
<clus scale="   30.859">  1  3  2 -1</clus>
<clus scale="  124.202">  2  4  1 -1</clus>
<clus scale="  408.758">  2  5  1 -1</clus>
<clus scale="  124.202">  2  3  1 -1</clus>
</clustering>
</event>
<event>
 6    0  0.1631680E+002  0.1000089E+03  0.7546771E-02  0.1280277E+00
         21   -1    0    0  505  502  0.00000000000E+00  0.00000000000E+00  0.36504670742E+03  0.36504670742E+03  0.00000000000E+00 0.  1.
          2   -1    0    0  504    0 -0.00000000000E+00 -0.00000000000E+00 -0.61380950381E+03  0.61380950381E+03  0.00000000000E+00 0.  1.
         21    1    1    2  503  501  0.16666410604E+02 -0.66483057479E+02 -0.23838758554E+03  0.24804517152E+03  0.00000000000E+00 0.  1.
         21    1    1    2  504  502 -0.70904163267E+02  0.12787626561E+02 -0.26993197863E+02  0.76938654086E+02  0.00000000000E+00 0. -1.
         21    1    1    2  505  503  0.54839394579E+02  0.85625570170E+02  0.32669605688E+03  0.34215407501E+03  0.00000000000E+00 0.  1.
          2    1    1    2  501    0 -0.60164191638E+00 -0.31930139253E+02 -0.31007806986E+03  0.31171831062E+03  0.00000000000E+00 0.  1.
<scales pt_clust_3="14000.00000" pt_clust_4="71.38264" pt_clust_5="100.00889" pt_clust_6="31.93581"></scales>
<clustering>
<clus scale="   31.936">  2  6  1 -1</clus>
<clus scale="   71.383">  2  4  1 -1</clus>
<clus scale="  100.009">  1  5  2 -1</clus>
<clus scale="  100.009">  1  3  2 -1</clus>
</clustering>
</event>
<event>
 6    0  0.1631680E+002  0.8681406E+02  0.7546771E-02  0.1310756E+00
          2   -1    0    0  503    0 -0.00000000000E+00  0.00000000000E+00  0.73777615281E+03  0.73777615281E+03  0.00000000000E+00 0. -1.
         21   -1    0    0  505  502  0.00000000000E+00 -0.00000000000E+00 -0.44709394824E+03  0.44709394824E+03  0.00000000000E+00 0.  1.
         21    1    1    2  503  504 -0.28247967602E+02 -0.32560998923E+02  0.10906487126E+03  0.11727451755E+03  0.00000000000E+00 0.  1.
         21    1    1    2  504  502  0.83225848887E+02  0.96658853566E+02 -0.35549064975E+03  0.37768118560E+03  0.00000000000E+00 0.  1.
         21    1    1    2  505  501 -0.88138860711E+01 -0.50828751649E+02 -0.66631350729E+02  0.84267333421E+02  0.00000000000E+00 0.  1.
          2    1    1    2  501    0 -0.46163995214E+02 -0.13269102994E+02  0.60373933379E+03  0.60564706448E+03  0.00000000000E+00 0. -1.
<scales pt_clust_3="43.10645" pt_clust_4="86.81406" pt_clust_5="52.10928" pt_clust_6="14000.00000"></scales>
<clustering>
<clus scale="   43.106">  1  3  2 -1</clus>
<clus scale="   52.109">  2  5  1 -1</clus>
<clus scale="   86.814">  2  4  1 -1</clus>
<clus scale="   52.109">  2  3  1 -1</clus>
</clustering>
</event>
<event>
 6    0  0.1631680E+002  0.7974406E+02  0.7546771E-02  0.1329779E+00
         21   -1    0    0  505  502  0.00000000000E+00  0.00000000000E+00  0.16502318938E+03  0.16502318938E+03  0.00000000000E+00 0. -1.
          2   -1    0    0  504    0 -0.00000000000E+00 -0.00000000000E+00 -0.64438047953E+03  0.64438047953E+03  0.00000000000E+00 0. -1.
         21    1    1    2  503  502 -0.57847250823E+02  0.19165691554E+02  0.10148003431E+03  0.11837155707E+03  0.00000000000E+00 0. -1.
         21    1    1    2  504  503 -0.45950001151E+02 -0.10307345673E+02 -0.11684843163E+03  0.12598095076E+03  0.00000000000E+00 0. -1.
         21    1    1    2  505  501  0.94973738720E+02 -0.84565903805E+02 -0.38611953968E+02  0.13289953394E+03  0.00000000000E+00 0. -1.
          2    1    1    2  501    0  0.88235132543E+01  0.75707557925E+02 -0.42537693887E+03  0.43215162713E+03  0.00000000000E+00 0. -1.
<scales pt_clust_3="61.59286" pt_clust_4="47.09187" pt_clust_5="79.74406" pt_clust_6="14000.00000"></scales>
<clustering>
<clus scale="   47.092">  2  4  1 -1</clus>
<clus scale="   61.593">  1  3  2 -1</clus>
<clus scale="   79.744">  1  5  2 -1</clus>
<clus scale="   61.593">  1  3  2 -1</clus>
</clustering>
</event>
<event>
 6    0  0.1631680E+002  0.1306253E+03  0.7546771E-02  0.1226531E+00
          2   -1    0    0  504    0 -0.00000000000E+00  0.00000000000E+00  0.30389143674E+04  0.30389143674E+04  0.00000000000E+00 0. -1.
         21   -1    0    0  503  502  0.00000000000E+00 -0.00000000000E+00 -0.29279428505E+02  0.29279428505E+02  0.00000000000E+00 0. -1.
         21    1    1    2  503  505  0.66575020722E+02 -0.23931828907E+02  0.72854109328E+02  0.10155140110E+03  0.00000000000E+00 0. -1.
         21    1    1    2  504  502  0.28115627267E+02  0.27799067826E+02  0.28230934227E+03  0.28506462671E+03  0.00000000000E+00 0. -1.
         21    1    1    2  505  501  0.48705667233E+02  0.32003154029E+02  0.62728543480E+02  0.85623093004E+02  0.00000000000E+00 0. -1.
          2    1    1    2  501    0 -0.14339631522E+03 -0.35870392948E+02  0.25917429438E+04  0.25959546751E+04  0.00000000000E+00 0. -1.
<scales pt_clust_3="52.37610" pt_clust_4="39.53829" pt_clust_5="52.37610" pt_clust_6="117.32909"></scales>
<clustering>
<clus scale="   39.538">  1  4  2 -1</clus>
<clus scale="   52.376">  3  5 -1 -1</clus>
<clus scale="  117.329">  1  6  2 -1</clus>
<clus scale="  130.625">  2  3  1 -1</clus>
</clustering>
</event>
<event>
 6    0  0.1631680E+002  0.4195735E+03  0.7546771E-02  0.1037205E+00
         21   -1    0    0  501  502  0.00000000000E+00  0.00000000000E+00  0.23063766856E+03  0.23063766856E+03  0.00000000000E+00 0. -1.
          1   -1    0    0  503    0 -0.00000000000E+00 -0.00000000000E+00 -0.17394357994E+04  0.17394357994E+04  0.00000000000E+00 0. -1.
         21    1    1    2  503  504  0.31228068762E+02  0.62798517565E+01 -0.35974987642E+03  0.36115730977E+03  0.00000000000E+00 0.  1.
         21    1    1    2  504  505 -0.23484867317E+03  0.28440430252E+03 -0.15933624327E+03  0.40178071755E+03  0.00000000000E+00 0. -1.
         21    1    1    2  505  502 -0.19989208630E+03 -0.96941051383E+02 -0.19770467242E+03  0.29739124248E+03  0.00000000000E+00 0.  1.
          1    1    1    2  501    0  0.40351269071E+03 -0.19374310289E+03 -0.79200733876E+03  0.90974419818E+03  0.00000000000E+00 0. -1.
<scales pt_clust_3="31.85324" pt_clust_4="419.57354" pt_clust_5="216.62731" pt_clust_6="14000.00000"></scales>
<clustering>
<clus scale="   31.853">  2  3  1 -1</clus>
<clus scale="  216.627">  1  5  2 -1</clus>
<clus scale="  419.574">  1  4  2 -1</clus>
<clus scale="  216.627">  1  3  2 -1</clus>
</clustering>
</event>
<event>
 6    0  0.1631680E+002  0.8817317E+02  0.7546771E-02  0.1307337E+00
         21   -1    0    0  505  502  0.00000000000E+00  0.00000000000E+00  0.35539527704E+02  0.35539527704E+02  0.00000000000E+00 0.  1.
         -4   -1    0    0    0  501 -0.00000000000E+00 -0.00000000000E+00 -0.14334607367E+04  0.14334607367E+04  0.00000000000E+00 0. -1.
         21    1    1    2  503  502  0.24767076521E+02 -0.72581691680E+02 -0.54068587813E+02  0.93834547127E+02  0.00000000000E+00 0.  1.
         21    1    1    2  504  501 -0.80328532563E+02  0.18462252426E+01 -0.30356131892E+03  0.31401521625E+03  0.00000000000E+00 0.  1.
         21    1    1    2  505  504 -0.25350262731E+02  0.19197222755E+02 -0.22754641238E+02  0.39101699194E+02  0.00000000000E+00 0.  1.
         -4    1    1    2    0  503  0.80911718773E+02  0.51538243682E+02 -0.10175366610E+04  0.10220488019E+04  0.00000000000E+00 0. -1.
<scales pt_clust_3="58.97650" pt_clust_4="14000.00000" pt_clust_5="31.79889" pt_clust_6="88.17317"></scales>
<clustering>
<clus scale="   31.799">  1  5  2 -1</clus>
<clus scale="   58.977">  1  3  2 -1</clus>
<clus scale="   88.173">  2  6  1 -1</clus>
<clus scale="   31.799">  1  3  2 -1</clus>
</clustering>
</event>
<event>
 6    0  0.1631680E+002  0.7912679E+02  0.7546771E-02  0.1331548E+00
         21   -1    0    0  503  502  0.00000000000E+00  0.00000000000E+00  0.30033667006E+03  0.30033667006E+03  0.00000000000E+00 0. -1.
          2   -1    0    0  505    0 -0.00000000000E+00 -0.00000000000E+00 -0.28211267375E+04  0.28211267375E+04  0.00000000000E+00 0. -1.
         21    1    1    2  503  501 -0.39994427020E+02 -0.11844148928E+03 -0.65680684278E+03  0.66859791302E+03  0.00000000000E+00 0.  1.
         21    1    1    2  504  502  0.13172429189E+02  0.77663914624E+02  0.28824690099E+03  0.29881678744E+03  0.00000000000E+00 0. -1.
         21    1    1    2  505  504  0.35324166390E+02 -0.34611020737E+01 -0.52673682851E+03  0.52793130469E+03  0.00000000000E+00 0.  1.
          2    1    1    2  501    0 -0.85021685581E+01  0.44238676726E+02 -0.16254932971E+04  0.16261174024E+04  0.00000000000E+00 0. -1.
<scales pt_clust_3="14000.00000" pt_clust_4="79.12679" pt_clust_5="35.49332" pt_clust_6="44.93814"></scales>
<clustering>
<clus scale="   35.493">  2  5  1 -1</clus>
<clus scale="   44.938">  2  6  1 -1</clus>
<clus scale="   79.127">  1  4  2 -1</clus>
<clus scale="   79.127">  1  3  2 -1</clus>
</clustering>
</event>
<event>
 6    0  0.1631680E+002  0.1110871E+03  0.7546771E-02  0.1258570E+00
         21   -1    0    0  505  502  0.00000000000E+00  0.00000000000E+00  0.86825162794E+02  0.86825162794E+02  0.00000000000E+00 0. -1.
          2   -1    0    0  503    0 -0.00000000000E+00 -0.00000000000E+00 -0.10041070325E+04  0.10041070325E+04  0.00000000000E+00 0. -1.
         21    1    1    2  503  504 -0.39596441887E+02 -0.17051274931E+02 -0.72053683544E+02  0.83966406968E+02  0.00000000000E+00 0. -1.
         21    1    1    2  504  502 -0.15798216715E+02 -0.13364881757E+03 -0.57724464471E+03  0.59272503738E+03  0.00000000000E+00 0. -1.
         21    1    1    2  505  501  0.38865916907E+01  0.69659438519E+02  0.47542594854E+02  0.84426543783E+02  0.00000000000E+00 0. -1.
          2    1    1    2  501    0  0.51508066911E+02  0.81040653981E+02 -0.31552613629E+03  0.32981420714E+03  0.00000000000E+00 0. -1.
<scales pt_clust_3="43.11176" pt_clust_4="14000.00000" pt_clust_5="69.38908" pt_clust_6="111.08712"></scales>
<clustering>
<clus scale="   43.112">  2  3  1 -1</clus>
<clus scale="   69.389">  1  5  2 -1</clus>
<clus scale="  111.087">  2  6  1 -1</clus>
<clus scale="   69.389">  1  3  2 -1</clus>
</clustering>
</event>
<event>
 6    0  0.1631680E+002  0.1465999E+03  0.7546771E-02  0.1204714E+00
          1   -1    0    0  503    0 -0.00000000000E+00  0.00000000000E+00  0.72611283329E+03  0.72611283329E+03  0.00000000000E+00 0. -1.
         21   -1    0    0  504  502  0.00000000000E+00 -0.00000000000E+00 -0.71726984708E+02  0.71726984708E+02  0.00000000000E+00 0. -1.
         21    1    1    2  503  505  0.25713949767E+02  0.32119125929E+02  0.84811097196E+02  0.94264349946E+02  0.00000000000E+00 0. -1.
         21    1    1    2  504  501  0.62629333974E+02 -0.10701136866E+03  0.16097614302E+03  0.20319248293E+03  0.00000000000E+00 0. -1.
         21    1    1    2  505  502 -0.26019611468E+02 -0.76607198954E+02  0.27306927018E+02  0.85389410208E+02  0.00000000000E+00 0. -1.
          1    1    1    2  501    0 -0.62323672273E+02  0.15149944168E+03  0.38129168134E+03  0.41499357491E+03  0.00000000000E+00 0. -1.
<scales pt_clust_3="41.14420" pt_clust_4="146.59988" pt_clust_5="77.49125" pt_clust_6="14000.00000"></scales>
<clustering>
<clus scale="   41.144">  1  3  2 -1</clus>
<clus scale="   77.491">  2  5  1 -1</clus>
<clus scale="  146.600">  2  4  1 -1</clus>
<clus scale="   77.491">  2  3  1 -1</clus>
</clustering>
</event>
<event>
 6    0  0.1631680E+002  0.1543881E+03  0.7546771E-02  0.1195182E+00
          2   -1    0    0  502    0 -0.00000000000E+00  0.00000000000E+00  0.27496314556E+04  0.27496314556E+04  0.00000000000E+00 0. -1.
         21   -1    0    0  505  502  0.00000000000E+00 -0.00000000000E+00 -0.37190466066E+02  0.37190466066E+02  0.00000000000E+00 0. -1.
         21    1    1    2  503  504 -0.15045198249E+03  0.55369559549E+01  0.28808067831E+03  0.32504912572E+03  0.00000000000E+00 0. -1.
         21    1    1    2  504  501  0.44308032177E+02  0.12059500595E+02  0.44554006003E+03  0.44790018794E+03  0.00000000000E+00 0. -1.
         21    1    1    2  505  503  0.36579586881E+02 -0.98872707694E+02  0.15817759800E+03  0.19008953420E+03  0.00000000000E+00 0. -1.
          2    1    1    2  501    0  0.69564363427E+02  0.81276251144E+02  0.18206426532E+04  0.18237830738E+04  0.00000000000E+00 0. -1.
<scales pt_clust_3="143.36465" pt_clust_4="37.53470" pt_clust_5="105.42238" pt_clust_6="37.53470"></scales>
<clustering>
<clus scale="   37.535">  4  6 -1 -1</clus>
<clus scale="  105.422">  2  5  1 -1</clus>
<clus scale="  143.365">  2  3  1 -1</clus>
<clus scale="  105.422">  2  3  1 -1</clus>
</clustering>
</event>
<event>
 6    0  0.1631680E+002  0.9431670E+02  0.7546771E-02  0.1292723E+00
         -3   -1    0    0    0  501 -0.00000000000E+00  0.00000000000E+00  0.66787713211E+03  0.66787713211E+03  0.00000000000E+00 0. -1.
         21   -1    0    0  505  502  0.00000000000E+00 -0.00000000000E+00 -0.39783886505E+03  0.39783886505E+03  0.00000000000E+00 0.  1.
         21    1    1    2  503  501 -0.11603947094E+02 -0.90749783769E+02  0.25456865696E+03  0.27050947478E+03  0.00000000000E+00 0. -1.
         21    1    1    2  504  502  0.42165549209E+02  0.21594146673E+02 -0.97938197480E+02  0.10879398529E+03  0.00000000000E+00 0. -1.
         21    1    1    2  505  503  0.54513613625E+02 -0.28161568449E+02 -0.27255684954E+03  0.27937795947E+03  0.00000000000E+00 0.  1.
         -3    1    1    2    0  504 -0.85075215741E+02  0.97317205545E+02  0.38596465711E+03  0.40703457761E+03  0.00000000000E+00 0. -1.
<scales pt_clust_3="90.77031" pt_clust_4="47.37342" pt_clust_5="94.31670" pt_clust_6="14000.00000"></scales>
<clustering>
<clus scale="   47.373">  2  4  1 -1</clus>
<clus scale="   90.770">  1  3  2 -1</clus>
<clus scale="   94.317">  2  5  1 -1</clus>
<clus scale="   47.373">  2  3  1 -1</clus>
</clustering>
</event>
<event>
 6    0  0.1631680E+002  0.1006864E+03  0.7546771E-02  0.1278859E+00
         21   -1    0    0  503  502  0.00000000000E+00  0.00000000000E+00  0.14367592436E+03  0.14367592436E+03  0.00000000000E+00 0. -1.
          2   -1    0    0  504    0 -0.00000000000E+00 -0.00000000000E+00 -0.52749357309E+03  0.52749357309E+03  0.00000000000E+00 0. -1.
         21    1    1    2  503  505 -0.58798041247E+02  0.62248581837E-01  0.72288370646E+01  0.59240776621E+02  0.00000000000E+00 0.  1.
         21    1    1    2  504  502  0.90746714388E+02  0.84328313683E+02  0.68585887708E+02  0.14159892180E+03  0.00000000000E+00 0. -1.
         21    1    1    2  505  501 -0.18133935995E+02 -0.32097723070E+02 -0.98564541117E+02  0.10523341782E+03  0.00000000000E+00 0. -1.
          2    1    1    2  501    0 -0.13814737147E+02 -0.52292839195E+02 -0.36106783239E+03  0.36509638122E+03  0.00000000000E+00 0. -1.
<scales pt_clust_3="58.79807" pt_clust_4="91.28001" pt_clust_5="35.08262" pt_clust_6="35.08262"></scales>
<clustering>
<clus scale="   35.083">  5  6 -1 -1</clus>
<clus scale="   58.798">  1  3  2 -1</clus>
<clus scale="   91.280">  1  4  2 -1</clus>
<clus scale="   58.798">  1  3  2 -1</clus>
</clustering>
</event>
<event>
 6    0  0.1631680E+002  0.8276548E+02  0.7546771E-02  0.1321382E+00
          1   -1    0    0  504    0 -0.00000000000E+00  0.00000000000E+00  0.56756427629E+02  0.56756427629E+02  0.00000000000E+00 0.  1.
         21   -1    0    0  505  502  0.00000000000E+00 -0.00000000000E+00 -0.62201598880E+03  0.62201598880E+03  0.00000000000E+00 0.  1.
         21    1    1    2  503  502 -0.24666699544E+02 -0.12029112005E+03 -0.20441838182E+03  0.23846440920E+03  0.00000000000E+00 0.  1.
         21    1    1    2  504  503  0.29250160172E+02 -0.25089720741E+02 -0.26406839032E+02  0.46716026207E+02  0.00000000000E+00 0. -1.
         21    1    1    2  505  501 -0.17124135322E+02  0.72369623137E+02 -0.30490451496E+03  0.31384289319E+03  0.00000000000E+00 0.  1.
          1    1    1    2  501    0  0.12540674694E+02  0.73011217651E+02 -0.29529825361E+02  0.79749087835E+02  0.00000000000E+00 0.  1.
<scales pt_clust_3="82.76548" pt_clust_4="38.53655" pt_clust_5="14000.00000" pt_clust_6="65.88106"></scales>
<clustering>
<clus scale="   38.537">  1  4  2 -1</clus>
<clus scale="   65.881">  1  6  2 -1</clus>
<clus scale="   82.765">  1  3  2 -1</clus>
<clus scale="   82.765">  2  3  1 -1</clus>
</clustering>
</event>
<event>
 6    0  0.1631680E+002  0.1044779E+03  0.7546771E-02  0.1271152E+00
         21   -1    0    0  505  502  0.00000000000E+00  0.00000000000E+00  0.13739794567E+03  0.13739794567E+03  0.00000000000E+00 0.  1.
          2   -1    0    0  503    0 -0.00000000000E+00 -0.00000000000E+00 -0.62932877111E+03  0.62932877111E+03  0.00000000000E+00 0.  1.
         21    1    1    2  503  504 -0.31287930544E+02 -0.87005421596E+01 -0.12168522369E+03  0.12594414514E+03  0.00000000000E+00 0.  1.
         21    1    1    2  504  502 -0.33888714763E+02  0.13193933211E+03  0.41455218165E+02  0.14239019439E+03  0.00000000000E+00 0. -1.
         21    1    1    2  505  501 -0.11538413006E+02 -0.41678354481E+02  0.23361372008E+02  0.49152557502E+02  0.00000000000E+00 0.  1.
          2    1    1    2  501    0  0.76715058313E+02 -0.81560435468E+02 -0.43506219192E+03  0.44923981975E+03  0.00000000000E+00 0.  1.
<scales pt_clust_3="32.47513" pt_clust_4="14000.00000" pt_clust_5="43.67867" pt_clust_6="104.47788"></scales>
<clustering>
<clus scale="   32.475">  2  3  1 -1</clus>
<clus scale="   43.679">  1  5  2 -1</clus>
<clus scale="  104.478">  2  6  1 -1</clus>
<clus scale="   43.679">  1  3  2 -1</clus>
</clustering>
</event>
<event>
 6    0  0.1631680E+002  0.1253472E+03  0.7546771E-02  0.1234528E+00
          2   -1    0    0  504    0 -0.00000000000E+00  0.00000000000E+00  0.20398637645E+03  0.20398637645E+03  0.00000000000E+00 0.  1.
         21   -1    0    0  501  502  0.00000000000E+00 -0.00000000000E+00 -0.31921118880E+03  0.31921118880E+03  0.00000000000E+00 0. -1.
         21    1    1    2  503  505  0.94814498810E+02  0.12475464209E+03 -0.84596113608E+02  0.17807305339E+03  0.00000000000E+00 0. -1.
         21    1    1    2  504  503  0.50466491052E+02  0.81503828245E+01  0.38098106695E+02  0.63755479710E+02  0.00000000000E+00 0.  1.
         21    1    1    2  505  502 -0.44787429742E+02 -0.37176530828E+02 -0.12003082844E+03  0.13339943060E+03  0.00000000000E+00 0. -1.
          2    1    1    2  501    0 -0.10049356012E+03 -0.95728494083E+02  0.51304023005E+02  0.14796960155E+03  0.00000000000E+00 0.  1.
<scales pt_clust_3="14000.00000" pt_clust_4="51.12040" pt_clust_5="56.29485" pt_clust_6="125.34721"></scales>
<clustering>
<clus scale="   51.120">  1  4  2 -1</clus>
<clus scale="   56.295">  2  5  1 -1</clus>
<clus scale="  125.347">  1  6  2 -1</clus>
<clus scale="   56.295">  2  3  1 -1</clus>
</clustering>
</event>
<event>
 6    0  0.1631680E+002  0.9717035E+02  0.7546771E-02  0.1286361E+00
          2   -1    0    0  505    0 -0.00000000000E+00  0.00000000000E+00  0.27384894635E+03  0.27384894635E+03  0.00000000000E+00 0. -1.
         21   -1    0    0  504  502  0.00000000000E+00 -0.00000000000E+00 -0.70271859044E+03  0.70271859044E+03  0.00000000000E+00 0. -1.
         21    1    1    2  503  501  0.23050010041E+02  0.95879225694E+02 -0.66021353179E+02  0.11867159710E+03  0.00000000000E+00 0. -1.
         21    1    1    2  504  503  0.51927216163E+02 -0.31282092607E+02 -0.58881646545E+03  0.59192891050E+03  0.00000000000E+00 0. -1.
         21    1    1    2  505  502 -0.19888400577E+02  0.26644190484E+02  0.45096302333E+02  0.56028009497E+02  0.00000000000E+00 0. -1.
          2    1    1    2  501    0 -0.55088825628E+02 -0.91241323571E+02  0.18087187221E+03  0.20993901970E+03  0.00000000000E+00 0. -1.
<scales pt_clust_3="97.17035" pt_clust_4="60.40733" pt_clust_5="33.24848" pt_clust_6="14000.00000"></scales>
<clustering>
<clus scale="   33.248">  1  5  2 -1</clus>
<clus scale="   60.407">  2  4  1 -1</clus>
<clus scale="   97.170">  2  3  1 -1</clus>
<clus scale="   60.407">  2  3  1 -1</clus>
</clustering>
</event>
<event>
 6    0  0.1631680E+002  0.1987971E+03  0.7546771E-02  0.1150758E+00
         21   -1    0    0  503  502  0.00000000000E+00  0.00000000000E+00  0.79677579921E+03  0.79677579921E+03  0.00000000000E+00 0. -1.
          2   -1    0    0  504    0 -0.00000000000E+00 -0.00000000000E+00 -0.91539001080E+03  0.91539001080E+03  0.00000000000E+00 0. -1.
         21    1    1    2  503  501 -0.57771922068E+02 -0.30828910153E+01  0.63530226975E+02  0.85925484788E+02  0.00000000000E+00 0. -1.
         21    1    1    2  504  505 -0.27891411239E+02 -0.17391328428E+02 -0.29789932945E+02  0.44360221260E+02  0.00000000000E+00 0. -1.
         21    1    1    2  505  502 -0.69539641005E+02 -0.14999032597E+03  0.68949351761E+03  0.70903749576E+03  0.00000000000E+00 0. -1.
          2    1    1    2  501    0  0.15520297431E+03  0.17046454541E+03 -0.84184802323E+03  0.87284260821E+03  0.00000000000E+00 0. -1.
<scales pt_clust_3="58.22137" pt_clust_4="32.86927" pt_clust_5="14000.00000" pt_clust_6="198.79705"></scales>
<clustering>
<clus scale="   32.869">  2  4  1 -1</clus>
<clus scale="   58.221">  1  3  2 -1</clus>
<clus scale="  198.797">  2  6  1 -1</clus>
<clus scale="   58.221">  1  3  2 -1</clus>
</clustering>
</event>
<event>
 6    0  0.1631680E+002  0.7704457E+02  0.7546771E-02  0.1337654E+00
         21   -1    0    0  504  502  0.00000000000E+00  0.00000000000E+00  0.15841441182E+04  0.15841441182E+04  0.00000000000E+00 0. -1.
         -3   -1    0    0    0  501 -0.00000000000E+00 -0.00000000000E+00 -0.99821593311E+03  0.99821593311E+03  0.00000000000E+00 0. -1.
         21    1    1    2  503  502  0.24953305692E+02 -0.73593466388E+02  0.15435416556E+04  0.15454965248E+04  0.00000000000E+00 0. -1.
         21    1    1    2  504  501  0.55935572589E+02 -0.24751271866E+02 -0.33413808868E+03  0.33969055925E+03  0.00000000000E+00 0.  1.
         21    1    1    2  505  503 -0.67905253375E+02  0.29603030800E+02 -0.44540810924E+01  0.74211196640E+02  0.00000000000E+00 0.  1.
         -3    1    1    2    0  505 -0.12983624907E+02  0.68741707454E+02 -0.61902130072E+03  0.62296177058E+03  0.00000000000E+00 0. -1.
<scales pt_clust_3="77.04457" pt_clust_4="61.16710" pt_clust_5="14000.00000" pt_clust_6="60.28078"></scales>
<clustering>
<clus scale="   61.167">  2  4  1 -1</clus>
<clus scale="   60.281">  2  6  1 -1</clus>
<clus scale="   77.045">  1  3  2 -1</clus>
<clus scale="   77.045">  1  3  2 -1</clus>
</clustering>
</event>
<event>
 6    0  0.1631680E+002  0.6599660E+02  0.7546771E-02  0.1374261E+00
          2   -1    0    0  505    0 -0.00000000000E+00  0.00000000000E+00  0.71497553159E+02  0.71497553159E+02  0.00000000000E+00 0. -1.
         21   -1    0    0  503  502  0.00000000000E+00 -0.00000000000E+00 -0.22665596046E+04  0.22665596046E+04  0.00000000000E+00 0. -1.
         21    1    1    2  503  504 -0.49529333434E+02 -0.36896195190E+02 -0.17175196710E+04  0.17186297752E+04  0.00000000000E+00 0. -1.
         21    1    1    2  504  501 -0.32957553281E+02 -0.12776561480E+02 -0.17197091316E+02  0.39308787710E+02  0.00000000000E+00 0. -1.
         21    1    1    2  505  502  0.11161907716E+03  0.59011481966E+02 -0.50801895486E+03  0.52347342997E+03  0.00000000000E+00 0. -1.
          2    1    1    2  501    0 -0.29132190444E+02 -0.93387252967E+01  0.47673665658E+02  0.56645164908E+02  0.00000000000E+00 0. -1.
<scales pt_clust_3="14000.00000" pt_clust_4="52.81670" pt_clust_5="65.99660" pt_clust_6="30.59242"></scales>
<clustering>
<clus scale="   30.592">  1  6  2 -1</clus>
<clus scale="   52.817">  1  4  2 -1</clus>
<clus scale="   65.997">  1  5  2 -1</clus>
<clus scale="   65.997">  2  3  1 -1</clus>
</clustering>
</event>
<event>
 6    0  0.1631680E+002  0.3110932E+03  0.7546771E-02  0.1079823E+00
          4   -1    0    0  505    0 -0.00000000000E+00  0.00000000000E+00  0.11455064071E+04  0.11455064071E+04  0.00000000000E+00 0. -1.
         21   -1    0    0  501  502  0.00000000000E+00 -0.00000000000E+00 -0.17748280217E+03  0.17748280217E+03  0.00000000000E+00 0. -1.
         21    1    1    2  503  502  0.95316945944E+02  0.27422727056E+02 -0.10002189153E+02  0.99686357799E+02  0.00000000000E+00 0. -1.
         21    1    1    2  504  503  0.10266285200E+03  0.17509032741E+03  0.31986695936E+02  0.20547367873E+03  0.00000000000E+00 0. -1.
         21    1    1    2  505  504  0.26335753918E+02  0.32786024121E+02  0.19446262614E+03  0.19895780527E+03  0.00000000000E+00 0.  1.
          4    1    1    2  501    0 -0.22431555186E+03 -0.23529907859E+03  0.75157647206E+03  0.81887136752E+03  0.00000000000E+00 0. -1.
<scales pt_clust_3="77.59121" pt_clust_4="77.59121" pt_clust_5="42.05348" pt_clust_6="290.42589"></scales>
<clustering>
<clus scale="   42.053">  1  5  2 -1</clus>
<clus scale="   77.591">  3  4 -1 -1</clus>
<clus scale="  290.426">  1  6  2 -1</clus>
<clus scale="  311.093">  2  3  1 -1</clus>
</clustering>
</event>
<event>
 6    0  0.1631680E+002  0.7323669E+02  0.7546771E-02  0.1349420E+00
         21   -1    0    0  505  502  0.00000000000E+00  0.00000000000E+00  0.38504738943E+03  0.38504738943E+03  0.00000000000E+00 0. -1.
          1   -1    0    0  503    0 -0.00000000000E+00 -0.00000000000E+00 -0.19626161783E+04  0.19626161783E+04  0.00000000000E+00 0.  1.
         21    1    1    2  503  504  0.61664171585E+02 -0.13811449001E+02 -0.49029206623E+03  0.49434758661E+03  0.00000000000E+00 0.  1.
         21    1    1    2  504  502  0.27035889197E+02 -0.13026593765E+03  0.35254046850E+02  0.13763357743E+03  0.00000000000E+00 0. -1.
         21    1    1    2  505  501 -0.23904723237E+02  0.64371189560E+02  0.29071198892E+03  0.29871147674E+03  0.00000000000E+00 0. -1.
          1    1    1    2  501    0 -0.64795337546E+02  0.79706197090E+02 -0.14132427584E+04  0.14169709269E+04  0.00000000000E+00 0.  1.
<scales pt_clust_3="63.19198" pt_clust_4="14000.00000" pt_clust_5="73.23669" pt_clust_6="66.63608"></scales>
<clustering>
<clus scale="   63.192">  2  3  1 -1</clus>
<clus scale="   66.636">  2  6  1 -1</clus>
<clus scale="   73.237">  1  5  2 -1</clus>
<clus scale="   73.237">  1  3  2 -1</clus>
</clustering>
</event>
<event>
 6    0  0.1631680E+002  0.2437327E+03  0.7546771E-02  0.1117331E+00
          3   -1    0    0  503    0 -0.00000000000E+00  0.00000000000E+00  0.28895794562E+03  0.28895794562E+03  0.00000000000E+00 0.  1.
         21   -1    0    0  501  502  0.00000000000E+00 -0.00000000000E+00 -0.20092520245E+04  0.20092520245E+04  0.00000000000E+00 0. -1.
         21    1    1    2  503  504 -0.12637403764E+02 -0.66766412819E+02 -0.54533374330E+01  0.68170350914E+02  0.00000000000E+00 0.  1.
         21    1    1    2  504  505  0.11740462915E+03  0.21505075484E+03 -0.53737412234E+03  0.59059429515E+03  0.00000000000E+00 0. -1.
         21    1    1    2  505  502  0.42597429408E+02 -0.20756569600E+02 -0.13668667872E+04  0.13676878993E+04  0.00000000000E+00 0. -1.
          3    1    1    2  501    0 -0.14736465480E+03 -0.12752777243E+03  0.18940016806E+03  0.27175742471E+03  0.00000000000E+00 0.  1.
<scales pt_clust_3="68.71708" pt_clust_4="14000.00000" pt_clust_5="47.38540" pt_clust_6="243.73274"></scales>
<clustering>
<clus scale="   47.385">  2  5  1 -1</clus>
<clus scale="   68.717">  1  3  2 -1</clus>
<clus scale="  243.733">  1  6  2 -1</clus>
<clus scale="   47.385">  2  3  1 -1</clus>
</clustering>
</event>
<event>
 6    0  0.1631680E+002  0.9534185E+02  0.7546771E-02  0.1290408E+00
          2   -1    0    0  503    0 -0.00000000000E+00  0.00000000000E+00  0.13615411629E+04  0.13615411629E+04  0.00000000000E+00 0. -1.
         21   -1    0    0  504  502  0.00000000000E+00 -0.00000000000E+00 -0.43272331975E+03  0.43272331975E+03  0.00000000000E+00 0. -1.
         21    1    1    2  503  505  0.50654775929E+02 -0.62865074944E+01  0.16886251684E+03  0.17640854881E+03  0.00000000000E+00 0.  1.
         21    1    1    2  504  501  0.50931795239E+02 -0.53491365700E+02 -0.13069152963E+02  0.75007844455E+02  0.00000000000E+00 0. -1.
         21    1    1    2  505  502  0.42480400320E+02  0.24200917303E+02 -0.37857905530E+03  0.38172289678E+03  0.00000000000E+00 0. -1.
          2    1    1    2  501    0 -0.14406697149E+03  0.35576955891E+02  0.11516035346E+04  0.11611251926E+04  0.00000000000E+00 0. -1.
<scales pt_clust_3="53.89589" pt_clust_4="95.34185" pt_clust_5="48.89038" pt_clust_6="14000.00000"></scales>
<clustering>
<clus scale="   48.890">  2  5  1 -1</clus>
<clus scale="   53.896">  1  3  2 -1</clus>
<clus scale="   95.342">  2  4  1 -1</clus>
<clus scale="   48.890">  2  3  1 -1</clus>
</clustering>
</event>
<event>
 6    0  0.1631680E+002  0.2200275E+03  0.7546771E-02  0.1133863E+00
          1   -1    0    0  503    0 -0.00000000000E+00  0.00000000000E+00  0.13000844190E+04  0.13000844190E+04  0.00000000000E+00 0. -1.
         21   -1    0    0  505  502  0.00000000000E+00 -0.00000000000E+00 -0.36507614658E+03  0.36507614658E+03  0.00000000000E+00 0.  1.
         21    1    1    2  503  504 -0.42737395245E+02  0.33577042961E+01  0.54520601501E+02  0.69356002758E+02  0.00000000000E+00 0.  1.
         21    1    1    2  504  502  0.40876415851E+02  0.21477626017E+02 -0.39238495700E+00  0.46177091269E+02  0.00000000000E+00 0.  1.
         21    1    1    2  505  501  0.13509944034E+03 -0.15776562472E+03 -0.29388833129E+03  0.35987803822E+03  0.00000000000E+00 0.  1.
          1    1    1    2  501    0 -0.13323846095E+03  0.13293029441E+03  0.11747683872E+04  0.11897494334E+04  0.00000000000E+00 0. -1.
<scales pt_clust_3="42.86909" pt_clust_4="45.50676" pt_clust_5="220.02750" pt_clust_6="14000.00000"></scales>
<clustering>
<clus scale="   42.869">  1  3  2 -1</clus>
<clus scale="   45.507">  2  4  1 -1</clus>
<clus scale="  220.028">  2  5  1 -1</clus>
<clus scale="   45.507">  2  3  1 -1</clus>
</clustering>
</event>
<event>
 6    0  0.1631680E+002  0.1605446E+03  0.7546771E-02  0.1188083E+00
          1   -1    0    0  503    0 -0.00000000000E+00  0.00000000000E+00  0.33708279929E+03  0.33708279929E+03  0.00000000000E+00 0.  1.
         21   -1    0    0  501  502  0.00000000000E+00 -0.00000000000E+00 -0.32786818199E+03  0.32786818199E+03  0.00000000000E+00 0. -1.
         21    1    1    2  503  505  0.22524566796E+02  0.12244116703E+03  0.88050533540E+02  0.15248636644E+03  0.00000000000E+00 0.  1.
         21    1    1    2  504  502 -0.40883733039E+02  0.30790511899E+02 -0.17162756327E+03  0.17909649835E+03  0.00000000000E+00 0. -1.
         21    1    1    2  505  504  0.69638346592E+02 -0.19972746024E+03 -0.73317704712E+01  0.21164666912E+03  0.00000000000E+00 0. -1.
          1    1    1    2  501    0 -0.51279180349E+02  0.46495781318E+02  0.10012341750E+03  0.12172144737E+03  0.00000000000E+00 0.  1.
<scales pt_clust_3="14000.00000" pt_clust_4="51.18140" pt_clust_5="160.54455" pt_clust_6="72.82994"></scales>
<clustering>
<clus scale="   51.181">  2  4  1 -1</clus>
<clus scale="   72.830">  1  6  2 -1</clus>
<clus scale="  160.545">  2  5  1 -1</clus>
<clus scale="   51.181">  2  3  1 -1</clus>
</clustering>
</event>
<event>
 6    0  0.1631680E+002  0.8991668E+02  0.7546771E-02  0.1303054E+00
         21   -1    0    0  504  502  0.00000000000E+00  0.00000000000E+00  0.61305925943E+03  0.61305925943E+03  0.00000000000E+00 0.  1.
         -3   -1    0    0    0  501 -0.00000000000E+00 -0.00000000000E+00 -0.11816309913E+04  0.11816309913E+04  0.00000000000E+00 0. -1.
         21    1    1    2  503  501 -0.47620566412E+02 -0.13572421907E+02 -0.15452461150E+03  0.16226455109E+03  0.00000000000E+00 0.  1.
         21    1    1    2  504  503  0.24889272119E+02  0.13789081523E+03  0.48775652575E+03  0.50748377432E+03  0.00000000000E+00 0.  1.
         21    1    1    2  505  502 -0.35851670342E+02 -0.49076613985E+02  0.10085860139E+03  0.11775531317E+03  0.00000000000E+00 0. -1.
         -3    1    1    2    0  505  0.58582964634E+02 -0.75241779341E+02 -0.10026622475E+04  0.10071866122E+04  0.00000000000E+00 0. -1.
<scales pt_clust_3="49.51696" pt_clust_4="14000.00000" pt_clust_5="61.10004" pt_clust_6="89.91668"></scales>
<clustering>
<clus scale="   49.517">  2  3  1 -1</clus>
<clus scale="   61.100">  1  5  2 -1</clus>
<clus scale="   89.917">  2  6  1 -1</clus>
<clus scale="   61.100">  1  3  2 -1</clus>
</clustering>
</event>
<event>
 6    0  0.3581329E+002  0.8543561E+02  0.7546771E-02  0.1314297E+00
         21   -1    0    0  504  502  0.00000000000E+00  0.00000000000E+00  0.84058796155E+03  0.84058796155E+03  0.00000000000E+00 0.  1.
          1   -1    0    0  505    0 -0.00000000000E+00 -0.00000000000E+00 -0.14412788611E+04  0.14412788611E+04  0.00000000000E+00 0.  1.
         21    1    1    2  503  502  0.86267079583E+02 -0.10683263485E+03  0.78464005344E+03  0.79656464543E+03  0.00000000000E+00 0.  1.
         21    1    1    2  504  501 -0.42781724887E+02  0.33497954040E+02  0.27519828181E+02  0.60907551686E+02  0.00000000000E+00 0. -1.
         21    1    1    2  505  503  0.19771701743E+02  0.26908153028E+02 -0.55448782737E+02  0.64726628185E+02  0.00000000000E+00 0.  1.
          1    1    1    2  501    0 -0.63257056439E+02  0.46426527780E+02 -0.13574019985E+04  0.13596679974E+04  0.00000000000E+00 0.  1.
<scales pt_clust_3="14000.00000" pt_clust_4="54.34973" pt_clust_5="33.39115" pt_clust_6="85.43561"></scales>
<clustering>
<clus scale="   33.391">  2  5  1 -1</clus>
<clus scale="   54.350">  1  4  2 -1</clus>
<clus scale="   85.436">  2  6  1 -1</clus>
<clus scale="   54.350">  1  3  2 -1</clus>
</clustering>
</event>
<event>
 6    0  0.1631680E+002  0.1427226E+03  0.7546771E-02  0.1209712E+00
         21   -1    0    0  503  502  0.00000000000E+00  0.00000000000E+00  0.30737532381E+03  0.30737532381E+03  0.00000000000E+00 0. -1.
          1   -1    0    0  504    0 -0.00000000000E+00 -0.00000000000E+00 -0.67864860831E+03  0.67864860831E+03  0.00000000000E+00 0. -1.
         21    1    1    2  503  505 -0.14288881295E+03 -0.14915408720E+02  0.24406207685E+03  0.28320660239E+03  0.00000000000E+00 0. -1.
         21    1    1    2  504  502 -0.44997348158E+02  0.21173112941E+02 -0.73865586355E+02  0.89045981944E+02  0.00000000000E+00 0. -1.
         21    1    1    2  505  501  0.13899991618E+03 -0.82359233545E+02 -0.18323028745E+03  0.24428949688E+03  0.00000000000E+00 0. -1.
          1    1    1    2  501    0  0.48886244930E+02  0.76101529324E+02 -0.35823948754E+03  0.36948185090E+03  0.00000000000E+00 0. -1.
<scales pt_clust_3="14000.00000" pt_clust_4="49.72989" pt_clust_5="142.72259" pt_clust_6="91.55499"></scales>
<clustering>
<clus scale="   49.730">  2  4  1 -1</clus>
<clus scale="   91.555">  2  6  1 -1</clus>
<clus scale="  142.723">  2  5  1 -1</clus>
<clus scale="  142.723">  1  3  2 -1</clus>
</clustering>
</event>
<event>
 6    0  0.1631680E+002  0.7869292E+02  0.7546771E-02  0.1332802E+00
          2   -1    0    0  505    0 -0.00000000000E+00  0.00000000000E+00  0.19861418061E+04  0.19861418061E+04  0.00000000000E+00 0.  1.
         21   -1    0    0  501  502  0.00000000000E+00 -0.00000000000E+00 -0.11570670892E+02  0.11570670892E+02  0.00000000000E+00 0. -1.
         21    1    1    2  503  502 -0.71806886181E+02 -0.10361519380E+02  0.20954929625E+03  0.22175323570E+03  0.00000000000E+00 0. -1.
         21    1    1    2  504  503  0.92125732902E+02  0.39269805061E+02  0.66753973771E+03  0.67501005154E+03  0.00000000000E+00 0.  1.
         21    1    1    2  505  504 -0.23776732643E+02  0.24201279357E+02  0.39559818837E+03  0.39705032626E+03  0.00000000000E+00 0.  1.
          2    1    1    2  501    0  0.34578859224E+01 -0.53109565039E+02  0.70188391289E+03  0.70389886351E+03  0.00000000000E+00 0.  1.
<scales pt_clust_3="14000.00000" pt_clust_4="78.69292" pt_clust_5="33.92691" pt_clust_6="42.99237"></scales>
<clustering>
<clus scale="   33.927">  1  5  2 -1</clus>
<clus scale="   42.992">  1  6  2 -1</clus>
<clus scale="   78.693">  1  4  2 -1</clus>
<clus scale="   78.693">  2  3  1 -1</clus>
</clustering>
</event>
<event>
 6    0  0.1631680E+002  0.1412446E+03  0.7546771E-02  0.1211664E+00
          2   -1    0    0  504    0 -0.00000000000E+00  0.00000000000E+00  0.32778942467E+04  0.32778942467E+04  0.00000000000E+00 0. -1.
         21   -1    0    0  503  502  0.00000000000E+00 -0.00000000000E+00 -0.43890331258E+02  0.43890331258E+02  0.00000000000E+00 0. -1.
         21    1    1    2  503  505  0.43321246786E+02 -0.79751869451E+01  0.42548090124E+02  0.61242746535E+02  0.00000000000E+00 0.  1.
         21    1    1    2  504  502 -0.48191805391E+02  0.95604323787E+01  0.11915051252E+02  0.50555122594E+02  0.00000000000E+00 0. -1.
         21    1    1    2  505  501  0.13175739360E+03 -0.41689810556E+01  0.30041233774E+03  0.32806243893E+03  0.00000000000E+00 0. -1.
          2    1    1    2  501    0 -0.12688683499E+03  0.25837356220E+01  0.28791284363E+04  0.28819242699E+04  0.00000000000E+00 0. -1.
<scales pt_clust_3="32.37478" pt_clust_4="49.13097" pt_clust_5="32.37478" pt_clust_6="129.66641"></scales>
<clustering>
<clus scale="   32.375">  3  5 -1 -1</clus>
<clus scale="   49.131">  2  4  1 -1</clus>
<clus scale="  129.666">  1  6  2 -1</clus>
<clus scale="   49.131">  2  3  1 -1</clus>
</clustering>
</event>
<event>
 6    0  0.1631680E+002  0.9619822E+02  0.7546771E-02  0.1288500E+00
         -2   -1    0    0    0  501 -0.00000000000E+00  0.00000000000E+00  0.18604951427E+04  0.18604951427E+04  0.00000000000E+00 0.  1.
         21   -1    0    0  501  502  0.00000000000E+00 -0.00000000000E+00 -0.61818003477E+03  0.61818003477E+03  0.00000000000E+00 0.  1.
         21    1    1    2  503  505 -0.30321962754E+02 -0.54983045898E+02 -0.69097920700E+02  0.93365300870E+02  0.00000000000E+00 0.  1.
         21    1    1    2  504  503  0.17459598277E+02 -0.64984527096E+02  0.12339378085E+03  0.14054839553E+03  0.00000000000E+00 0. -1.
         21    1    1    2  505  502 -0.26388434519E+02  0.23925761779E+02 -0.52620052688E+03  0.52740476491E+03  0.00000000000E+00 0.  1.
         -2    1    1    2    0  504  0.39250798996E+02  0.96041811214E+02  0.17142197746E+04  0.17173567161E+04  0.00000000000E+00 0.  1.
<scales pt_clust_3="63.47406" pt_clust_4="14000.00000" pt_clust_5="35.62010" pt_clust_6="96.19822"></scales>
<clustering>
<clus scale="   35.620">  2  5  1 -1</clus>
<clus scale="   63.474">  2  3  1 -1</clus>
<clus scale="   96.198">  1  6  2 -1</clus>
<clus scale="   35.620">  2  3  1 -1</clus>
</clustering>
</event>
<event>
 6    0  0.1631680E+002  0.1007348E+03  0.7546771E-02  0.1278758E+00
          2   -1    0    0  504    0 -0.00000000000E+00  0.00000000000E+00  0.91066676633E+02  0.91066676633E+02  0.00000000000E+00 0. -1.
         21   -1    0    0  505  502  0.00000000000E+00 -0.00000000000E+00 -0.15652217125E+04  0.15652217125E+04  0.00000000000E+00 0.  1.
         21    1    1    2  503  502  0.75052646512E+02 -0.40583619991E+02 -0.37438090340E+03  0.38398045626E+03  0.00000000000E+00 0.  1.
         21    1    1    2  504  503  0.28776889974E+02 -0.15367068152E+02 -0.28426946457E+02  0.43270630513E+02  0.00000000000E+00 0. -1.
         21    1    1    2  505  501 -0.11370641460E+02 -0.39459516333E+02 -0.10935621945E+04  0.10943329558E+04  0.00000000000E+00 0.  1.
          2    1    1    2  501    0 -0.92458895025E+02  0.95410204475E+02  0.22215008463E+02  0.13470434658E+03  0.00000000000E+00 0. -1.
<scales pt_clust_3="100.73484" pt_clust_4="32.62294" pt_clust_5="41.09671" pt_clust_6="14000.00000"></scales>
<clustering>
<clus scale="   32.623">  1  4  2 -1</clus>
<clus scale="   41.097">  2  5  1 -1</clus>
<clus scale="  100.735">  2  3  1 -1</clus>
<clus scale="   41.097">  2  3  1 -1</clus>
</clustering>
</event>
<event>
 6    0  0.1631680E+002  0.1765230E+03  0.7546771E-02  0.1171211E+00
         21   -1    0    0  503  502  0.00000000000E+00  0.00000000000E+00  0.45816835645E+03  0.45816835645E+03  0.00000000000E+00 0. -1.
          2   -1    0    0  505    0 -0.00000000000E+00 -0.00000000000E+00 -0.97996496999E+03  0.97996496999E+03  0.00000000000E+00 0.  1.
         21    1    1    2  503  504 -0.27866166888E+02 -0.12508980855E+02  0.32791560907E+03  0.32933515532E+03  0.00000000000E+00 0. -1.
         21    1    1    2  504  501  0.25758044960E+02 -0.12440733919E+03 -0.18309079444E+03  0.22285174877E+03  0.00000000000E+00 0. -1.
         21    1    1    2  505  502  0.28752130878E+02 -0.75855071784E+02  0.77108098669E+02  0.11192111430E+03  0.00000000000E+00 0. -1.
          2    1    1    2  501    0 -0.26644008950E+02  0.21277139183E+03 -0.74372952684E+03  0.77402530804E+03  0.00000000000E+00 0.  1.
<scales pt_clust_3="30.54501" pt_clust_4="14000.00000" pt_clust_5="85.39783" pt_clust_6="176.52299"></scales>
<clustering>
<clus scale="   30.545">  1  3  2 -1</clus>
<clus scale="   85.398">  1  5  2 -1</clus>
<clus scale="  176.523">  2  6  1 -1</clus>
<clus scale="   30.545">  1  3  2 -1</clus>
</clustering>
</event>
<event>
 6    0  0.1631680E+002  0.7191127E+02  0.7546771E-02  0.1353712E+00
         21   -1    0    0  504  502  0.00000000000E+00  0.00000000000E+00  0.17418039598E+03  0.17418039598E+03  0.00000000000E+00 0. -1.
         -2   -1    0    0    0  501 -0.00000000000E+00 -0.00000000000E+00 -0.12796284800E+04  0.12796284800E+04  0.00000000000E+00 0. -1.
         21    1    1    2  503  501  0.27713070033E+01 -0.46751496693E+02 -0.82209731660E+03  0.82343025239E+03  0.00000000000E+00 0. -1.
         21    1    1    2  504  503  0.72395784607E+02  0.23963399481E+02 -0.10087116378E+03  0.12645309734E+03  0.00000000000E+00 0. -1.
         21    1    1    2  505  502 -0.61512389220E+01 -0.47366157324E+02  0.14987764683E+03  0.15730448061E+03  0.00000000000E+00 0. -1.
         -2    1    1    2    0  505 -0.69015852689E+02  0.70154254536E+02 -0.33235725051E+03  0.34662104570E+03  0.00000000000E+00 0. -1.
<scales pt_clust_3="46.83356" pt_clust_4="71.91127" pt_clust_5="48.13789" pt_clust_6="14000.00000"></scales>
<clustering>
<clus scale="   46.834">  2  3  1 -1</clus>
<clus scale="   48.138">  1  5  2 -1</clus>
<clus scale="   71.911">  1  4  2 -1</clus>
<clus scale="   48.138">  1  3  2 -1</clus>
</clustering>
</event>
<event>
 6    0  0.1631680E+002  0.7317482E+02  0.7546771E-02  0.1349618E+00
          2   -1    0    0  504    0 -0.00000000000E+00  0.00000000000E+00  0.23478699816E+04  0.23478699816E+04  0.00000000000E+00 0. -1.
         21   -1    0    0  505  502  0.00000000000E+00 -0.00000000000E+00 -0.14535366990E+03  0.14535366990E+03  0.00000000000E+00 0.  1.
         21    1    1    2  503  502  0.52221406953E+02  0.31766158795E+02  0.19755633968E+02  0.64237444394E+02  0.00000000000E+00 0.  1.
         21    1    1    2  504  503 -0.89829626895E+02 -0.18318258585E+02 -0.98943190687E+02  0.13488764009E+03  0.00000000000E+00 0.  1.
         21    1    1    2  505  501 -0.34747743677E+02 -0.23709565034E+02  0.73505544071E+02  0.84691287473E+02  0.00000000000E+00 0.  1.
          2    1    1    2  501    0  0.72355963619E+02  0.10261664824E+02  0.22081983244E+04  0.22094072796E+04  0.00000000000E+00 0. -1.
<scales pt_clust_3="54.44024" pt_clust_4="14000.00000" pt_clust_5="42.06601" pt_clust_6="73.17482"></scales>
<clustering>
<clus scale="   42.066">  2  5  1 -1</clus>
<clus scale="   54.440">  2  3  1 -1</clus>
<clus scale="   73.175">  1  6  2 -1</clus>
<clus scale="   42.066">  2  3  1 -1</clus>
</clustering>
</event>
<event>
 6    0  0.1631680E+002  0.1540413E+03  0.7546771E-02  0.1195593E+00
         21   -1    0    0  503  502  0.00000000000E+00  0.00000000000E+00  0.12749918730E+04  0.12749918730E+04  0.00000000000E+00 0.  1.
         -2   -1    0    0    0  501 -0.00000000000E+00 -0.00000000000E+00 -0.47528673733E+03  0.47528673733E+03  0.00000000000E+00 0.  1.
         21    1    1    2  503  504 -0.11960921563E+03 -0.10188845399E+03  0.10714936795E+03  0.19018046317E+03  0.00000000000E+00 0.  1.
         21    1    1    2  504  501  0.14297685136E+03  0.27990342899E+02 -0.21010886601E+03  0.25567865553E+03  0.00000000000E+00 0.  1.
         21    1    1    2  505  502  0.91073686153E+02 -0.70005557996E+02  0.10576990464E+04  0.10639184495E+04  0.00000000000E+00 0.  1.
         -2    1    1    2    0  505 -0.11444132188E+03  0.14390366909E+03 -0.15503441269E+03  0.24050104209E+03  0.00000000000E+00 0.  1.
<scales pt_clust_3="146.13788" pt_clust_4="154.04128" pt_clust_5="114.87034" pt_clust_6="14000.00000"></scales>
<clustering>
<clus scale="  114.870">  1  5  2 -1</clus>
<clus scale="  154.041">  2  4  1 -1</clus>
<clus scale="  146.138">  1  3  2 -1</clus>
<clus scale="  114.870">  1  3  2 -1</clus>
</clustering>
</event>
<event>
 6    0  0.1631680E+002  0.1289480E+03  0.7546771E-02  0.1229025E+00
         21   -1    0    0  503  502  0.00000000000E+00  0.00000000000E+00  0.10184492505E+03  0.10184492505E+03  0.00000000000E+00 0.  1.
          2   -1    0    0  505    0 -0.00000000000E+00 -0.00000000000E+00 -0.13220340927E+04  0.13220340927E+04  0.00000000000E+00 0. -1.
         21    1    1    2  503  501 -0.91439195800E+02 -0.47949448895E+02  0.43533337258E+02  0.11205100459E+03  0.00000000000E+00 0.  1.
         21    1    1    2  504  502 -0.41457526267E+02  0.24274773645E+02 -0.13887579501E+02  0.50008559108E+02  0.00000000000E+00 0.  1.
         21    1    1    2  505  504  0.45584856778E+02  0.12288846463E+02 -0.12623746426E+03  0.13477719502E+03  0.00000000000E+00 0. -1.
          2    1    1    2  501    0  0.87311865289E+02  0.11385828787E+02 -0.11235974611E+04  0.11270422590E+04  0.00000000000E+00 0. -1.
<scales pt_clust_3="128.94800" pt_clust_4="47.16193" pt_clust_5="47.21223" pt_clust_6="14000.00000"></scales>
<clustering>
<clus scale="   47.212">  2  5  1 -1</clus>
<clus scale="   47.162">  1  4  2 -1</clus>
<clus scale="  128.948">  1  3  2 -1</clus>
<clus scale="   47.162">  1  3  2 -1</clus>
</clustering>
</event>
<event>
 6    0  0.1631680E+002  0.7904747E+02  0.7546771E-02  0.1331777E+00
          2   -1    0    0  505    0 -0.00000000000E+00  0.00000000000E+00  0.30792904549E+04  0.30792904549E+04  0.00000000000E+00 0.  1.
         21   -1    0    0  503  502  0.00000000000E+00 -0.00000000000E+00 -0.90777467718E+02  0.90777467718E+02  0.00000000000E+00 0.  1.
         21    1    1    2  503  504 -0.51934101835E+02 -0.62007810548E+02 -0.53890353025E+02  0.97192024629E+02  0.00000000000E+00 0.  1.
         21    1    1    2  504  501  0.15954599153E+02  0.73877768368E+02  0.11932777322E+03  0.14125010215E+03  0.00000000000E+00 0.  1.
         21    1    1    2  505  502 -0.42952909520E+02 -0.17000643209E+02  0.13996132116E+03  0.14738773940E+03  0.00000000000E+00 0. -1.
          2    1    1    2  501    0  0.78932412203E+02  0.51306853890E+01  0.27831142458E+04  0.27842380564E+04  0.00000000000E+00 0.  1.
<scales pt_clust_3="79.04747" pt_clust_4="14000.00000" pt_clust_5="46.19496" pt_clust_6="39.75201"></scales>
<clustering>
<clus scale="   46.195">  1  5  2 -1</clus>
<clus scale="   39.752">  1  6  2 -1</clus>
<clus scale="   79.047">  2  3  1 -1</clus>
<clus scale="   79.047">  2  3  1 -1</clus>
</clustering>
</event>
<event>
 6    0  0.1631680E+002  0.1764840E+03  0.7546771E-02  0.1171250E+00
         21   -1    0    0  501  502  0.00000000000E+00  0.00000000000E+00  0.34859805057E+02  0.34859805057E+02  0.00000000000E+00 0.  1.
          2   -1    0    0  504    0 -0.00000000000E+00 -0.00000000000E+00 -0.17984154546E+04  0.17984154546E+04  0.00000000000E+00 0. -1.
         21    1    1    2  503  505  0.11449010592E+03  0.13055635739E+03 -0.42267799185E+03  0.45695692532E+03  0.00000000000E+00 0.  1.
         21    1    1    2  504  503  0.14239045636E+02  0.29535533670E+02 -0.51395870890E+03  0.51500354622E+03  0.00000000000E+00 0.  1.
         21    1    1    2  505  502  0.19296466307E+02 -0.39472679423E+02 -0.91365918915E+02  0.10138134529E+03  0.00000000000E+00 0. -1.
          2    1    1    2  501    0 -0.14802561786E+03 -0.12061921163E+03 -0.73555302993E+03  0.75993344288E+03  0.00000000000E+00 0. -1.
<scales pt_clust_3="176.48398" pt_clust_4="32.78869" pt_clust_5="42.45859" pt_clust_6="14000.00000"></scales>
<clustering>
<clus scale="   32.789">  2  4  1 -1</clus>
<clus scale="   42.459">  1  5  2 -1</clus>
<clus scale="  176.484">  1  3  2 -1</clus>
<clus scale="   42.459">  1  3  2 -1</clus>
</clustering>
</event>
<event>
 6    0  0.1631680E+002  0.9955738E+02  0.7546771E-02  0.1281229E+00
         21   -1    0    0  505  502  0.00000000000E+00  0.00000000000E+00  0.46679837373E+03  0.46679837373E+03  0.00000000000E+00 0. -1.
          2   -1    0    0  504    0 -0.00000000000E+00 -0.00000000000E+00 -0.98372487229E+03  0.98372487229E+03  0.00000000000E+00 0.  1.
         21    1    1    2  503  501  0.78902477857E+02  0.15814416192E+02  0.85163531467E+02  0.11716878366E+03  0.00000000000E+00 0. -1.
         21    1    1    2  504  502 -0.37303287841E+02  0.24133114332E+02 -0.36213581545E+03  0.36485105361E+03  0.00000000000E+00 0.  1.
         21    1    1    2  505  503 -0.74838861685E+02 -0.93539275845E+02  0.35270765273E+03  0.37249582500E+03  0.00000000000E+00 0. -1.
          2    1    1    2  501    0  0.33239671670E+02  0.53591745321E+02 -0.59266186731E+03  0.59600758376E+03  0.00000000000E+00 0.  1.
<scales pt_clust_3="99.55738" pt_clust_4="44.42907" pt_clust_5="14000.00000" pt_clust_6="76.75814"></scales>
<clustering>
<clus scale="   44.429">  2  4  1 -1</clus>
<clus scale="   76.758">  2  6  1 -1</clus>
<clus scale="   99.557">  2  3  1 -1</clus>
<clus scale="   99.557">  1  3  2 -1</clus>
</clustering>
</event>
<event>
 6    0  0.1631680E+002  0.6582089E+02  0.7546771E-02  0.1374910E+00
         21   -1    0    0  505  502  0.00000000000E+00  0.00000000000E+00  0.13831258340E+03  0.13831258340E+03  0.00000000000E+00 0. -1.
          2   -1    0    0  503    0 -0.00000000000E+00 -0.00000000000E+00 -0.15592816665E+04  0.15592816665E+04  0.00000000000E+00 0. -1.
         21    1    1    2  503  504 -0.23269699191E+02  0.77043816795E+02  0.38012506949E+02  0.89006624986E+02  0.00000000000E+00 0. -1.
         21    1    1    2  504  502  0.55407149602E+02 -0.33028676047E+02  0.52917082955E+02  0.83432987103E+02  0.00000000000E+00 0. -1.
         21    1    1    2  505  501  0.17045042010E+02 -0.68411860715E+02 -0.19920478624E+03  0.21131318701E+03  0.00000000000E+00 0. -1.
          2    1    1    2  501    0 -0.49182492420E+02  0.24396719967E+02 -0.13126938868E+04  0.13138414508E+04  0.00000000000E+00 0. -1.
<scales pt_clust_3="65.82089" pt_clust_4="14000.00000" pt_clust_5="53.71183" pt_clust_6="54.90098"></scales>
<clustering>
<clus scale="   54.901">  2  6  1 -1</clus>
<clus scale="   53.712">  2  5  1 -1</clus>
<clus scale="   65.821">  2  3  1 -1</clus>
<clus scale="   65.821">  1  3  2 -1</clus>
</clustering>
</event>
<event>
 6    0  0.1631680E+002  0.1400315E+03  0.7546771E-02  0.1213287E+00
          2   -1    0    0  504    0 -0.00000000000E+00  0.00000000000E+00  0.53223969180E+03  0.53223969180E+03  0.00000000000E+00 0.  1.
         21   -1    0    0  505  502  0.00000000000E+00 -0.00000000000E+00 -0.28772046096E+03  0.28772046096E+03  0.00000000000E+00 0.  1.
         21    1    1    2  503  501 -0.10044201513E+03 -0.31698116535E+01  0.20862855104E+03  0.23156968372E+03  0.00000000000E+00 0.  1.
         21    1    1    2  504  502  0.17154874445E+03  0.18136699502E+02 -0.17061479104E+03  0.24262588179E+03  0.00000000000E+00 0.  1.
         21    1    1    2  505  503 -0.30102236065E+02  0.47163478385E+01 -0.64306382056E+02  0.71159674860E+02  0.00000000000E+00 0.  1.
          2    1    1    2  501    0 -0.41004493264E+02 -0.19683235687E+02  0.27081185290E+03  0.27460491238E+03  0.00000000000E+00 0.  1.
<scales pt_clust_3="14000.00000" pt_clust_4="140.03148" pt_clust_5="30.46947" pt_clust_6="45.70065"></scales>
<clustering>
<clus scale="   30.469">  2  5  1 -1</clus>
<clus scale="   45.701">  1  6  2 -1</clus>
<clus scale="  140.031">  2  4  1 -1</clus>
<clus scale="   30.469">  2  3  1 -1</clus>
</clustering>
</event>
<event>
 6    0  0.1631680E+002  0.1233628E+03  0.7546771E-02  0.1237650E+00
         21   -1    0    0  504  502  0.00000000000E+00  0.00000000000E+00  0.55970334750E+03  0.55970334750E+03  0.00000000000E+00 0.  1.
          1   -1    0    0  505    0 -0.00000000000E+00 -0.00000000000E+00 -0.12467872098E+04  0.12467872098E+04  0.00000000000E+00 0.  1.
         21    1    1    2  503  502  0.72594896895E+01 -0.12056286358E+03 -0.51772590646E+03  0.53162789476E+03  0.00000000000E+00 0.  1.
         21    1    1    2  504  501  0.67959810648E+02  0.47624644188E+02  0.53454487029E+03  0.54094811300E+03  0.00000000000E+00 0.  1.
         21    1    1    2  505  503 -0.49664266070E+02 -0.38327004077E+02 -0.46413569687E+03  0.46835610776E+03  0.00000000000E+00 0. -1.
          1    1    1    2  501    0 -0.25555034267E+02  0.11126522347E+03 -0.23976712926E+03  0.26555844178E+03  0.00000000000E+00 0.  1.
<scales pt_clust_3="14000.00000" pt_clust_4="82.72875" pt_clust_5="62.73355" pt_clust_6="123.36279"></scales>
<clustering>
<clus scale="   62.734">  2  5  1 -1</clus>
<clus scale="   82.729">  1  4  2 -1</clus>
<clus scale="  123.363">  1  6  2 -1</clus>
<clus scale="   82.729">  1  3  2 -1</clus>
</clustering>
</event>
<event>
 6    0  0.1631680E+002  0.1120338E+03  0.7546771E-02  0.1256849E+00
         21   -1    0    0  501  502  0.00000000000E+00  0.00000000000E+00  0.72906545585E+03  0.72906545585E+03  0.00000000000E+00 0.  1.
          2   -1    0    0  504    0 -0.00000000000E+00 -0.00000000000E+00 -0.18075479029E+04  0.18075479029E+04  0.00000000000E+00 0.  1.
         21    1    1    2  503  502  0.47478790647E+02  0.40359377401E+02  0.59905900877E+03  0.60229130069E+03  0.00000000000E+00 0.  1.
         21    1    1    2  504  505 -0.17368511408E+02 -0.24515302373E+02 -0.17703287541E+03  0.17956420639E+03  0.00000000000E+00 0.  1.
         21    1    1    2  505  503  0.46130915175E+02 -0.10271096933E+03  0.99693306255E+02  0.15038736605E+03  0.00000000000E+00 0. -1.
          2    1    1    2  501    0 -0.76241194414E+02  0.86866894297E+02 -0.16002018866E+04  0.16043704856E+04  0.00000000000E+00 0.  1.
<scales pt_clust_3="62.28577" pt_clust_4="30.04439" pt_clust_5="112.03382" pt_clust_6="14000.00000"></scales>
<clustering>
<clus scale="   30.044">  2  4  1 -1</clus>
<clus scale="   62.286">  1  3  2 -1</clus>
<clus scale="  112.034">  1  5  2 -1</clus>
<clus scale="   62.286">  1  3  2 -1</clus>
</clustering>
</event>
<event>
 6    0  0.1631680E+002  0.1796693E+03  0.7546771E-02  0.1168123E+00
         21   -1    0    0  505  502  0.00000000000E+00  0.00000000000E+00  0.11990835671E+03  0.11990835671E+03  0.00000000000E+00 0.  1.
          1   -1    0    0  504    0 -0.00000000000E+00 -0.00000000000E+00 -0.11911375650E+04  0.11911375650E+04  0.00000000000E+00 0. -1.
         21    1    1    2  503  502  0.10012332692E+03  0.48644184504E+02 -0.38386653283E+03  0.39968043774E+03  0.00000000000E+00 0.  1.
         21    1    1    2  504  503  0.36257886795E+02  0.30803275958E+02 -0.38604514336E+03  0.38896571684E+03  0.00000000000E+00 0. -1.
         21    1    1    2  505  501 -0.16990995524E+03  0.15925903303E+02  0.32402104763E+02  0.17370355114E+03  0.00000000000E+00 0.  1.
          1    1    1    2  501    0  0.33528741522E+02 -0.95373363765E+02 -0.33371963690E+03  0.34869621603E+03  0.00000000000E+00 0. -1.
<scales pt_clust_3="42.80519" pt_clust_4="42.80519" pt_clust_5="167.31413" pt_clust_6="101.09528"></scales>
<clustering>
<clus scale="   42.805">  3  4 -1 -1</clus>
<clus scale="  101.095">  2  6  1 -1</clus>
<clus scale="  167.314">  1  5  2 -1</clus>
<clus scale="  167.314">  1  3  2 -1</clus>
</clustering>
</event>
<event>
 6    0  0.1631680E+002  0.1059452E+03  0.7546771E-02  0.1268269E+00
          4   -1    0    0  503    0 -0.00000000000E+00  0.00000000000E+00  0.67896275109E+03  0.67896275109E+03  0.00000000000E+00 0. -1.
         21   -1    0    0  505  502  0.00000000000E+00 -0.00000000000E+00 -0.26711156858E+03  0.26711156858E+03  0.00000000000E+00 0.  1.
         21    1    1    2  503  502 -0.44718914766E+02  0.24135457232E+02  0.36510139426E+03  0.36862084819E+03  0.00000000000E+00 0. -1.
         21    1    1    2  504  501 -0.68266480636E+02  0.31811755965E+02  0.13811328013E+03  0.15731363051E+03  0.00000000000E+00 0. -1.
         21    1    1    2  505  504  0.72142972113E+02 -0.81516722006E+02 -0.24019057309E+03  0.26370645763E+03  0.00000000000E+00 0.  1.
          4    1    1    2  501    0  0.40842423289E+02  0.25569508809E+02  0.14882708122E+03  0.15643338334E+03  0.00000000000E+00 0. -1.
<scales pt_clust_3="44.99505" pt_clust_4="14000.00000" pt_clust_5="105.94515" pt_clust_6="48.18613"></scales>
<clustering>
<clus scale="   48.186">  1  6  2 -1</clus>
<clus scale="   44.995">  1  3  2 -1</clus>
<clus scale="  105.945">  2  5  1 -1</clus>
<clus scale="  105.945">  2  3  1 -1</clus>
</clustering>
</event>
<event>
 6    0  0.1631680E+002  0.1677189E+03  0.7546771E-02  0.1180248E+00
         21   -1    0    0  504  502  0.00000000000E+00  0.00000000000E+00  0.67398425618E+03  0.67398425618E+03  0.00000000000E+00 0.  1.
         -3   -1    0    0    0  501 -0.00000000000E+00 -0.00000000000E+00 -0.21815973614E+03  0.21815973614E+03  0.00000000000E+00 0.  1.
         21    1    1    2  503  502 -0.16839495579E+02  0.17274352049E+03  0.46880145910E+03  0.49989869028E+03  0.00000000000E+00 0.  1.
         21    1    1    2  504  501 -0.91578869698E+02  0.37657642696E+02 -0.16594386713E+02  0.10040000547E+03  0.00000000000E+00 0.  1.
         21    1    1    2  505  503  0.94673359500E+02 -0.13521547164E+03  0.80314621609E+02  0.18356662882E+03  0.00000000000E+00 0.  1.
         -3    1    1    2    0  505  0.13745005776E+02 -0.75185691544E+02 -0.76697173966E+02  0.10827866776E+03  0.00000000000E+00 0.  1.
<scales pt_clust_3="14000.00000" pt_clust_4="85.22244" pt_clust_5="167.71886" pt_clust_6="76.43176"></scales>
<clustering>
<clus scale="   76.432">  2  6  1 -1</clus>
<clus scale="   85.222">  2  4  1 -1</clus>
<clus scale="  167.719">  2  5  1 -1</clus>
<clus scale="  167.719">  1  3  2 -1</clus>
</clustering>
</event>
<event>
 6    0  0.1631680E+002  0.2400903E+03  0.7546771E-02  0.1119733E+00
         21   -1    0    0  501  502  0.00000000000E+00  0.00000000000E+00  0.11501572920E+03  0.11501572920E+03  0.00000000000E+00 0. -1.
          2   -1    0    0  503    0 -0.00000000000E+00 -0.00000000000E+00 -0.76887311112E+03  0.76887311112E+03  0.00000000000E+00 0.  1.
         21    1    1    2  503  504 -0.57611774491E+02 -0.71502444447E+01 -0.13199363924E+03  0.14419626678E+03  0.00000000000E+00 0. -1.
         21    1    1    2  504  505 -0.16176812426E+02 -0.32555417440E+02 -0.30617562803E+02  0.47528724125E+02  0.00000000000E+00 0. -1.
         21    1    1    2  505  502 -0.18371640013E+03 -0.32089280568E+02 -0.82891741178E+02  0.20408938816E+03  0.00000000000E+00 0. -1.
          2    1    1    2  501    0  0.25750498705E+03  0.71794942452E+02 -0.40835443870E+03  0.48807446125E+03  0.00000000000E+00 0.  1.
<scales pt_clust_3="58.05379" pt_clust_4="35.01839" pt_clust_5="35.01839" pt_clust_6="226.61044"></scales>
<clustering>
<clus scale="   35.018">  4  5 -1 -1</clus>
<clus scale="   58.054">  2  3  1 -1</clus>
<clus scale="  226.610">  2  6  1 -1</clus>
<clus scale="  240.090">  1  3  2 -1</clus>
</clustering>
</event>
<event>
 6    0  0.1631680E+002  0.1358316E+03  0.7546771E-02  0.1219050E+00
          2   -1    0    0  503    0 -0.00000000000E+00  0.00000000000E+00  0.12360720907E+04  0.12360720907E+04  0.00000000000E+00 0.  1.
         21   -1    0    0  501  502  0.00000000000E+00 -0.00000000000E+00 -0.66132336999E+03  0.66132336999E+03  0.00000000000E+00 0.  1.
         21    1    1    2  503  505 -0.34664131851E+02 -0.29202138271E+02  0.19775730576E+02  0.49451455352E+02  0.00000000000E+00 0.  1.
         21    1    1    2  504  502  0.44472842780E+02  0.84843494098E+02 -0.54381140317E+03  0.55218393172E+03  0.00000000000E+00 0.  1.
         21    1    1    2  505  504 -0.93790443129E+02  0.52972160045E+02 -0.63736431237E+02  0.12516001610E+03  0.00000000000E+00 0.  1.
          2    1    1    2  501    0  0.83981732200E+02 -0.10861351587E+03  0.11625208246E+04  0.11706000575E+04  0.00000000000E+00 0.  1.
<scales pt_clust_3="45.32512" pt_clust_4="95.64658" pt_clust_5="135.83163" pt_clust_6="14000.00000"></scales>
<clustering>
<clus scale="   45.325">  1  3  2 -1</clus>
<clus scale="   95.647">  2  4  1 -1</clus>
<clus scale="  135.832">  2  5  1 -1</clus>
<clus scale="   95.647">  2  3  1 -1</clus>
</clustering>
</event>
<event>
 6    0  0.1631680E+002  0.1277300E+03  0.7546771E-02  0.1230863E+00
         21   -1    0    0  503  502  0.00000000000E+00  0.00000000000E+00  0.33997424425E+03  0.33997424425E+03  0.00000000000E+00 0. -1.
          2   -1    0    0  505    0 -0.00000000000E+00 -0.00000000000E+00 -0.29922252481E+03  0.29922252481E+03  0.00000000000E+00 0.  1.
         21    1    1    2  503  501 -0.26622857023E+02  0.11343302390E+03  0.11090355135E+02  0.11704197283E+03  0.00000000000E+00 0. -1.
         21    1    1    2  504  502 -0.95683061422E+02 -0.74037760647E+02  0.54591698005E+02  0.13272939289E+03  0.00000000000E+00 0. -1.
         21    1    1    2  505  504  0.12544148263E+03 -0.15992054113E+03  0.90522216410E+02  0.22249588020E+03  0.00000000000E+00 0. -1.
          2    1    1    2  501    0 -0.31355641894E+01  0.12052527788E+03 -0.11545255010E+03  0.16692952314E+03  0.00000000000E+00 0.  1.
<scales pt_clust_3="116.51535" pt_clust_4="110.58424" pt_clust_5="14000.00000" pt_clust_6="127.72998"></scales>
<clustering>
<clus scale="  116.515">  1  3  2 -1</clus>
<clus scale="  110.584">  1  4  2 -1</clus>
<clus scale="  127.730">  2  6  1 -1</clus>
<clus scale="  116.515">  1  3  2 -1</clus>
</clustering>
</event>
<event>
 6    0  0.1785118E+002  0.1340189E+03  0.7546771E-02  0.1221611E+00
         21   -1    0    0  505  502  0.00000000000E+00  0.00000000000E+00  0.11158671729E+04  0.11158671729E+04  0.00000000000E+00 0.  1.
          2   -1    0    0  504    0 -0.00000000000E+00 -0.00000000000E+00 -0.13236526716E+04  0.13236526716E+04  0.00000000000E+00 0. -1.
         21    1    1    2  503  501  0.34817778944E+02  0.20075347295E+02  0.27743377489E+03  0.28032979997E+03  0.00000000000E+00 0.  1.
         21    1    1    2  504  502  0.38251974791E+02  0.11060086741E+02 -0.32961099632E+01  0.39955017645E+02  0.00000000000E+00 0.  1.
         21    1    1    2  505  503  0.49293558913E+02 -0.49176556189E+01  0.81489178475E+03  0.81639614106E+03  0.00000000000E+00 0.  1.
          2    1    1    2  501    0 -0.12236331265E+03 -0.26217778418E+02 -0.12968149483E+04  0.13028388858E+04  0.00000000000E+00 0. -1.
<scales pt_clust_3="38.71223" pt_clust_4="39.81883" pt_clust_5="38.71223" pt_clust_6="125.03153"></scales>
<clustering>
<clus scale="   39.819">  1  4  2 -1</clus>
<clus scale="   38.712">  3  5 -1 -1</clus>
<clus scale="  125.032">  2  6  1 -1</clus>
<clus scale="   39.819">  1  3  2 -1</clus>
</clustering>
</event>
<event>
 6    0  0.1631680E+002  0.1163529E+03  0.7546771E-02  0.1249238E+00
          2   -1    0    0  505    0 -0.00000000000E+00  0.00000000000E+00  0.28460450256E+04  0.28460450256E+04  0.00000000000E+00 0. -1.
         21   -1    0    0  503  502  0.00000000000E+00 -0.00000000000E+00 -0.45688505117E+03  0.45688505117E+03  0.00000000000E+00 0.  1.
         21    1    1    2  503  501  0.33856240811E+02  0.67062183848E+02 -0.39383701728E+03  0.40093787265E+03  0.00000000000E+00 0.  1.
         21    1    1    2  504  502 -0.32196802817E+02  0.51847305895E+02 -0.41053026922E+02  0.73553574079E+02  0.00000000000E+00 0. -1.
         21    1    1    2  505  504 -0.33211851540E+01 -0.66880077286E+02  0.59091966388E+03  0.59470162617E+03  0.00000000000E+00 0.  1.
          2    1    1    2  501    0  0.16617471597E+01 -0.52029412458E+02  0.22331303547E+04  0.22337370038E+04  0.00000000000E+00 0. -1.
<scales pt_clust_3="14000.00000" pt_clust_4="59.83922" pt_clust_5="116.35289" pt_clust_6="52.05594"></scales>
<clustering>
<clus scale="   52.056">  1  6  2 -1</clus>
<clus scale="   59.839">  2  4  1 -1</clus>
<clus scale="  116.353">  1  5  2 -1</clus>
<clus scale="   59.839">  2  3  1 -1</clus>
</clustering>
</event>
<event>
 6    0  0.1631680E+002  0.2485860E+03  0.7546771E-02  0.1114202E+00
          2   -1    0    0  504    0 -0.00000000000E+00  0.00000000000E+00  0.33370277017E+04  0.33370277017E+04  0.00000000000E+00 0. -1.
         21   -1    0    0  503  502  0.00000000000E+00 -0.00000000000E+00 -0.64835602814E+03  0.64835602814E+03  0.00000000000E+00 0. -1.
         21    1    1    2  503  505  0.17762847703E+02 -0.34369785566E+02 -0.63988474490E+02  0.74775168245E+02  0.00000000000E+00 0.  1.
         21    1    1    2  504  502  0.52717976604E+02  0.70150109417E+01  0.46518288115E+03  0.46821310143E+03  0.00000000000E+00 0.  1.
         21    1    1    2  505  501 -0.87720477465E+02 -0.18745207997E+03 -0.55470440406E+03  0.59205585914E+03  0.00000000000E+00 0. -1.
          2    1    1    2  501    0  0.17239653158E+02  0.21480685459E+03  0.28421816709E+04  0.28503396010E+04  0.00000000000E+00 0. -1.
<scales pt_clust_3="38.14520" pt_clust_4="53.18266" pt_clust_5="38.14520" pt_clust_6="232.40323"></scales>
<clustering>
<clus scale="   38.145">  3  5 -1 -1</clus>
<clus scale="   53.183">  1  4  2 -1</clus>
<clus scale="  232.403">  1  6  2 -1</clus>
<clus scale="  248.586">  2  3  1 -1</clus>
</clustering>
</event>
<event>
 6    0  0.1631680E+002  0.1247611E+03  0.7546771E-02  0.1235443E+00
          1   -1    0    0  502    0 -0.00000000000E+00  0.00000000000E+00  0.12084100184E+04  0.12084100184E+04  0.00000000000E+00 0. -1.
         21   -1    0    0  504  502  0.00000000000E+00 -0.00000000000E+00 -0.19392637754E+03  0.19392637754E+03  0.00000000000E+00 0.  1.
         21    1    1    2  503  505 -0.40988599521E+02 -0.45785386717E+02  0.24399524876E+02  0.66118860711E+02  0.00000000000E+00 0. -1.
         21    1    1    2  504  503  0.22998790027E+02 -0.30677563236E+02 -0.13619894341E+03  0.14149278927E+03  0.00000000000E+00 0.  1.
         21    1    1    2  505  501 -0.20728512118E+02 -0.35414777380E+02 -0.17658622380E+02  0.44673309882E+02  0.00000000000E+00 0. -1.
          1    1    1    2  501    0  0.38718321612E+02  0.11187772733E+03  0.11439416817E+04  0.11500514360E+04  0.00000000000E+00 0. -1.
<scales pt_clust_3="34.92834" pt_clust_4="38.34133" pt_clust_5="34.92834" pt_clust_6="117.21060"></scales>
<clustering>
<clus scale="   34.928">  3  5 -1 -1</clus>
<clus scale="   38.341">  2  4  1 -1</clus>
<clus scale="  117.211">  1  6  2 -1</clus>
<clus scale="   38.341">  2  3  1 -1</clus>
</clustering>
</event>
<event>
 6    0  0.1631680E+002  0.7624025E+02  0.7546771E-02  0.1340073E+00
         21   -1    0    0  501  502  0.00000000000E+00  0.00000000000E+00  0.25924737478E+03  0.25924737478E+03  0.00000000000E+00 0.  1.
          2   -1    0    0  503    0 -0.00000000000E+00 -0.00000000000E+00 -0.27516021663E+04  0.27516021663E+04  0.00000000000E+00 0. -1.
         21    1    1    2  503  504  0.18750018874E+02  0.65553546628E+02 -0.15439355504E+04  0.15454403303E+04  0.00000000000E+00 0. -1.
         21    1    1    2  504  505  0.28750567257E+01  0.81137682482E+02 -0.25251641604E+02  0.85024907371E+02  0.00000000000E+00 0. -1.
         21    1    1    2  505  502  0.26428989820E+02 -0.56630494304E+02  0.22202430166E+03  0.23065189121E+03  0.00000000000E+00 0.  1.
          2    1    1    2  501    0 -0.48054065420E+02 -0.90060734806E+02 -0.11451919012E+04  0.11497324122E+04  0.00000000000E+00 0. -1.
<scales pt_clust_3="14000.00000" pt_clust_4="40.06184" pt_clust_5="62.49403" pt_clust_6="76.24025"></scales>
<clustering>
<clus scale="   62.494">  1  5  2 -1</clus>
<clus scale="   40.062">  1  4  2 -1</clus>
<clus scale="   76.240">  1  6  2 -1</clus>
<clus scale="   62.494">  1  3  2 -1</clus>
</clustering>
</event>
<event>
 6    0  0.1631680E+002  0.1301423E+03  0.7546771E-02  0.1227245E+00
          2   -1    0    0  503    0 -0.00000000000E+00  0.00000000000E+00  0.65233442849E+03  0.65233442849E+03  0.00000000000E+00 0. -1.
         21   -1    0    0  501  502  0.00000000000E+00 -0.00000000000E+00 -0.23543563854E+03  0.23543563854E+03  0.00000000000E+00 0.  1.
         21    1    1    2  503  505  0.47878382019E+02  0.90416970238E+02  0.16846935006E+03  0.19710273940E+03  0.00000000000E+00 0. -1.
         21    1    1    2  504  502 -0.28675573685E+02 -0.44715857110E+02 -0.13143176767E+03  0.14176073489E+03  0.00000000000E+00 0.  1.
         21    1    1    2  505  504 -0.58606441225E+02 -0.38394924945E+02 -0.68955443181E+02  0.98304315057E+02  0.00000000000E+00 0.  1.
          2    1    1    2  501    0  0.39403632892E+02 -0.73061881820E+01  0.44881665075E+03  0.45060227769E+03  0.00000000000E+00 0. -1.
<scales pt_clust_3="118.26406" pt_clust_4="47.84117" pt_clust_5="47.84117" pt_clust_6="40.07526"></scales>
<clustering>
<clus scale="   40.075">  1  6  2 -1</clus>
<clus scale="   47.841">  4  5 -1 -1</clus>
<clus scale="  118.264">  1  3  2 -1</clus>
<clus scale="  130.142">  2  3  1 -1</clus>
</clustering>
</event>
<event>
 6    0  0.1631680E+002  0.1220866E+03  0.7546771E-02  0.1239694E+00
         -4   -1    0    0    0  501 -0.00000000000E+00  0.00000000000E+00  0.16795984038E+03  0.16795984038E+03  0.00000000000E+00 0.  1.
         21   -1    0    0  503  502  0.00000000000E+00 -0.00000000000E+00 -0.43988506198E+03  0.43988506198E+03  0.00000000000E+00 0. -1.
         21    1    1    2  503  505  0.74202727729E+02  0.11086347848E+02 -0.31711415447E+03  0.32586859142E+03  0.00000000000E+00 0. -1.
         21    1    1    2  504  501 -0.24026556856E+02  0.36193512870E+02 -0.36413301442E+01  0.43594782870E+02  0.00000000000E+00 0.  1.
         21    1    1    2  505  504  0.30880643763E+02  0.23786260736E+02 -0.68646047960E+02  0.78940992264E+02  0.00000000000E+00 0. -1.
         -4    1    1    2    0  502 -0.81056814636E+02 -0.71066121454E+02  0.11747631098E+03  0.15944053581E+03  0.00000000000E+00 0.  1.
<scales pt_clust_3="38.14936" pt_clust_4="43.44244" pt_clust_5="38.14936" pt_clust_6="110.01772"></scales>
<clustering>
<clus scale="   38.149">  3  5 -1 -1</clus>
<clus scale="   43.442">  1  4  2 -1</clus>
<clus scale="  110.018">  1  6  2 -1</clus>
<clus scale="  122.087">  2  3  1 -1</clus>
</clustering>
</event>
<event>
 6    0  0.1631680E+002  0.8722010E+02  0.7546771E-02  0.1309727E+00
         21   -1    0    0  505  502  0.00000000000E+00  0.00000000000E+00  0.96795464982E+01  0.96795464982E+01  0.00000000000E+00 0. -1.
          2   -1    0    0  503    0 -0.00000000000E+00 -0.00000000000E+00 -0.35705676447E+04  0.35705676447E+04  0.00000000000E+00 0.  1.
         21    1    1    2  503  504  0.91446825329E+02  0.43299705413E+01 -0.18030246972E+04  0.18053474262E+04  0.00000000000E+00 0. -1.
         21    1    1    2  504  502  0.19199316421E+02 -0.26515427659E+02 -0.10168537107E+03  0.10682507358E+03  0.00000000000E+00 0.  1.
         21    1    1    2  505  501 -0.39694149349E+02 -0.49521620924E+02 -0.23811040577E+03  0.24642358201E+03  0.00000000000E+00 0. -1.
          2    1    1    2  501    0 -0.70951992401E+02  0.71707078041E+02 -0.14180676242E+04  0.14216511095E+04  0.00000000000E+00 0.  1.
<scales pt_clust_3="14000.00000" pt_clust_4="32.73655" pt_clust_5="70.98289" pt_clust_6="87.22010"></scales>
<clustering>
<clus scale="   32.737">  1  4  2 -1</clus>
<clus scale="   70.983">  1  5  2 -1</clus>
<clus scale="   87.220">  1  6  2 -1</clus>
<clus scale="   32.737">  1  3  2 -1</clus>
</clustering>
</event>
<event>
 6    0  0.1631680E+002  0.1715069E+03  0.7546771E-02  0.1176285E+00
         21   -1    0    0  505  502  0.00000000000E+00  0.00000000000E+00  0.55628895157E+03  0.55628895157E+03  0.00000000000E+00 0. -1.
          1   -1    0    0  504    0 -0.00000000000E+00 -0.00000000000E+00 -0.14377055888E+04  0.14377055888E+04  0.00000000000E+00 0. -1.
         21    1    1    2  503  501 -0.82922639954E+02 -0.96737186515E+02  0.15689497196E+01  0.12742334588E+03  0.00000000000E+00 0.  1.
         21    1    1    2  504  502 -0.28594913832E+02 -0.10474925821E+02 -0.62214676819E+03  0.62289163932E+03  0.00000000000E+00 0. -1.
         21    1    1    2  505  503  0.42014427386E+01 -0.62280444475E+02  0.47597161959E+03  0.48004738156E+03  0.00000000000E+00 0. -1.
          1    1    1    2  501    0  0.10731611105E+03  0.16949255681E+03 -0.73681043838E+03  0.76363217363E+03  0.00000000000E+00 0. -1.
<scales pt_clust_3="171.50685" pt_clust_4="30.45313" pt_clust_5="62.44336" pt_clust_6="14000.00000"></scales>
<clustering>
<clus scale="   30.453">  2  4  1 -1</clus>
<clus scale="   62.443">  1  5  2 -1</clus>
<clus scale="  171.507">  1  3  2 -1</clus>
<clus scale="   62.443">  1  3  2 -1</clus>
</clustering>
</event>
<event>
 6    0  0.1631680E+002  0.2258166E+03  0.7546771E-02  0.1129619E+00
          2   -1    0    0  503    0 -0.00000000000E+00  0.00000000000E+00  0.22407755811E+04  0.22407755811E+04  0.00000000000E+00 0. -1.
         21   -1    0    0  505  502  0.00000000000E+00 -0.00000000000E+00 -0.26475380125E+03  0.26475380125E+03  0.00000000000E+00 0.  1.
         21    1    1    2  503  504  0.53626433982E+02  0.11021329280E+02  0.25060978878E+03  0.25652003889E+03  0.00000000000E+00 0.  1.
         21    1    1    2  504  502 -0.21866013212E+00  0.78468094629E+02 -0.21106980557E+02  0.81257580047E+02  0.00000000000E+00 0. -1.
         21    1    1    2  505  501  0.43437416259E+02 -0.29649010496E+03 -0.93260625678E+02  0.31383233704E+03  0.00000000000E+00 0.  1.
          2    1    1    2  501    0 -0.96845190109E+02  0.20700068105E+03  0.18397795973E+04  0.18539194264E+04  0.00000000000E+00 0. -1.
<scales pt_clust_3="54.74728" pt_clust_4="78.63713" pt_clust_5="225.81665" pt_clust_6="14000.00000"></scales>
<clustering>
<clus scale="   54.747">  1  3  2 -1</clus>
<clus scale="   78.637">  2  4  1 -1</clus>
<clus scale="  225.817">  2  5  1 -1</clus>
<clus scale="   78.637">  2  3  1 -1</clus>
</clustering>
</event>
<event>
 6    0  0.1631680E+002  0.9544490E+02  0.7546771E-02  0.1290177E+00
          1   -1    0    0  504    0 -0.00000000000E+00  0.00000000000E+00  0.15345892458E+04  0.15345892458E+04  0.00000000000E+00 0. -1.
         21   -1    0    0  501  502  0.00000000000E+00 -0.00000000000E+00 -0.80482857386E+02  0.80482857386E+02  0.00000000000E+00 0.  1.
         21    1    1    2  503  505  0.28612928913E+02  0.74508641290E+02  0.25306772118E+03  0.26535543867E+03  0.00000000000E+00 0.  1.
         21    1    1    2  504  503  0.33701337447E+02  0.20150606059E+01  0.23118593633E+03  0.23363813424E+03  0.00000000000E+00 0.  1.
         21    1    1    2  505  502 -0.36181517253E+02  0.30200700047E+02 -0.62286312619E+02  0.78107420991E+02  0.00000000000E+00 0.  1.
          1    1    1    2  501    0 -0.26132749107E+02 -0.10672440194E+03  0.10321390435E+04  0.10379711093E+04  0.00000000000E+00 0. -1.
<scales pt_clust_3="14000.00000" pt_clust_4="33.76153" pt_clust_5="46.98033" pt_clust_6="95.44490"></scales>
<clustering>
<clus scale="   33.762">  1  4  2 -1</clus>
<clus scale="   46.980">  2  5  1 -1</clus>
<clus scale="   95.445">  1  6  2 -1</clus>
<clus scale="   46.980">  2  3  1 -1</clus>
</clustering>
</event>
<event>
 6    0  0.1631680E+002  0.2737731E+03  0.7546771E-02  0.1099139E+00
         21   -1    0    0  505  502  0.00000000000E+00  0.00000000000E+00  0.40785203141E+02  0.40785203141E+02  0.00000000000E+00 0. -1.
          2   -1    0    0  503    0 -0.00000000000E+00 -0.00000000000E+00 -0.42074891851E+04  0.42074891851E+04  0.00000000000E+00 0. -1.
         21    1    1    2  503  504  0.32523088211E+02 -0.86361052756E+01 -0.31378391396E+03  0.31558307660E+03  0.00000000000E+00 0.  1.
         21    1    1    2  504  502  0.24475447420E+03  0.64795587392E+02 -0.69240018953E+03  0.73723893226E+03  0.00000000000E+00 0. -1.
         21    1    1    2  505  501  0.24385092142E+02 -0.12808461112E+03 -0.49240075206E+03  0.50937098559E+03  0.00000000000E+00 0. -1.
          2    1    1    2  501    0 -0.30166265455E+03  0.71925128998E+02 -0.26681191264E+04  0.26860813937E+04  0.00000000000E+00 0. -1.
<scales pt_clust_3="33.65016" pt_clust_4="273.77309" pt_clust_5="132.31702" pt_clust_6="14000.00000"></scales>
<clustering>
<clus scale="   33.650">  2  3  1 -1</clus>
<clus scale="  132.317">  1  5  2 -1</clus>
<clus scale="  273.773">  1  4  2 -1</clus>
<clus scale="  132.317">  1  3  2 -1</clus>
</clustering>
</event>
<event>
 6    0  0.1631680E+002  0.7599679E+02  0.7546771E-02  0.1340812E+00
         21   -1    0    0  503  502  0.00000000000E+00  0.00000000000E+00  0.38634972363E+02  0.38634972363E+02  0.00000000000E+00 0. -1.
          2   -1    0    0  505    0 -0.00000000000E+00 -0.00000000000E+00 -0.82729782526E+03  0.82729782526E+03  0.00000000000E+00 0.  1.
         21    1    1    2  503  501 -0.27453789003E+02 -0.15277042541E+02 -0.56119025652E+02  0.64315189493E+02  0.00000000000E+00 0. -1.
         21    1    1    2  504  502  0.34757200949E+02  0.76699937442E+02 -0.47118274391E+02  0.96493912777E+02  0.00000000000E+00 0. -1.
         21    1    1    2  505  504  0.18594655004E+02  0.48442590922E+02 -0.24789399372E+03  0.25326641690E+03  0.00000000000E+00 0. -1.
          2    1    1    2  501    0 -0.25898066951E+02 -0.10986548582E+03 -0.43753155913E+03  0.45185727844E+03  0.00000000000E+00 0.  1.
<scales pt_clust_3="31.41812" pt_clust_4="75.99679" pt_clust_5="50.03885" pt_clust_6="14000.00000"></scales>
<clustering>
<clus scale="   31.418">  1  3  2 -1</clus>
<clus scale="   50.039">  2  5  1 -1</clus>
<clus scale="   75.997">  1  4  2 -1</clus>
<clus scale="   31.418">  1  3  2 -1</clus>
</clustering>
</event>
<event>
 6    0  0.1631680E+002  0.1572044E+03  0.7546771E-02  0.1191890E+00
         21   -1    0    0  505  502  0.00000000000E+00  0.00000000000E+00  0.20857899587E+03  0.20857899587E+03  0.00000000000E+00 0.  1.
          2   -1    0    0  503    0 -0.00000000000E+00 -0.00000000000E+00 -0.75237699114E+03  0.75237699114E+03  0.00000000000E+00 0.  1.
         21    1    1    2  503  504  0.29883367200E+02 -0.20687836113E+02 -0.31960267229E+02  0.48398976018E+02  0.00000000000E+00 0. -1.
         21    1    1    2  504  502  0.26181203708E+02 -0.32406649985E+02 -0.14181278188E+01  0.41685218931E+02  0.00000000000E+00 0. -1.
         21    1    1    2  505  501  0.90646605163E+02 -0.13385161326E+02  0.15836579667E+03  0.18296364427E+03  0.00000000000E+00 0.  1.
          2    1    1    2  501    0 -0.14671117607E+03  0.66479647423E+02 -0.66878539689E+03  0.68790814779E+03  0.00000000000E+00 0.  1.
<scales pt_clust_3="30.10394" pt_clust_4="83.67225" pt_clust_5="14000.00000" pt_clust_6="157.20445"></scales>
<clustering>
<clus scale="   30.104">  3  4 -1 -1</clus>
<clus scale="   83.672">  1  3  2 -1</clus>
<clus scale="  157.204">  2  6  1 -1</clus>
<clus scale="   83.672">  1  3  2 -1</clus>
</clustering>
</event>
<event>
 6    0  0.1631680E+002  0.9908669E+02  0.7546771E-02  0.1282228E+00
          1   -1    0    0  503    0 -0.00000000000E+00  0.00000000000E+00  0.35940890133E+04  0.35940890133E+04  0.00000000000E+00 0.  1.
         21   -1    0    0  505  502  0.00000000000E+00 -0.00000000000E+00 -0.64490145095E+02  0.64490145095E+02  0.00000000000E+00 0. -1.
         21    1    1    2  503  504  0.64205423669E+02  0.37944937091E+02  0.80199875126E+03  0.80545896960E+03  0.00000000000E+00 0.  1.
         21    1    1    2  504  502  0.10084169862E+03  0.11680077293E+02  0.22234461626E+02  0.10392229630E+03  0.00000000000E+00 0. -1.
         21    1    1    2  505  501 -0.58136572174E+02 -0.88323585779E+00  0.20333629600E+02  0.61596246821E+02  0.00000000000E+00 0. -1.
          1    1    1    2  501    0 -0.10691055011E+03 -0.48741778526E+02  0.26850320257E+04  0.26876016457E+04  0.00000000000E+00 0.  1.
<scales pt_clust_3="14000.00000" pt_clust_4="47.94704" pt_clust_5="58.14328" pt_clust_6="99.08669"></scales>
<clustering>
<clus scale="   58.143">  2  5  1 -1</clus>
<clus scale="   47.947">  2  4  1 -1</clus>
<clus scale="   99.087">  1  6  2 -1</clus>
<clus scale="   58.143">  2  3  1 -1</clus>
</clustering>
</event>
<event>
 6    0  0.1631680E+002  0.7293245E+02  0.7546771E-02  0.1350396E+00
          2   -1    0    0  503    0 -0.00000000000E+00  0.00000000000E+00  0.59759842557E+03  0.59759842557E+03  0.00000000000E+00 0.  1.
         21   -1    0    0  505  502  0.00000000000E+00 -0.00000000000E+00 -0.11114266305E+03  0.11114266305E+03  0.00000000000E+00 0.  1.
         21    1    1    2  503  504 -0.30600156180E+02 -0.62103018717E+02  0.28860921461E+03  0.29679695627E+03  0.00000000000E+00 0. -1.
         21    1    1    2  504  502  0.16075825323E+02 -0.47127688078E+02  0.26503942557E+02  0.56408422372E+02  0.00000000000E+00 0. -1.
         21    1    1    2  505  501  0.62131918268E+02  0.58017654862E+02 -0.66308703032E+02  0.10781125934E+03  0.00000000000E+00 0.  1.
          2    1    1    2  501    0 -0.47607587412E+02  0.51213051932E+02  0.23765130838E+03  0.24772445063E+03  0.00000000000E+00 0.  1.
<scales pt_clust_3="72.93245" pt_clust_4="49.79409" pt_clust_5="14000.00000" pt_clust_6="67.55118"></scales>
<clustering>
<clus scale="   49.794">  2  4  1 -1</clus>
<clus scale="   67.551">  1  6  2 -1</clus>
<clus scale="   72.932">  1  3  2 -1</clus>
<clus scale="   49.794">  2  3  1 -1</clus>
</clustering>
</event>
<event>
 6    0  0.1631680E+002  0.8933377E+02  0.7546771E-02  0.1304473E+00
          2   -1    0    0  505    0 -0.00000000000E+00  0.00000000000E+00  0.13529084950E+04  0.13529084950E+04  0.00000000000E+00 0. -1.
         21   -1    0    0  504  502  0.00000000000E+00 -0.00000000000E+00 -0.23532807492E+03  0.23532807492E+03  0.00000000000E+00 0.  1.
         21    1    1    2  503  502  0.25033996362E+02 -0.18805970649E+02 -0.84319638325E+02  0.89945355151E+02  0.00000000000E+00 0.  1.
         21    1    1    2  504  501 -0.11313170647E+03  0.78015418933E+01 -0.12024290497E+03  0.16528158778E+03  0.00000000000E+00 0.  1.
         21    1    1    2  505  503  0.22344287612E+02 -0.32561174659E+02  0.89253508341E+02  0.97599621082E+02  0.00000000000E+00 0. -1.
          2    1    1    2  501    0  0.65753422493E+02  0.43565603415E+02  0.12328894550E+04  0.12354100059E+04  0.00000000000E+00 0. -1.
<scales pt_clust_3="31.31079" pt_clust_4="89.33377" pt_clust_5="40.32696" pt_clust_6="14000.00000"></scales>
<clustering>
<clus scale="   31.311">  2  3  1 -1</clus>
<clus scale="   40.327">  1  5  2 -1</clus>
<clus scale="   89.334">  2  4  1 -1</clus>
<clus scale="   31.311">  2  3  1 -1</clus>
</clustering>
</event>
<event>
 6    0  0.1631680E+002  0.7489320E+02  0.7546771E-02  0.1344202E+00
         21   -1    0    0  504  502  0.00000000000E+00  0.00000000000E+00  0.23281653282E+03  0.23281653282E+03  0.00000000000E+00 0.  1.
         -1   -1    0    0    0  501 -0.00000000000E+00 -0.00000000000E+00 -0.11715998945E+03  0.11715998945E+03  0.00000000000E+00 0.  1.
         21    1    1    2  503  501  0.46035923717E+02 -0.19098836098E+02 -0.45762264753E+00  0.49842564453E+02  0.00000000000E+00 0. -1.
         21    1    1    2  504  503  0.59358532195E+02 -0.21769983268E+02  0.88179805936E+02  0.10850366672E+03  0.00000000000E+00 0.  1.
         21    1    1    2  505  502 -0.84957109557E+01  0.81764851211E+02  0.26751456192E+02  0.86448299038E+02  0.00000000000E+00 0.  1.
         -1    1    1    2    0  505 -0.96898744956E+02 -0.40896031845E+02  0.11829038891E+01  0.10518199207E+03  0.00000000000E+00 0.  1.
<scales pt_clust_3="49.84046" pt_clust_4="68.72490" pt_clust_5="74.89320" pt_clust_6="14000.00000"></scales>
<clustering>
<clus scale="   49.840">  2  3  1 -1</clus>
<clus scale="   68.725">  1  4  2 -1</clus>
<clus scale="   74.893">  1  5  2 -1</clus>
<clus scale="   68.725">  1  3  2 -1</clus>
</clustering>
</event>
<event>
 6    0  0.1631680E+002  0.1058199E+03  0.7546771E-02  0.1268513E+00
          2   -1    0    0  505    0 -0.00000000000E+00  0.00000000000E+00  0.36302236731E+04  0.36302236731E+04  0.00000000000E+00 0.  1.
         21   -1    0    0  504  502  0.00000000000E+00 -0.00000000000E+00 -0.40570783719E+02  0.40570783719E+02  0.00000000000E+00 0.  1.
         21    1    1    2  503  501 -0.66324276828E+02  0.14834669911E+02  0.25523824555E+04  0.25532871316E+04  0.00000000000E+00 0.  1.
         21    1    1    2  504  503 -0.21302229088E+02 -0.26803235359E+02  0.34865875304E+01  0.34414454557E+02  0.00000000000E+00 0.  1.
         21    1    1    2  505  502  0.11641331588E+03  0.32695566302E+02  0.12606426210E+03  0.17468044639E+03  0.00000000000E+00 0.  1.
          2    1    1    2  501    0 -0.28786809966E+02 -0.20727000853E+02  0.90771958421E+03  0.90841242426E+03  0.00000000000E+00 0.  1.
<scales pt_clust_3="32.12149" pt_clust_4="34.23738" pt_clust_5="96.02599" pt_clust_6="32.12149"></scales>
<clustering>
<clus scale="   32.121">  3  6 -1 -1</clus>
<clus scale="   34.237">  2  4  1 -1</clus>
<clus scale="   96.026">  2  5  1 -1</clus>
<clus scale="   34.237">  2  3  1 -1</clus>
</clustering>
</event>
<event>
 6    0  0.1631680E+002  0.4480254E+03  0.7546771E-02  0.1028313E+00
         21   -1    0    0  503  502  0.00000000000E+00  0.00000000000E+00  0.52180620761E+03  0.52180620761E+03  0.00000000000E+00 0.  1.
          2   -1    0    0  505    0 -0.00000000000E+00 -0.00000000000E+00 -0.15401283408E+04  0.15401283408E+04  0.00000000000E+00 0.  1.
         21    1    1    2  503  501  0.14646323844E+02  0.57139100005E+02 -0.13184910019E+02  0.60441983784E+02  0.00000000000E+00 0.  1.
         21    1    1    2  504  502  0.10193553971E+01 -0.49759304360E+03  0.31339969236E+03  0.58806397891E+03  0.00000000000E+00 0.  1.
         21    1    1    2  505  504 -0.27154949634E+02 -0.18053068835E+02 -0.22870922978E+03  0.23102211229E+03  0.00000000000E+00 0.  1.
          2    1    1    2  501    0  0.11489270393E+02  0.45850701243E+03 -0.10898276857E+04  0.11824064734E+04  0.00000000000E+00 0.  1.
<scales pt_clust_3="58.30881" pt_clust_4="14000.00000" pt_clust_5="32.60835" pt_clust_6="448.02542"></scales>
<clustering>
<clus scale="   32.608">  2  5  1 -1</clus>
<clus scale="   58.309">  1  3  2 -1</clus>
<clus scale="  448.025">  2  6  1 -1</clus>
<clus scale="   58.309">  1  3  2 -1</clus>
</clustering>
</event>
<event>
 6    0  0.1631680E+002  0.1108048E+03  0.7546771E-02  0.1259087E+00
          2   -1    0    0  503    0 -0.00000000000E+00  0.00000000000E+00  0.70751324505E+03  0.70751324505E+03  0.00000000000E+00 0. -1.
         21   -1    0    0  501  502  0.00000000000E+00 -0.00000000000E+00 -0.35005227899E+03  0.35005227899E+03  0.00000000000E+00 0. -1.
         21    1    1    2  503  505  0.76851571906E+02  0.81766693201E+02  0.44868359710E+03  0.46250289353E+03  0.00000000000E+00 0. -1.
         21    1    1    2  504  502  0.40376903499E+02  0.48135189463E+02 -0.26963629821E+03  0.27685921352E+03  0.00000000000E+00 0. -1.
         21    1    1    2  505  504 -0.12368507712E+03  0.79862484637E+01  0.10138225853E+03  0.16012539090E+03  0.00000000000E+00 0. -1.
          2    1    1    2  501    0  0.64566017131E+01 -0.13788813113E+03  0.77031408636E+02  0.15807802608E+03  0.00000000000E+00 0. -1.
<scales pt_clust_3="14000.00000" pt_clust_4="62.82747" pt_clust_5="111.41564" pt_clust_6="110.80485"></scales>
<clustering>
<clus scale="   62.827">  2  4  1 -1</clus>
<clus scale="  111.416">  2  5  1 -1</clus>
<clus scale="  110.805">  2  6  1 -1</clus>
<clus scale="   62.827">  2  3  1 -1</clus>
</clustering>
</event>
<event>
 6    0  0.1631680E+002  0.2878149E+03  0.7546771E-02  0.1091496E+00
          2   -1    0    0  503    0 -0.00000000000E+00  0.00000000000E+00  0.13755947979E+04  0.13755947979E+04  0.00000000000E+00 0.  1.
         21   -1    0    0  505  502  0.00000000000E+00 -0.00000000000E+00 -0.31142082867E+03  0.31142082867E+03  0.00000000000E+00 0. -1.
         21    1    1    2  503  502 -0.26501502253E+02 -0.66959845227E+02  0.24112943195E+03  0.25165324048E+03  0.00000000000E+00 0.  1.
         21    1    1    2  504  501 -0.23856847999E+03 -0.99023604379E+01 -0.18940401058E+03  0.30477344965E+03  0.00000000000E+00 0. -1.
         21    1    1    2  505  504 -0.29922024403E+02  0.35856928451E+02 -0.23781347717E+02  0.52408008563E+02  0.00000000000E+00 0.  1.
          2    1    1    2  501    0  0.29499200665E+03  0.41005277214E+02  0.10362298956E+04  0.10781809279E+04  0.00000000000E+00 0.  1.
<scales pt_clust_3="72.01354" pt_clust_4="42.80930" pt_clust_5="42.80930" pt_clust_6="271.04909"></scales>
<clustering>
<clus scale="   42.809">  4  5 -1 -1</clus>
<clus scale="   72.014">  1  3  2 -1</clus>
<clus scale="  271.049">  1  6  2 -1</clus>
<clus scale="  287.815">  2  3  1 -1</clus>
</clustering>
</event>
<event>
 6    0  0.1631680E+002  0.1092135E+03  0.7546771E-02  0.1262033E+00
          1   -1    0    0  504    0 -0.00000000000E+00  0.00000000000E+00  0.11242355678E+04  0.11242355678E+04  0.00000000000E+00 0. -1.
         21   -1    0    0  505  502  0.00000000000E+00 -0.00000000000E+00 -0.10505549850E+03  0.10505549850E+03  0.00000000000E+00 0. -1.
         21    1    1    2  503  502  0.30724956815E+02 -0.35114233466E+02  0.13632098957E+02  0.48609325085E+02  0.00000000000E+00 0. -1.
         21    1    1    2  504  503 -0.35652258258E+02  0.29475583463E+02  0.24960773818E+03  0.25385806369E+03  0.00000000000E+00 0. -1.
         21    1    1    2  505  501  0.81947075254E+02  0.17999379678E+02 -0.62533602092E+02  0.10464106365E+03  0.00000000000E+00 0. -1.
          1    1    1    2  501    0 -0.77019773812E+02 -0.12360729675E+02  0.81847383422E+03  0.82218261384E+03  0.00000000000E+00 0. -1.
<scales pt_clust_3="45.03085" pt_clust_4="46.25898" pt_clust_5="109.21350" pt_clust_6="14000.00000"></scales>
<clustering>
<clus scale="   46.259">  1  4  2 -1</clus>
<clus scale="   45.031">  2  3  1 -1</clus>
<clus scale="  109.213">  2  5  1 -1</clus>
<clus scale="   45.031">  2  3  1 -1</clus>
</clustering>
</event>
<event>
 6    0  0.1631680E+002  0.8785908E+02  0.7546771E-02  0.1308121E+00
          2   -1    0    0  505    0 -0.00000000000E+00  0.00000000000E+00  0.22569328828E+04  0.22569328828E+04  0.00000000000E+00 0.  1.
         21   -1    0    0  503  502  0.00000000000E+00 -0.00000000000E+00 -0.14576412936E+03  0.14576412936E+03  0.00000000000E+00 0. -1.
         21    1    1    2  503  504 -0.32601297304E+02 -0.34745215298E+02  0.86856121376E+02  0.99065939618E+02  0.00000000000E+00 0. -1.
         21    1    1    2  504  501  0.68197369432E+02  0.19897336917E+02  0.12362286490E+03  0.14258119770E+03  0.00000000000E+00 0. -1.
         21    1    1    2  505  502 -0.14750532013E+01 -0.66334230532E+02 -0.12070424527E+03  0.13773859571E+03  0.00000000000E+00 0. -1.
          2    1    1    2  501    0 -0.34121018927E+02  0.81182108913E+02  0.20213940125E+04  0.20233112792E+04  0.00000000000E+00 0.  1.
<scales pt_clust_3="47.64530" pt_clust_4="68.27581" pt_clust_5="87.85908" pt_clust_6="14000.00000"></scales>
<clustering>
<clus scale="   47.645">  2  3  1 -1</clus>
<clus scale="   68.276">  2  4  1 -1</clus>
<clus scale="   87.859">  2  5  1 -1</clus>
<clus scale="   47.645">  2  3  1 -1</clus>
</clustering>
</event>
<event>
 6    0  0.1631680E+002  0.6271301E+02  0.7546771E-02  0.1386787E+00
         21   -1    0    0  505  502  0.00000000000E+00  0.00000000000E+00  0.68617956626E+03  0.68617956626E+03  0.00000000000E+00 0.  1.
          1   -1    0    0  503    0 -0.00000000000E+00 -0.00000000000E+00 -0.24675927986E+04  0.24675927986E+04  0.00000000000E+00 0. -1.
         21    1    1    2  503  504 -0.55357506680E+02  0.11105405676E+02 -0.24402960062E+03  0.25047600596E+03  0.00000000000E+00 0.  1.
         21    1    1    2  504  502 -0.25877003894E+02  0.39136602129E+02  0.11989796068E+03  0.12875097643E+03  0.00000000000E+00 0.  1.
         21    1    1    2  505  501  0.13247105854E+02 -0.10032189276E+03  0.55323655298E+03  0.56241501716E+03  0.00000000000E+00 0.  1.
          1    1    1    2  501    0  0.67987404721E+02  0.50079884959E+02 -0.22105181453E+04  0.22121303653E+04  0.00000000000E+00 0. -1.
<scales pt_clust_3="56.65049" pt_clust_4="46.91794" pt_clust_5="62.71301" pt_clust_6="14000.00000"></scales>
<clustering>
<clus scale="   46.918">  1  4  2 -1</clus>
<clus scale="   56.650">  2  3  1 -1</clus>
<clus scale="   62.713">  1  5  2 -1</clus>
<clus scale="   46.918">  1  3  2 -1</clus>
</clustering>
</event>
<event>
 6    0  0.1631680E+002  0.1646049E+03  0.7546771E-02  0.1183594E+00
          2   -1    0    0  504    0 -0.00000000000E+00  0.00000000000E+00  0.17646939836E+04  0.17646939836E+04  0.00000000000E+00 0.  1.
         21   -1    0    0  503  502  0.00000000000E+00 -0.00000000000E+00 -0.79734861669E+02  0.79734861669E+02  0.00000000000E+00 0. -1.
         21    1    1    2  503  501 -0.50335969970E+02 -0.58767531630E+02 -0.10201485668E+02  0.78047440423E+02  0.00000000000E+00 0. -1.
         21    1    1    2  504  505  0.31019647098E+02 -0.10513092258E+03  0.18965634030E+03  0.21905309129E+03  0.00000000000E+00 0.  1.
         21    1    1    2  505  502  0.38161103125E+02 -0.22295270459E+02  0.17393668792E+02  0.47496195538E+02  0.00000000000E+00 0. -1.
          2    1    1    2  501    0 -0.18844780253E+02  0.18619372467E+03  0.14881105985E+04  0.14998321180E+04  0.00000000000E+00 0.  1.
<scales pt_clust_3="77.86655" pt_clust_4="164.60495" pt_clust_5="44.19671" pt_clust_6="14000.00000"></scales>
<clustering>
<clus scale="   44.197">  2  5  1 -1</clus>
<clus scale="   77.867">  2  3  1 -1</clus>
<clus scale="  164.605">  2  4  1 -1</clus>
<clus scale="   44.197">  2  3  1 -1</clus>
</clustering>
</event>
<event>
 6    0  0.1631680E+002  0.1546643E+03  0.7546771E-02  0.1194856E+00
          2   -1    0    0  505    0 -0.00000000000E+00  0.00000000000E+00  0.40764173781E+04  0.40764173781E+04  0.00000000000E+00 0. -1.
         21   -1    0    0  504  502  0.00000000000E+00 -0.00000000000E+00 -0.81872182443E+02  0.81872182443E+02  0.00000000000E+00 0.  1.
         21    1    1    2  503  502  0.28052473904E+01  0.40407178001E+02 -0.12592537524E+02  0.42416759049E+02  0.00000000000E+00 0.  1.
         21    1    1    2  504  501 -0.11996480700E+03  0.45508559971E+02  0.43144090539E+02  0.13536615714E+03  0.00000000000E+00 0.  1.
         21    1    1    2  505  503  0.25095256211E+02  0.40335809966E+02  0.77690083611E+02  0.91063156883E+02  0.00000000000E+00 0.  1.
          2    1    1    2  501    0  0.92064303399E+02 -0.12625154794E+03  0.38863035591E+04  0.38894434875E+04  0.00000000000E+00 0. -1.
<scales pt_clust_3="40.50444" pt_clust_4="14000.00000" pt_clust_5="51.95946" pt_clust_6="154.66433"></scales>
<clustering>
<clus scale="   40.504">  2  3  1 -1</clus>
<clus scale="   51.959">  2  5  1 -1</clus>
<clus scale="  154.664">  1  6  2 -1</clus>
<clus scale="   40.504">  2  3  1 -1</clus>
</clustering>
</event>
<event>
 6    0  0.1631680E+002  0.1522434E+03  0.7546771E-02  0.1197743E+00
         21   -1    0    0  505  502  0.00000000000E+00  0.00000000000E+00  0.10406615996E+03  0.10406615996E+03  0.00000000000E+00 0. -1.
          1   -1    0    0  504    0 -0.00000000000E+00 -0.00000000000E+00 -0.23831808538E+04  0.23831808538E+04  0.00000000000E+00 0.  1.
         21    1    1    2  503  502  0.68011647829E+02  0.70699422775E+02  0.50729785395E+02  0.11044230959E+03  0.00000000000E+00 0. -1.
         21    1    1    2  504  503 -0.17853816495E+03  0.65445074135E+02 -0.72858493614E+03  0.75299066611E+03  0.00000000000E+00 0. -1.
         21    1    1    2  505  501  0.37273793792E+02 -0.38140891582E+01 -0.38395068400E+02  0.53647593210E+02  0.00000000000E+00 0. -1.
          1    1    1    2  501    0  0.73252723333E+02 -0.13233040775E+03 -0.15628644747E+04  0.15701664449E+04  0.00000000000E+00 0.  1.
<scales pt_clust_3="119.95923" pt_clust_4="152.24339" pt_clust_5="37.46843" pt_clust_6="14000.00000"></scales>
<clustering>
<clus scale="   37.468">  1  5  2 -1</clus>
<clus scale="  119.959">  1  3  2 -1</clus>
<clus scale="  152.243">  1  4  2 -1</clus>
<clus scale="   37.468">  1  3  2 -1</clus>
</clustering>
</event>
<event>
 6    0  0.1631680E+002  0.1064676E+03  0.7546771E-02  0.1267255E+00
         21   -1    0    0  504  502  0.00000000000E+00  0.00000000000E+00  0.17506581603E+03  0.17506581603E+03  0.00000000000E+00 0. -1.
          1   -1    0    0  503    0 -0.00000000000E+00 -0.00000000000E+00 -0.28771415511E+03  0.28771415511E+03  0.00000000000E+00 0. -1.
         21    1    1    2  503  505  0.22018257197E+02 -0.39785948310E+02 -0.48072944054E+02  0.66171997725E+02  0.00000000000E+00 0. -1.
         21    1    1    2  504  501 -0.94285317439E+02  0.12512790380E+02  0.25779581605E+02  0.98543786387E+02  0.00000000000E+00 0. -1.
         21    1    1    2  505  502  0.11644537576E+03 -0.15426255382E+02  0.62691483067E+02  0.13314547285E+03  0.00000000000E+00 0. -1.
          1    1    1    2  501    0 -0.44178315520E+02  0.42699413312E+02 -0.15304645970E+03  0.16491871418E+03  0.00000000000E+00 0. -1.
<scales pt_clust_3="45.47225" pt_clust_4="106.46763" pt_clust_5="14000.00000" pt_clust_6="32.77200"></scales>
<clustering>
<clus scale="   45.472">  2  3  1 -1</clus>
<clus scale="   32.772">  2  6  1 -1</clus>
<clus scale="  106.468">  2  4  1 -1</clus>
<clus scale="  106.468">  1  3  2 -1</clus>
</clustering>
</event>
<event>
 6    0  0.1631680E+002  0.2073684E+03  0.7546771E-02  0.1143667E+00
         21   -1    0    0  504  502  0.00000000000E+00  0.00000000000E+00  0.11813324723E+03  0.11813324723E+03  0.00000000000E+00 0. -1.
         -2   -1    0    0    0  501 -0.00000000000E+00 -0.00000000000E+00 -0.17551415454E+04  0.17551415454E+04  0.00000000000E+00 0.  1.
         21    1    1    2  503  502 -0.38257691107E+02 -0.18874900692E+03 -0.10200944967E+03  0.21793523433E+03  0.00000000000E+00 0.  1.
         21    1    1    2  504  501 -0.36426898915E+02  0.56376778473E+02 -0.15189827601E+03  0.16606729471E+03  0.00000000000E+00 0. -1.
         21    1    1    2  505  503  0.34748792890E+02  0.22943531772E+03 -0.21461304885E+03  0.31608037643E+03  0.00000000000E+00 0. -1.
         -2    1    1    2    0  505  0.39935797132E+02 -0.97063089272E+02 -0.11684875236E+04  0.11731918871E+04  0.00000000000E+00 0.  1.
<scales pt_clust_3="207.36841" pt_clust_4="67.12123" pt_clust_5="14000.00000" pt_clust_6="57.25474"></scales>
<clustering>
<clus scale="   67.121">  2  4  1 -1</clus>
<clus scale="   57.255">  2  6  1 -1</clus>
<clus scale="  207.368">  1  3  2 -1</clus>
<clus scale="  207.368">  1  3  2 -1</clus>
</clustering>
</event>
<event>
 6    0  0.1631680E+002  0.1791035E+03  0.7546771E-02  0.1168674E+00
         21   -1    0    0  503  502  0.00000000000E+00  0.00000000000E+00  0.13287758925E+04  0.13287758925E+04  0.00000000000E+00 0. -1.
          1   -1    0    0  504    0 -0.00000000000E+00 -0.00000000000E+00 -0.20990868727E+03  0.20990868727E+03  0.00000000000E+00 0. -1.
         21    1    1    2  503  505 -0.46317523294E+02  0.93101462610E+01  0.11935038288E+03  0.12836084170E+03  0.00000000000E+00 0. -1.
         21    1    1    2  504  502  0.21572250030E+03 -0.34773007295E+02  0.11542745046E+04  0.11747744427E+04  0.00000000000E+00 0. -1.
         21    1    1    2  505  501 -0.58227822767E+02 -0.61981673582E+01 -0.31210409456E+02  0.66355001930E+02  0.00000000000E+00 0. -1.
          1    1    1    2  501    0 -0.11117715424E+03  0.31661028393E+02 -0.12354727277E+03  0.16919429350E+03  0.00000000000E+00 0. -1.
<scales pt_clust_3="47.24396" pt_clust_4="172.88991" pt_clust_5="33.28522" pt_clust_6="33.28522"></scales>
<clustering>
<clus scale="   33.285">  5  6 -1 -1</clus>
<clus scale="   47.244">  1  3  2 -1</clus>
<clus scale="  172.890">  1  4  2 -1</clus>
<clus scale="   47.244">  1  3  2 -1</clus>
</clustering>
</event>
<event>
 6    0  0.1631680E+002  0.1005835E+03  0.7546771E-02  0.1279074E+00
         21   -1    0    0  501  502  0.00000000000E+00  0.00000000000E+00  0.25935375185E+03  0.25935375185E+03  0.00000000000E+00 0. -1.
          2   -1    0    0  505    0 -0.00000000000E+00 -0.00000000000E+00 -0.13106851292E+03  0.13106851292E+03  0.00000000000E+00 0. -1.
         21    1    1    2  503  502  0.36415670848E+02  0.20416974741E+02  0.11771082121E+03  0.12489512148E+03  0.00000000000E+00 0. -1.
         21    1    1    2  504  503 -0.62297395621E+02 -0.41745427085E+02  0.71191457861E+02  0.10340149833E+03  0.00000000000E+00 0. -1.
         21    1    1    2  505  504 -0.29154252932E+02 -0.41871932760E+02  0.10642912702E+02  0.52120061472E+02  0.00000000000E+00 0. -1.
          2    1    1    2  501    0  0.55035977705E+02  0.63200385104E+02 -0.71259952846E+02  0.11000558349E+03  0.00000000000E+00 0. -1.
<scales pt_clust_3="41.74870" pt_clust_4="38.11138" pt_clust_5="38.11138" pt_clust_6="89.34328"></scales>
<clustering>
<clus scale="   38.111">  4  5 -1 -1</clus>
<clus scale="   41.749">  1  3  2 -1</clus>
<clus scale="   89.343">  2  6  1 -1</clus>
<clus scale="   41.749">  1  3  2 -1</clus>
</clustering>
</event>
<event>
 6    0  0.1631680E+002  0.1668454E+03  0.7546771E-02  0.1181178E+00
         21   -1    0    0  504  502  0.00000000000E+00  0.00000000000E+00  0.33990825563E+03  0.33990825563E+03  0.00000000000E+00 0. -1.
          1   -1    0    0  505    0 -0.00000000000E+00 -0.00000000000E+00 -0.59925873243E+03  0.59925873243E+03  0.00000000000E+00 0.  1.
         21    1    1    2  503  501  0.15009099821E+03 -0.26098445713E+02  0.21951456257E+03  0.26719857745E+03  0.00000000000E+00 0. -1.
         21    1    1    2  504  503  0.58588142536E+01 -0.43183132295E+02  0.61148189518E+02  0.75088013029E+02  0.00000000000E+00 0. -1.
         21    1    1    2  505  502 -0.48544340038E+02 -0.64010601344E+02 -0.13369236914E+03  0.15597294509E+03  0.00000000000E+00 0.  1.
          1    1    1    2  501    0 -0.10740547242E+03  0.13329217935E+03 -0.40632085976E+03  0.44090745248E+03  0.00000000000E+00 0.  1.
<scales pt_clust_3="166.84541" pt_clust_4="43.57876" pt_clust_5="81.61118" pt_clust_6="14000.00000"></scales>
<clustering>
<clus scale="   43.579">  1  4  2 -1</clus>
<clus scale="   81.611">  2  5  1 -1</clus>
<clus scale="  166.845">  1  3  2 -1</clus>
<clus scale="   43.579">  1  3  2 -1</clus>
</clustering>
</event>
<event>
 6    0  0.1631680E+002  0.1081885E+03  0.7546771E-02  0.1263962E+00
         21   -1    0    0  501  502  0.00000000000E+00  0.00000000000E+00  0.10925237278E+03  0.10925237278E+03  0.00000000000E+00 0. -1.
          2   -1    0    0  504    0 -0.00000000000E+00 -0.00000000000E+00 -0.69016623344E+03  0.69016623344E+03  0.00000000000E+00 0.  1.
         21    1    1    2  503  505 -0.50328967805E+01 -0.47418463831E+02 -0.36620303716E+02  0.60123933723E+02  0.00000000000E+00 0. -1.
         21    1    1    2  504  503 -0.13954695593E+02  0.28107166758E+02 -0.27314191387E+03  0.27493863218E+03  0.00000000000E+00 0. -1.
         21    1    1    2  505  502 -0.82632420605E+02  0.69492309690E+02  0.53495316693E+02  0.12049500798E+03  0.00000000000E+00 0. -1.
          2    1    1    2  501    0  0.10162001298E+03 -0.50181012616E+02 -0.32464695977E+03  0.34386103233E+03  0.00000000000E+00 0.  1.
<scales pt_clust_3="44.64993" pt_clust_4="31.38067" pt_clust_5="108.18845" pt_clust_6="14000.00000"></scales>
<clustering>
<clus scale="   31.381">  2  4  1 -1</clus>
<clus scale="   44.650">  2  3  1 -1</clus>
<clus scale="  108.188">  1  5  2 -1</clus>
<clus scale="  108.188">  1  3  2 -1</clus>
</clustering>
</event>
<event>
 6    0  0.1631680E+002  0.1085302E+03  0.7546771E-02  0.1263316E+00
          1   -1    0    0  504    0 -0.00000000000E+00  0.00000000000E+00  0.97126657009E+03  0.97126657009E+03  0.00000000000E+00 0.  1.
         21   -1    0    0  505  502  0.00000000000E+00 -0.00000000000E+00 -0.40916295216E+03  0.40916295216E+03  0.00000000000E+00 0.  1.
         21    1    1    2  503  501 -0.62425510559E+02  0.25201918293E+02 -0.29937945418E+02  0.73677416011E+02  0.00000000000E+00 0.  1.
         21    1    1    2  504  502 -0.77270422529E+02  0.10316920757E+02  0.15763856795E+03  0.17586095404E+03  0.00000000000E+00 0.  1.
         21    1    1    2  505  503  0.27003700794E+02  0.26277385226E+02 -0.34192578173E+03  0.34399555381E+03  0.00000000000E+00 0.  1.
          1    1    1    2  501    0  0.11269223229E+03 -0.61796224276E+02  0.77632877713E+03  0.78689559838E+03  0.00000000000E+00 0.  1.
<scales pt_clust_3="61.64121" pt_clust_4="108.53020" pt_clust_5="37.67892" pt_clust_6="14000.00000"></scales>
<clustering>
<clus scale="   37.679">  2  5  1 -1</clus>
<clus scale="   61.641">  2  3  1 -1</clus>
<clus scale="  108.530">  2  4  1 -1</clus>
<clus scale="   37.679">  2  3  1 -1</clus>
</clustering>
</event>
<event>
 6    0  0.1631680E+002  0.1009593E+03  0.7546771E-02  0.1278292E+00
         -3   -1    0    0    0  501 -0.00000000000E+00  0.00000000000E+00  0.31647867712E+03  0.31647867712E+03  0.00000000000E+00 0. -1.
         21   -1    0    0  503  502  0.00000000000E+00 -0.00000000000E+00 -0.21693646791E+03  0.21693646791E+03  0.00000000000E+00 0. -1.
         21    1    1    2  503  505 -0.68244108272E+02 -0.76859848993E+02 -0.93571868210E+02  0.13899780294E+03  0.00000000000E+00 0. -1.
         21    1    1    2  504  502  0.36858580179E+02 -0.23616315200E+02 -0.81722262204E+02  0.92708216551E+02  0.00000000000E+00 0. -1.
         21    1    1    2  505  501  0.29669068517E+02  0.19192605853E+02  0.40913013122E+02  0.54060007296E+02  0.00000000000E+00 0.  1.
         -3    1    1    2    0  504  0.17164595759E+01  0.81283558340E+02  0.23392332650E+03  0.24764911825E+03  0.00000000000E+00 0. -1.
<scales pt_clust_3="14000.00000" pt_clust_4="44.07898" pt_clust_5="35.33567" pt_clust_6="100.95925"></scales>
<clustering>
<clus scale="   35.336">  1  5  2 -1</clus>
<clus scale="   44.079">  2  4  1 -1</clus>
<clus scale="  100.959">  1  6  2 -1</clus>
<clus scale="   44.079">  2  3  1 -1</clus>
</clustering>
</event>
<event>
 6    0  0.1631680E+002  0.1201083E+03  0.7546771E-02  0.1242918E+00
         21   -1    0    0  501  502  0.00000000000E+00  0.00000000000E+00  0.61218723178E+03  0.61218723178E+03  0.00000000000E+00 0.  1.
          2   -1    0    0  503    0 -0.00000000000E+00 -0.00000000000E+00 -0.14199577541E+04  0.14199577541E+04  0.00000000000E+00 0.  1.
         21    1    1    2  503  504  0.32221457264E+02 -0.12102188435E+02 -0.57770289805E+02  0.67246499220E+02  0.00000000000E+00 0. -1.
         21    1    1    2  504  505  0.82609631268E+02 -0.29880222135E+02  0.82863343651E+02  0.12076221501E+03  0.00000000000E+00 0.  1.
         21    1    1    2  505  502 -0.99249220182E+02  0.98366142605E+02  0.49532593469E+03  0.51465919528E+03  0.00000000000E+00 0.  1.
          2    1    1    2  501    0 -0.15581868350E+02 -0.56383732034E+02 -0.13281895109E+04  0.13294770764E+04  0.00000000000E+00 0.  1.
<scales pt_clust_3="34.41926" pt_clust_4="14000.00000" pt_clust_5="120.10831" pt_clust_6="70.07263"></scales>
<clustering>
<clus scale="   34.419">  2  3  1 -1</clus>
<clus scale="   70.073">  2  6  1 -1</clus>
<clus scale="  120.108">  1  5  2 -1</clus>
<clus scale="  120.108">  1  3  2 -1</clus>
</clustering>
</event>
<event>
 6    0  0.1631680E+002  0.1043613E+03  0.7546771E-02  0.1271383E+00
          1   -1    0    0  505    0 -0.00000000000E+00  0.00000000000E+00  0.78472720634E+03  0.78472720634E+03  0.00000000000E+00 0. -1.
         21   -1    0    0  503  502  0.00000000000E+00 -0.00000000000E+00 -0.54927331942E+02  0.54927331942E+02  0.00000000000E+00 0. -1.
         21    1    1    2  503  501  0.54929821636E+02  0.29354635839E+02  0.79668688113E+02  0.10112408129E+03  0.00000000000E+00 0. -1.
         21    1    1    2  504  502  0.46542107640E+02 -0.55289238290E+02  0.26358969550E+02  0.76927647371E+02  0.00000000000E+00 0. -1.
         21    1    1    2  505  504  0.47727258129E+02 -0.26667194425E+02  0.24675933514E+03  0.25274334789E+03  0.00000000000E+00 0.  1.
          1    1    1    2  501    0 -0.14919918741E+03  0.52601796875E+02  0.37701288160E+03  0.40885946173E+03  0.00000000000E+00 0. -1.
<scales pt_clust_3="67.71818" pt_clust_4="14000.00000" pt_clust_5="54.67203" pt_clust_6="104.36128"></scales>
<clustering>
<clus scale="   54.672">  1  5  2 -1</clus>
<clus scale="   67.718">  2  3  1 -1</clus>
<clus scale="  104.361">  1  6  2 -1</clus>
<clus scale="   67.718">  2  3  1 -1</clus>
</clustering>
</event>
<event>
 6    0  0.1631680E+002  0.8071091E+02  0.7546771E-02  0.1327046E+00
          3   -1    0    0  504    0 -0.00000000000E+00  0.00000000000E+00  0.42781540316E+03  0.42781540316E+03  0.00000000000E+00 0. -1.
         21   -1    0    0  503  502  0.00000000000E+00 -0.00000000000E+00 -0.10307502114E+03  0.10307502114E+03  0.00000000000E+00 0. -1.
         21    1    1    2  503  505 -0.58652326531E+00  0.43543522799E+02 -0.23290596349E+02  0.49384554929E+02  0.00000000000E+00 0. -1.
         21    1    1    2  504  502  0.26401896146E+01 -0.12945985657E+03  0.31874111765E+02  0.13335210559E+03  0.00000000000E+00 0. -1.
         21    1    1    2  505  501  0.40469662243E+02  0.44116822690E+02  0.58560095501E+02  0.83745879848E+02  0.00000000000E+00 0. -1.
          3    1    1    2  501    0 -0.42523328592E+02  0.41799511081E+02  0.25759677110E+03  0.26440788393E+03  0.00000000000E+00 0. -1.
<scales pt_clust_3="43.54747" pt_clust_4="80.71091" pt_clust_5="14000.00000" pt_clust_6="61.22640"></scales>
<clustering>
<clus scale="   43.547">  2  3  1 -1</clus>
<clus scale="   61.226">  1  6  2 -1</clus>
<clus scale="   80.711">  2  4  1 -1</clus>
<clus scale="   43.547">  2  3  1 -1</clus>
</clustering>
</event>
<event>
 6    0  0.1631680E+002  0.1163733E+03  0.7546771E-02  0.1249203E+00
         21   -1    0    0  503  502  0.00000000000E+00  0.00000000000E+00  0.13992468382E+03  0.13992468382E+03  0.00000000000E+00 0.  1.
          1   -1    0    0  504    0 -0.00000000000E+00 -0.00000000000E+00 -0.74517422841E+03  0.74517422841E+03  0.00000000000E+00 0.  1.
         21    1    1    2  503  501  0.37026989439E+02 -0.11369611281E+03  0.21316216062E+02  0.12145857353E+03  0.00000000000E+00 0.  1.
         21    1    1    2  504  505 -0.11256421975E+03 -0.25515563558E+02 -0.40021876459E+03  0.41652947925E+03  0.00000000000E+00 0.  1.
         21    1    1    2  505  502 -0.14349043139E+02  0.39829196659E+02  0.34002774614E+02  0.54299619032E+02  0.00000000000E+00 0. -1.
          1    1    1    2  501    0  0.89886273451E+02  0.99382479714E+02 -0.26034977068E+03  0.29281124043E+03  0.00000000000E+00 0.  1.
<scales pt_clust_3="88.03834" pt_clust_4="14000.00000" pt_clust_5="42.33509" pt_clust_6="116.37325"></scales>
<clustering>
<clus scale="   42.335">  1  5  2 -1</clus>
<clus scale="   88.038">  1  3  2 -1</clus>
<clus scale="  116.373">  1  6  2 -1</clus>
<clus scale="   42.335">  1  3  2 -1</clus>
</clustering>
</event>
<event>
 6    0  0.1631680E+002  0.1346871E+03  0.7546771E-02  0.1220662E+00
          2   -1    0    0  504    0 -0.00000000000E+00  0.00000000000E+00  0.45823593208E+03  0.45823593208E+03  0.00000000000E+00 0. -1.
         21   -1    0    0  503  502  0.00000000000E+00 -0.00000000000E+00 -0.29341634578E+03  0.29341634578E+03  0.00000000000E+00 0.  1.
         21    1    1    2  503  501  0.83134212895E+02  0.30015247065E+01  0.32565029096E+02  0.89335254096E+02  0.00000000000E+00 0.  1.
         21    1    1    2  504  505  0.32015087486E+02 -0.13711863122E+03 -0.98860485672E+02  0.17204615800E+03  0.00000000000E+00 0.  1.
         21    1    1    2  505  502 -0.39933598932E+01  0.53706746221E+02 -0.11006861714E+03  0.12253759420E+03  0.00000000000E+00 0.  1.
          2    1    1    2  501    0 -0.11115594049E+03  0.80410360292E+02  0.34118366002E+03  0.36773327156E+03  0.00000000000E+00 0. -1.
<scales pt_clust_3="83.30703" pt_clust_4="134.68714" pt_clust_5="53.85500" pt_clust_6="14000.00000"></scales>
<clustering>
<clus scale="   53.855">  2  5  1 -1</clus>
<clus scale="   83.307">  2  3  1 -1</clus>
<clus scale="  134.687">  2  4  1 -1</clus>
<clus scale="   53.855">  2  3  1 -1</clus>
</clustering>
</event>
<event>
 6    0  0.1631680E+002  0.8126765E+02  0.7546771E-02  0.1325492E+00
         21   -1    0    0  503  502  0.00000000000E+00  0.00000000000E+00  0.76179093237E+02  0.76179093237E+02  0.00000000000E+00 0. -1.
          2   -1    0    0  505    0 -0.00000000000E+00 -0.00000000000E+00 -0.12595267050E+04  0.12595267050E+04  0.00000000000E+00 0. -1.
         21    1    1    2  503  501 -0.20453521331E+02 -0.11902619600E+03 -0.55185220677E+02  0.13278173990E+03  0.00000000000E+00 0. -1.
         21    1    1    2  504  502  0.26839341938E+02  0.46935302426E+02  0.42100267368E+01  0.54230961771E+02  0.00000000000E+00 0. -1.
         21    1    1    2  505  504 -0.43821579256E+02 -0.21464346942E+02 -0.98524673163E+02  0.10994616965E+03  0.00000000000E+00 0.  1.
          2    1    1    2  501    0  0.37435758650E+02  0.93555240514E+02 -0.10338477447E+04  0.10387469269E+04  0.00000000000E+00 0. -1.
<scales pt_clust_3="14000.00000" pt_clust_4="53.19630" pt_clust_5="48.79599" pt_clust_6="81.26765"></scales>
<clustering>
<clus scale="   48.796">  2  5  1 -1</clus>
<clus scale="   53.196">  1  4  2 -1</clus>
<clus scale="   81.268">  2  6  1 -1</clus>
<clus scale="   53.196">  1  3  2 -1</clus>
</clustering>
</event>
<event>
 6    0  0.1631680E+002  0.8820032E+02  0.7546771E-02  0.1307269E+00
         21   -1    0    0  505  502  0.00000000000E+00  0.00000000000E+00  0.77323947268E+02  0.77323947268E+02  0.00000000000E+00 0. -1.
          2   -1    0    0  503    0 -0.00000000000E+00 -0.00000000000E+00 -0.27197337297E+04  0.27197337297E+04  0.00000000000E+00 0.  1.
         21    1    1    2  503  502  0.12112514821E+03  0.10138762995E+02 -0.60064251374E+02  0.13557953509E+03  0.00000000000E+00 0. -1.
         21    1    1    2  504  501 -0.94300060405E+01 -0.49717932910E+02 -0.38961656707E+03  0.39288912839E+03  0.00000000000E+00 0. -1.
         21    1    1    2  505  504 -0.68988989111E+02  0.39749195644E+02 -0.42931148991E+01  0.79736503614E+02  0.00000000000E+00 0. -1.
          2    1    1    2  501    0 -0.42706153055E+02 -0.17002572869E+00 -0.21884358490E+04  0.21888525098E+04  0.00000000000E+00 0.  1.
<scales pt_clust_3="88.20032" pt_clust_4="64.47064" pt_clust_5="14000.00000" pt_clust_6="42.70649"></scales>
<clustering>
<clus scale="   42.706">  2  6  1 -1</clus>
<clus scale="   64.471">  2  4  1 -1</clus>
<clus scale="   88.200">  2  3  1 -1</clus>
<clus scale="   88.200">  1  3  2 -1</clus>
</clustering>
</event>
<event>
 6    0  0.1631680E+002  0.1578098E+03  0.7546771E-02  0.1191192E+00
         -2   -1    0    0    0  501 -0.00000000000E+00  0.00000000000E+00  0.10123137251E+04  0.10123137251E+04  0.00000000000E+00 0. -1.
         21   -1    0    0  503  502  0.00000000000E+00 -0.00000000000E+00 -0.23360843509E+03  0.23360843509E+03  0.00000000000E+00 0.  1.
         21    1    1    2  503  504 -0.30443717294E+02 -0.51949662293E+02  0.82907963742E+01  0.60780956224E+02  0.00000000000E+00 0. -1.
         21    1    1    2  504  501  0.10065018622E+03  0.15502120457E+03  0.12689234800E+03  0.22419567755E+03  0.00000000000E+00 0. -1.
         21    1    1    2  505  502 -0.25741945044E+02  0.45012698245E+02 -0.14677519321E+03  0.15566550061E+03  0.00000000000E+00 0.  1.
         -2    1    1    2    0  505 -0.44464523881E+02 -0.14808424052E+03  0.79029733886E+03  0.80528002581E+03  0.00000000000E+00 0. -1.
<scales pt_clust_3="53.92509" pt_clust_4="14000.00000" pt_clust_5="51.85355" pt_clust_6="157.80983"></scales>
<clustering>
<clus scale="   51.854">  2  5  1 -1</clus>
<clus scale="   53.925">  2  3  1 -1</clus>
<clus scale="  157.810">  1  6  2 -1</clus>
<clus scale="   51.854">  2  3  1 -1</clus>
</clustering>
</event>
<event>
 6    0  0.1631680E+002  0.2627378E+03  0.7546771E-02  0.1105509E+00
         -4   -1    0    0    0  501 -0.00000000000E+00  0.00000000000E+00  0.23965591555E+04  0.23965591555E+04  0.00000000000E+00 0.  1.
         21   -1    0    0  504  502  0.00000000000E+00 -0.00000000000E+00 -0.48207998084E+02  0.48207998084E+02  0.00000000000E+00 0.  1.
         21    1    1    2  503  505  0.31955387913E+02  0.11847702694E+02  0.28066338338E+03  0.28272504248E+03  0.00000000000E+00 0.  1.
         21    1    1    2  504  501 -0.29531871950E+03  0.85519581175E+02  0.94503787395E+03  0.99379239685E+03  0.00000000000E+00 0.  1.
         21    1    1    2  505  502  0.87484014351E+02 -0.12228330810E+01  0.13794856050E+03  0.16335468598E+03  0.00000000000E+00 0.  1.
         -4    1    1    2    0  503  0.17587931724E+03 -0.96144450788E+02  0.98470133957E+03  0.10048950283E+04  0.00000000000E+00 0.  1.
<scales pt_clust_3="33.28615" pt_clust_4="250.02958" pt_clust_5="87.49256" pt_clust_6="33.28615"></scales>
<clustering>
<clus scale="   33.286">  3  6 -1 -1</clus>
<clus scale="   87.493">  2  5  1 -1</clus>
<clus scale="  250.030">  2  4  1 -1</clus>
<clus scale="   87.493">  2  3  1 -1</clus>
</clustering>
</event>
<event>
 6    0  0.1631680E+002  0.7175661E+02  0.7546771E-02  0.1354219E+00
         21   -1    0    0  505  502  0.00000000000E+00  0.00000000000E+00  0.18002761234E+03  0.18002761234E+03  0.00000000000E+00 0. -1.
          2   -1    0    0  503    0 -0.00000000000E+00 -0.00000000000E+00 -0.22560328456E+04  0.22560328456E+04  0.00000000000E+00 0.  1.
         21    1    1    2  503  504 -0.36330261851E+01  0.31262728228E+02 -0.37414655529E+03  0.37546797719E+03  0.00000000000E+00 0.  1.
         21    1    1    2  504  502  0.72982437923E+02  0.60165913309E+02 -0.69109246385E+02  0.11714290975E+03  0.00000000000E+00 0.  1.
         21    1    1    2  505  501 -0.66335566126E+02 -0.23131231631E+02  0.14671752509E+03  0.16266989082E+03  0.00000000000E+00 0. -1.
          2    1    1    2  501    0 -0.30138456118E+01 -0.68297409906E+02 -0.17794669566E+04  0.17807796801E+04  0.00000000000E+00 0.  1.
<scales pt_clust_3="31.47312" pt_clust_4="71.75661" pt_clust_5="14000.00000" pt_clust_6="39.24871"></scales>
<clustering>
<clus scale="   31.473">  2  3  1 -1</clus>
<clus scale="   39.249">  2  6  1 -1</clus>
<clus scale="   71.757">  2  4  1 -1</clus>
<clus scale="   71.757">  1  3  2 -1</clus>
</clustering>
</event>
<event>
 6    0  0.1631680E+002  0.1106944E+03  0.7546771E-02  0.1259289E+00
         21   -1    0    0  504  502  0.00000000000E+00  0.00000000000E+00  0.31150873640E+03  0.31150873640E+03  0.00000000000E+00 0.  1.
          1   -1    0    0  505    0 -0.00000000000E+00 -0.00000000000E+00 -0.23480560717E+03  0.23480560717E+03  0.00000000000E+00 0. -1.
         21    1    1    2  503  502  0.49483075403E+02 -0.18276571410E+02  0.30479890840E+02  0.60923161108E+02  0.00000000000E+00 0.  1.
         21    1    1    2  504  501 -0.42273389070E+02  0.52541687559E+02  0.20035921989E+03  0.21140360770E+03  0.00000000000E+00 0.  1.
         21    1    1    2  505  503  0.80452960823E+02  0.13122438959E+02  0.98383342562E+01  0.82107674004E+02  0.00000000000E+00 0.  1.
          1    1    1    2  501    0 -0.87662647156E+02 -0.47387555108E+02 -0.16397431576E+03  0.19187990076E+03  0.00000000000E+00 0. -1.
<scales pt_clust_3="35.26991" pt_clust_4="67.43640" pt_clust_5="35.26991" pt_clust_6="101.64113"></scales>
<clustering>
<clus scale="   35.270">  3  5 -1 -1</clus>
<clus scale="   67.436">  1  4  2 -1</clus>
<clus scale="  101.641">  2  6  1 -1</clus>
<clus scale="   67.436">  1  3  2 -1</clus>
</clustering>
</event>
<event>
 6    0  0.1631680E+002  0.1529720E+03  0.7546771E-02  0.1196868E+00
          1   -1    0    0  503    0 -0.00000000000E+00  0.00000000000E+00  0.12663070670E+04  0.12663070670E+04  0.00000000000E+00 0. -1.
         21   -1    0    0  505  502  0.00000000000E+00 -0.00000000000E+00 -0.17241344699E+03  0.17241344699E+03  0.00000000000E+00 0. -1.
         21    1    1    2  503  504 -0.86154493587E+01  0.35180243878E+02  0.40815593004E+03  0.40975985498E+03  0.00000000000E+00 0. -1.
         21    1    1    2  504  502  0.40919641726E+02 -0.76609784156E+02 -0.12138618178E+03  0.14925843774E+03  0.00000000000E+00 0. -1.
         21    1    1    2  505  501 -0.92004660619E+02 -0.90268387124E+02  0.11532762231E+03  0.17295577399E+03  0.00000000000E+00 0. -1.
          1    1    1    2  501    0  0.59700468252E+02  0.13169792740E+03  0.69179624940E+03  0.70674644723E+03  0.00000000000E+00 0. -1.
<scales pt_clust_3="36.21982" pt_clust_4="86.28292" pt_clust_5="14000.00000" pt_clust_6="152.97202"></scales>
<clustering>
<clus scale="   36.220">  1  3  2 -1</clus>
<clus scale="   86.283">  2  4  1 -1</clus>
<clus scale="  152.972">  1  6  2 -1</clus>
<clus scale="   86.283">  2  3  1 -1</clus>
</clustering>
</event>
<event>
 6    0  0.1631680E+002  0.1094369E+03  0.7546771E-02  0.1261616E+00
         21   -1    0    0  504  502  0.00000000000E+00  0.00000000000E+00  0.31663645783E+03  0.31663645783E+03  0.00000000000E+00 0.  1.
          2   -1    0    0  505    0 -0.00000000000E+00 -0.00000000000E+00 -0.97255210810E+03  0.97255210810E+03  0.00000000000E+00 0.  1.
         21    1    1    2  503  502 -0.67634885240E+02 -0.12381312561E+02  0.27850300545E+03  0.28686529704E+03  0.00000000000E+00 0.  1.
         21    1    1    2  504  501 -0.37600660107E+02 -0.18440545027E+02 -0.17733920035E+02  0.45479173928E+02  0.00000000000E+00 0.  1.
         21    1    1    2  505  503 -0.62735615764E+02  0.39113029816E+02 -0.10814749720E+03  0.13100178524E+03  0.00000000000E+00 0.  1.
          2    1    1    2  501    0  0.16797116111E+03 -0.82911722278E+01 -0.80853723849E+03  0.82584230972E+03  0.00000000000E+00 0.  1.
<scales pt_clust_3="14000.00000" pt_clust_4="41.87915" pt_clust_5="74.77769" pt_clust_6="109.43688"></scales>
<clustering>
<clus scale="   41.879">  1  4  2 -1</clus>
<clus scale="   74.778">  2  5  1 -1</clus>
<clus scale="  109.437">  2  6  1 -1</clus>
<clus scale="   41.879">  1  3  2 -1</clus>
</clustering>
</event>
<event>
 6    0  0.1631680E+002  0.1636934E+03  0.7546771E-02  0.1184589E+00
         21   -1    0    0  505  502  0.00000000000E+00  0.00000000000E+00  0.95946314982E+02  0.95946314982E+02  0.00000000000E+00 0. -1.
         -1   -1    0    0    0  501 -0.00000000000E+00 -0.00000000000E+00 -0.38233033880E+03  0.38233033880E+03  0.00000000000E+00 0. -1.
         21    1    1    2  503  501  0.19980221693E+01 -0.41969372646E+02 -0.35364192025E+02  0.54918543412E+02  0.00000000000E+00 0.  1.
         21    1    1    2  504  502  0.62071078766E+02 -0.13811081290E+02  0.49121935696E+01  0.63778479374E+02  0.00000000000E+00 0. -1.
         21    1    1    2  505  503 -0.14701250764E+03  0.10208689034E+02 -0.20390510258E+03  0.25158335714E+03  0.00000000000E+00 0. -1.
         -1    1    1    2    0  504  0.82943406704E+02  0.45571764902E+02 -0.52026922786E+02  0.10799627385E+03  0.00000000000E+00 0. -1.
<scales pt_clust_3="42.01691" pt_clust_4="61.16661" pt_clust_5="146.78797" pt_clust_6="61.16661"></scales>
<clustering>
<clus scale="   42.017">  2  3  1 -1</clus>
<clus scale="   61.167">  4  6 -1 -1</clus>
<clus scale="  146.788">  2  5  1 -1</clus>
<clus scale="  163.693">  1  3  2 -1</clus>
</clustering>
</event>
<event>
 6    0  0.1631680E+002  0.7776959E+02  0.7546771E-02  0.1335503E+00
         21   -1    0    0  503  502  0.00000000000E+00  0.00000000000E+00  0.89401037933E+02  0.89401037933E+02  0.00000000000E+00 0. -1.
         -1   -1    0    0    0  501 -0.00000000000E+00 -0.00000000000E+00 -0.74430321303E+03  0.74430321303E+03  0.00000000000E+00 0. -1.
         21    1    1    2  503  505 -0.55661361587E+02  0.11876534137E+03 -0.55685754517E+03  0.57209590027E+03  0.00000000000E+00 0. -1.
         21    1    1    2  504  502  0.10427394272E+02 -0.34178087466E+02  0.48732206383E+02  0.60429298797E+02  0.00000000000E+00 0. -1.
         21    1    1    2  505  501  0.22709655128E+02 -0.42166115691E+02 -0.14544842257E+03  0.15313051093E+03  0.00000000000E+00 0.  1.
         -1    1    1    2    0  504  0.22524312187E+02 -0.42421138213E+02 -0.13284137369E+01  0.48048540975E+02  0.00000000000E+00 0. -1.
<scales pt_clust_3="14000.00000" pt_clust_4="35.73335" pt_clust_5="51.76331" pt_clust_6="77.76959"></scales>
<clustering>
<clus scale="   35.733">  1  4  2 -1</clus>
<clus scale="   51.763">  2  5  1 -1</clus>
<clus scale="   77.770">  1  6  2 -1</clus>
<clus scale="   35.733">  1  3  2 -1</clus>
</clustering>
</event>
<event>
 6    0  0.1631680E+002  0.8509094E+02  0.7546771E-02  0.1315195E+00
          2   -1    0    0  503    0 -0.00000000000E+00  0.00000000000E+00  0.10097389616E+04  0.10097389616E+04  0.00000000000E+00 0.  1.
         21   -1    0    0  504  502  0.00000000000E+00 -0.00000000000E+00 -0.65504473191E+03  0.65504473191E+03  0.00000000000E+00 0. -1.
         21    1    1    2  503  505  0.11164843997E+03 -0.30749677047E+02  0.21362512245E+03  0.24299508170E+03  0.00000000000E+00 0.  1.
         21    1    1    2  504  501 -0.11070356531E+03  0.87410626810E+02 -0.44941474806E+03  0.47103026742E+03  0.00000000000E+00 0. -1.
         21    1    1    2  505  502  0.31774812490E+02 -0.66554325721E+02 -0.17218977363E+03  0.18731907304E+03  0.00000000000E+00 0. -1.
          2    1    1    2  501    0 -0.32719687151E+02  0.98933759579E+01  0.76267362893E+03  0.76343927138E+03  0.00000000000E+00 0.  1.
<scales pt_clust_3="85.09094" pt_clust_4="14000.00000" pt_clust_5="73.04840" pt_clust_6="34.18270"></scales>
<clustering>
<clus scale="   34.183">  1  6  2 -1</clus>
<clus scale="   73.048">  2  5  1 -1</clus>
<clus scale="   85.091">  1  3  2 -1</clus>
<clus scale="   73.048">  2  3  1 -1</clus>
</clustering>
</event>
<event>
 6    0  0.1631680E+002  0.1324048E+03  0.7546771E-02  0.1223930E+00
         21   -1    0    0  503  502  0.00000000000E+00  0.00000000000E+00  0.11139959281E+04  0.11139959281E+04  0.00000000000E+00 0. -1.
          1   -1    0    0  504    0 -0.00000000000E+00 -0.00000000000E+00 -0.55112878132E+03  0.55112878132E+03  0.00000000000E+00 0.  1.
         21    1    1    2  503  505 -0.30051122653E+02  0.76698563837E+00  0.82922137339E+03  0.82976607808E+03  0.00000000000E+00 0. -1.
         21    1    1    2  504  502  0.43607504104E+02  0.11494485772E+02 -0.90388331903E+02  0.10101380184E+03  0.00000000000E+00 0.  1.
         21    1    1    2  505  501  0.99222689564E+02  0.10929448756E+03  0.24268417073E+03  0.28405287159E+03  0.00000000000E+00 0. -1.
          1    1    1    2  501    0 -0.11277907101E+03 -0.12155595897E+03 -0.41865006547E+03  0.45029195788E+03  0.00000000000E+00 0.  1.
<scales pt_clust_3="30.06091" pt_clust_4="44.55827" pt_clust_5="14000.00000" pt_clust_6="132.40477"></scales>
<clustering>
<clus scale="   30.061">  1  3  2 -1</clus>
<clus scale="   44.558">  2  4  1 -1</clus>
<clus scale="  132.405">  2  6  1 -1</clus>
<clus scale="   30.061">  1  3  2 -1</clus>
</clustering>
</event>
<event>
 6    0  0.1631680E+002  0.9352220E+02  0.7546771E-02  0.1294540E+00
          2   -1    0    0  503    0 -0.00000000000E+00  0.00000000000E+00  0.27989530256E+04  0.27989530256E+04  0.00000000000E+00 0. -1.
         21   -1    0    0  501  502  0.00000000000E+00 -0.00000000000E+00 -0.69157785679E+02  0.69157785679E+02  0.00000000000E+00 0. -1.
         21    1    1    2  503  505  0.42857440259E+02 -0.53036342132E+02  0.38925779465E+03  0.39518507622E+03  0.00000000000E+00 0. -1.
         21    1    1    2  504  502 -0.61095906753E+02  0.80095466453E+02 -0.13154330518E+02  0.10159247009E+03  0.00000000000E+00 0. -1.
         21    1    1    2  505  504  0.38586493269E+02 -0.58828963133E+02  0.13422407569E+03  0.15154493347E+03  0.00000000000E+00 0. -1.
          2    1    1    2  501    0 -0.20348026774E+02  0.31769838812E+02  0.22194677000E+04  0.22197883314E+04  0.00000000000E+00 0. -1.
<scales pt_clust_3="42.89145" pt_clust_4="93.52220" pt_clust_5="14000.00000" pt_clust_6="37.72751"></scales>
<clustering>
<clus scale="   37.728">  1  6  2 -1</clus>
<clus scale="   42.891">  1  3  2 -1</clus>
<clus scale="   93.522">  2  4  1 -1</clus>
<clus scale="   93.522">  2  3  1 -1</clus>
</clustering>
</event>
<event>
 6    0  0.1631680E+002  0.2306461E+03  0.7546771E-02  0.1126186E+00
          2   -1    0    0  504    0 -0.00000000000E+00  0.00000000000E+00  0.32018310336E+04  0.32018310336E+04  0.00000000000E+00 0.  1.
         21   -1    0    0  503  502  0.00000000000E+00 -0.00000000000E+00 -0.29822012381E+03  0.29822012381E+03  0.00000000000E+00 0. -1.
         21    1    1    2  503  501  0.52470223421E+02 -0.45041865285E+00 -0.21814080386E+03  0.22436295935E+03  0.00000000000E+00 0. -1.
         21    1    1    2  504  505 -0.16288374539E+02  0.15760012798E+03  0.32596305671E+02  0.16175793838E+03  0.00000000000E+00 0. -1.
         21    1    1    2  505  502 -0.17650777470E+02  0.78354983367E+02  0.20586221912E+03  0.22097580551E+03  0.00000000000E+00 0.  1.
          2    1    1    2  501    0 -0.18531071412E+02 -0.23550469270E+03  0.28832931888E+04  0.28929544541E+04  0.00000000000E+00 0.  1.
<scales pt_clust_3="52.47216" pt_clust_4="230.64614" pt_clust_5="79.30199" pt_clust_6="14000.00000"></scales>
<clustering>
<clus scale="   52.472">  2  3  1 -1</clus>
<clus scale="   79.302">  2  5  1 -1</clus>
<clus scale="  230.646">  2  4  1 -1</clus>
<clus scale="   52.472">  2  3  1 -1</clus>
</clustering>
</event>
<event>
 6    0  0.1631680E+002  0.1264848E+03  0.7546771E-02  0.1232767E+00
         21   -1    0    0  503  502  0.00000000000E+00  0.00000000000E+00  0.48022840346E+03  0.48022840346E+03  0.00000000000E+00 0. -1.
         -3   -1    0    0    0  501 -0.00000000000E+00 -0.00000000000E+00 -0.88448700323E+03  0.88448700323E+03  0.00000000000E+00 0. -1.
         21    1    1    2  503  504 -0.20363938463E+02 -0.35591330629E+02 -0.10709758030E+02  0.42380794267E+02  0.00000000000E+00 0. -1.
         21    1    1    2  504  501  0.76431814925E+02  0.46848316441E+02 -0.24293882198E+03  0.25895145937E+03  0.00000000000E+00 0. -1.
         21    1    1    2  505  502 -0.58872726268E+02  0.13411307015E+03  0.43551984218E+03  0.45948867931E+03  0.00000000000E+00 0. -1.
         -3    1    1    2    0  505  0.28048498061E+01 -0.14537005596E+03 -0.58612986193E+03  0.60389447373E+03  0.00000000000E+00 0. -1.
<scales pt_clust_3="41.00528" pt_clust_4="89.02767" pt_clust_5="126.48480" pt_clust_6="14000.00000"></scales>
<clustering>
<clus scale="   41.005">  1  3  2 -1</clus>
<clus scale="   89.028">  2  4  1 -1</clus>
<clus scale="  126.485">  1  5  2 -1</clus>
<clus scale="   41.005">  1  3  2 -1</clus>
</clustering>
</event>
<event>
 6    0  0.1631680E+002  0.1050053E+03  0.7546771E-02  0.1270109E+00
          2   -1    0    0  504    0 -0.00000000000E+00  0.00000000000E+00  0.80603965533E+03  0.80603965533E+03  0.00000000000E+00 0. -1.
         21   -1    0    0  503  502  0.00000000000E+00 -0.00000000000E+00 -0.22545559889E+03  0.22545559889E+03  0.00000000000E+00 0.  1.
         21    1    1    2  503  501  0.29123548514E+02 -0.10160581371E+02 -0.89460042365E+01  0.32116187252E+02  0.00000000000E+00 0.  1.
         21    1    1    2  504  505 -0.17503115900E+02  0.27462430321E+02  0.24724951014E+03  0.24938497230E+03  0.00000000000E+00 0. -1.
         21    1    1    2  505  502 -0.12335726410E+03 -0.33884707702E+02 -0.17710025471E+03  0.21847125267E+03  0.00000000000E+00 0.  1.
          2    1    1    2  501    0  0.11173683148E+03  0.16582858752E+02  0.51938080525E+03  0.53152284201E+03  0.00000000000E+00 0. -1.
<scales pt_clust_3="30.84507" pt_clust_4="32.43995" pt_clust_5="14000.00000" pt_clust_6="105.00528"></scales>
<clustering>
<clus scale="   30.845">  2  3  1 -1</clus>
<clus scale="   32.440">  1  4  2 -1</clus>
<clus scale="  105.005">  1  6  2 -1</clus>
<clus scale="   30.845">  2  3  1 -1</clus>
</clustering>
</event>
<event>
 6    0  0.1631680E+002  0.1200699E+03  0.7546771E-02  0.1242982E+00
         21   -1    0    0  505  502  0.00000000000E+00  0.00000000000E+00  0.29222992351E+03  0.29222992351E+03  0.00000000000E+00 0.  1.
          1   -1    0    0  503    0 -0.00000000000E+00 -0.00000000000E+00 -0.10932098671E+04  0.10932098671E+04  0.00000000000E+00 0.  1.
         21    1    1    2  503  504 -0.11581948427E+02  0.43118082836E+02 -0.12958354500E+03  0.13705913224E+03  0.00000000000E+00 0. -1.
         21    1    1    2  504  502  0.72853739789E+02 -0.66090898715E+02 -0.96948422119E+02  0.13811108155E+03  0.00000000000E+00 0.  1.
         21    1    1    2  505  501 -0.48305666313E+02  0.11393672031E+03  0.25093306270E+03  0.27978994905E+03  0.00000000000E+00 0.  1.
          1    1    1    2  501    0 -0.12966125050E+02 -0.90963904430E+02 -0.82538103916E+03  0.83047962776E+03  0.00000000000E+00 0.  1.
<scales pt_clust_3="44.64651" pt_clust_4="120.06990" pt_clust_5="14000.00000" pt_clust_6="58.46835"></scales>
<clustering>
<clus scale="   44.647">  2  3  1 -1</clus>
<clus scale="   58.468">  2  6  1 -1</clus>
<clus scale="  120.070">  2  4  1 -1</clus>
<clus scale="  120.070">  1  3  2 -1</clus>
</clustering>
</event>
<event>
 6    0  0.1631680E+002  0.8242566E+02  0.7546771E-02  0.1322305E+00
         21   -1    0    0  503  502  0.00000000000E+00  0.00000000000E+00  0.20467571742E+03  0.20467571742E+03  0.00000000000E+00 0. -1.
          2   -1    0    0  504    0 -0.00000000000E+00 -0.00000000000E+00 -0.18647874203E+03  0.18647874203E+03  0.00000000000E+00 0. -1.
         21    1    1    2  503  501 -0.41506659388E+02 -0.54425798291E+01  0.13283850072E+03  0.13927846826E+03  0.00000000000E+00 0. -1.
         21    1    1    2  504  505 -0.33585237941E+02  0.67790081109E+01 -0.45055835282E+02  0.56603457946E+02  0.00000000000E+00 0. -1.
         21    1    1    2  505  502 -0.10456202551E+02  0.69798689069E+02 -0.19245470994E+02  0.73154475744E+02  0.00000000000E+00 0. -1.
          2    1    1    2  501    0  0.85548099879E+02 -0.71135117351E+02 -0.50340219048E+02  0.12211805750E+03  0.00000000000E+00 0. -1.
<scales pt_clust_3="42.63233" pt_clust_4="34.26256" pt_clust_5="82.42566" pt_clust_6="14000.00000"></scales>
<clustering>
<clus scale="   34.263">  2  4  1 -1</clus>
<clus scale="   42.632">  1  3  2 -1</clus>
<clus scale="   82.426">  1  5  2 -1</clus>
<clus scale="   42.632">  1  3  2 -1</clus>
</clustering>
</event>
<event>
 6    0  0.1631680E+002  0.2735615E+03  0.7546771E-02  0.1099258E+00
          2   -1    0    0  505    0 -0.00000000000E+00  0.00000000000E+00  0.81363233522E+03  0.81363233522E+03  0.00000000000E+00 0. -1.
         21   -1    0    0  503  502  0.00000000000E+00 -0.00000000000E+00 -0.14280089899E+04  0.14280089899E+04  0.00000000000E+00 0. -1.
         21    1    1    2  503  501 -0.32735963528E+02  0.22336177999E+03 -0.49972767710E+03  0.54835196665E+03  0.00000000000E+00 0.  1.
         21    1    1    2  504  502  0.14123558228E+03 -0.31534609450E+03 -0.85908181333E+03  0.92596555607E+03  0.00000000000E+00 0. -1.
         21    1    1    2  505  504  0.21721071011E+02  0.24451071712E+02  0.23249482373E+03  0.23478394940E+03  0.00000000000E+00 0. -1.
          2    1    1    2  501    0 -0.13022068976E+03  0.67533242805E+02  0.51193801201E+03  0.53253985303E+03  0.00000000000E+00 0. -1.
<scales pt_clust_3="273.56151" pt_clust_4="14000.00000" pt_clust_5="32.70565" pt_clust_6="142.35631"></scales>
<clustering>
<clus scale="   32.706">  1  5  2 -1</clus>
<clus scale="  142.356">  1  6  2 -1</clus>
<clus scale="  273.562">  2  3  1 -1</clus>
<clus scale="  273.562">  2  3  1 -1</clus>
</clustering>
</event>
<event>
 6    0  0.1631680E+002  0.1657159E+03  0.7546771E-02  0.1182391E+00
          1   -1    0    0  505    0 -0.00000000000E+00  0.00000000000E+00  0.18228654605E+04  0.18228654605E+04  0.00000000000E+00 0. -1.
         21   -1    0    0  503  502  0.00000000000E+00 -0.00000000000E+00 -0.10571783753E+03  0.10571783753E+03  0.00000000000E+00 0. -1.
         21    1    1    2  503  504 -0.67935031294E+02  0.10912952891E+02  0.28505333715E+01  0.68864987898E+02  0.00000000000E+00 0. -1.
         21    1    1    2  504  501  0.65517619423E+01  0.15738820173E+03  0.40932340501E+02  0.16275573147E+03  0.00000000000E+00 0. -1.
         21    1    1    2  505  502  0.12820745053E+02 -0.28542367222E+02  0.12130618472E+04  0.12134653202E+04  0.00000000000E+00 0. -1.
          1    1    1    2  501    0  0.48562524298E+02 -0.13975878740E+03  0.46030290199E+03  0.48349725853E+03  0.00000000000E+00 0. -1.
<scales pt_clust_3="67.81254" pt_clust_4="165.71591" pt_clust_5="31.28959" pt_clust_6="14000.00000"></scales>
<clustering>
<clus scale="   31.290">  1  5  2 -1</clus>
<clus scale="   67.813">  2  3  1 -1</clus>
<clus scale="  165.716">  2  4  1 -1</clus>
<clus scale="   67.813">  2  3  1 -1</clus>
</clustering>
</event>
<event>
 6    0  0.1631680E+002  0.1058016E+03  0.7546771E-02  0.1268548E+00
          1   -1    0    0  505    0 -0.00000000000E+00  0.00000000000E+00  0.11794511092E+04  0.11794511092E+04  0.00000000000E+00 0.  1.
         21   -1    0    0  503  502  0.00000000000E+00 -0.00000000000E+00 -0.56942022089E+03  0.56942022089E+03  0.00000000000E+00 0. -1.
         21    1    1    2  503  504  0.70123717338E+01 -0.33027483297E+02 -0.32186664351E+03  0.32363269955E+03  0.00000000000E+00 0. -1.
         21    1    1    2  504  501 -0.31466505754E+02 -0.30054519831E+02 -0.22344577431E+03  0.22764320592E+03  0.00000000000E+00 0. -1.
         21    1    1    2  505  502  0.12279511165E+03  0.25229525322E+02  0.19718498260E+03  0.23366019292E+03  0.00000000000E+00 0. -1.
          1    1    1    2  501    0 -0.98340977627E+02  0.37852477806E+02  0.95815832352E+03  0.96393523168E+03  0.00000000000E+00 0.  1.
<scales pt_clust_3="33.76371" pt_clust_4="65.25494" pt_clust_5="105.80162" pt_clust_6="14000.00000"></scales>
<clustering>
<clus scale="   33.764">  2  3  1 -1</clus>
<clus scale="   65.255">  2  4  1 -1</clus>
<clus scale="  105.802">  2  5  1 -1</clus>
<clus scale="   33.764">  2  3  1 -1</clus>
</clustering>
</event>
<event>
 6    0  0.1631680E+002  0.9469019E+02  0.7546771E-02  0.1291875E+00
          1   -1    0    0  505    0 -0.00000000000E+00  0.00000000000E+00  0.37816736310E+02  0.37816736310E+02  0.00000000000E+00 0.  1.
         21   -1    0    0  504  502  0.00000000000E+00 -0.00000000000E+00 -0.14982761928E+04  0.14982761928E+04  0.00000000000E+00 0.  1.
         21    1    1    2  503  501 -0.13873973483E+03  0.38203830790E+02 -0.60853999822E+03  0.62532325732E+03  0.00000000000E+00 0.  1.
         21    1    1    2  504  503  0.60006071213E+02  0.46282328010E+01 -0.76902570955E+03  0.77137713932E+03  0.00000000000E+00 0.  1.
         21    1    1    2  505  502 -0.75209626314E+00 -0.31380977247E+02 -0.28507706694E+02  0.42403074449E+02  0.00000000000E+00 0.  1.
          1    1    1    2  501    0  0.79485759880E+02 -0.11451086344E+02 -0.54386042050E+02  0.96989458046E+02  0.00000000000E+00 0.  1.
<scales pt_clust_3="94.69019" pt_clust_4="60.07560" pt_clust_5="31.38999" pt_clust_6="14000.00000"></scales>
<clustering>
<clus scale="   31.390">  1  5  2 -1</clus>
<clus scale="   60.076">  2  4  1 -1</clus>
<clus scale="   94.690">  2  3  1 -1</clus>
<clus scale="   60.076">  2  3  1 -1</clus>
</clustering>
</event>
<event>
 6    0  0.1631680E+002  0.1105004E+03  0.7546771E-02  0.1259646E+00
         21   -1    0    0  503  502  0.00000000000E+00  0.00000000000E+00  0.49490635357E+03  0.49490635357E+03  0.00000000000E+00 0. -1.
          4   -1    0    0  505    0 -0.00000000000E+00 -0.00000000000E+00 -0.81361862074E+03  0.81361862074E+03  0.00000000000E+00 0. -1.
         21    1    1    2  503  504  0.37368238489E+02  0.88474025660E+01  0.11325886859E+03  0.11959194410E+03  0.00000000000E+00 0. -1.
         21    1    1    2  504  501 -0.75925769666E+01  0.92523088636E+02 -0.35349453897E+03  0.36548126934E+03  0.00000000000E+00 0. -1.
         21    1    1    2  505  502 -0.83412781712E+02 -0.10986798818E+03  0.35797549444E+03  0.38363409859E+03  0.00000000000E+00 0. -1.
          4    1    1    2  501    0  0.53637120189E+02  0.84974969821E+01 -0.43645209122E+03  0.43981766228E+03  0.00000000000E+00 0. -1.
<scales pt_clust_3="38.40133" pt_clust_4="110.50037" pt_clust_5="14000.00000" pt_clust_6="54.47631"></scales>
<clustering>
<clus scale="   38.401">  1  3  2 -1</clus>
<clus scale="   54.476">  2  6  1 -1</clus>
<clus scale="  110.500">  2  4  1 -1</clus>
<clus scale="   38.401">  1  3  2 -1</clus>
</clustering>
</event>
<event>
 6    0  0.1631680E+002  0.8563162E+02  0.7546771E-02  0.1313789E+00
          1   -1    0    0  504    0 -0.00000000000E+00  0.00000000000E+00  0.92940221545E+02  0.92940221545E+02  0.00000000000E+00 0.  1.
         21   -1    0    0  505  502  0.00000000000E+00 -0.00000000000E+00 -0.41456607623E+03  0.41456607623E+03  0.00000000000E+00 0. -1.
         21    1    1    2  503  502  0.93520247184E+02 -0.71307431490E+02 -0.30416221901E+03  0.32610648857E+03  0.00000000000E+00 0. -1.
         21    1    1    2  504  503 -0.36890277655E+02  0.28383361893E+01  0.31505609558E+02  0.48595804052E+02  0.00000000000E+00 0.  1.
         21    1    1    2  505  501 -0.53394450426E+02  0.13950552531E+02 -0.54930800898E+02  0.77865127878E+02  0.00000000000E+00 0.  1.
          1    1    1    2  501    0 -0.32355191032E+01  0.54518542770E+02  0.59615556639E+01  0.54938877269E+02  0.00000000000E+00 0.  1.
<scales pt_clust_3="14000.00000" pt_clust_4="36.99931" pt_clust_5="85.63162" pt_clust_6="61.25456"></scales>
<clustering>
<clus scale="   36.999">  1  4  2 -1</clus>
<clus scale="   61.255">  1  6  2 -1</clus>
<clus scale="   85.632">  1  5  2 -1</clus>
<clus scale="   85.632">  2  3  1 -1</clus>
</clustering>
</event>
<event>
 6    0  0.1631680E+002  0.1666225E+03  0.7546771E-02  0.1181417E+00
         21   -1    0    0  501  502  0.00000000000E+00  0.00000000000E+00  0.15882850547E+04  0.15882850547E+04  0.00000000000E+00 0. -1.
          2   -1    0    0  505    0 -0.00000000000E+00 -0.00000000000E+00 -0.21074564336E+04  0.21074564336E+04  0.00000000000E+00 0.  1.
         21    1    1    2  503  502 -0.74584790872E+02 -0.54665791766E+02  0.15643991948E+04  0.15671298863E+04  0.00000000000E+00 0. -1.
         21    1    1    2  504  503  0.19854977212E+03 -0.50965159843E+02 -0.76760690414E+03  0.79450602188E+03  0.00000000000E+00 0. -1.
         21    1    1    2  505  504 -0.32639774306E+02 -0.18459240583E+02 -0.62717835776E+03  0.62829832951E+03  0.00000000000E+00 0.  1.
          2    1    1    2  501    0 -0.91325206946E+02  0.12409019219E+03 -0.68878531181E+03  0.70580725059E+03  0.00000000000E+00 0.  1.
<scales pt_clust_3="92.50727" pt_clust_4="14000.00000" pt_clust_5="37.49798" pt_clust_6="166.62247"></scales>
<clustering>
<clus scale="   37.498">  2  5  1 -1</clus>
<clus scale="   92.507">  1  3  2 -1</clus>
<clus scale="  166.622">  2  6  1 -1</clus>
<clus scale="   92.507">  1  3  2 -1</clus>
</clustering>
</event>
<event>
 6    0  0.1631680E+002  0.7878885E+02  0.7546771E-02  0.1332524E+00
          1   -1    0    0  503    0 -0.00000000000E+00  0.00000000000E+00  0.10976799799E+04  0.10976799799E+04  0.00000000000E+00 0. -1.
         21   -1    0    0  504  502  0.00000000000E+00 -0.00000000000E+00 -0.87479294992E+02  0.87479294992E+02  0.00000000000E+00 0. -1.
         21    1    1    2  503  502  0.39376149267E+02 -0.32845463961E+02 -0.35640649066E+02  0.62446469074E+02  0.00000000000E+00 0. -1.
         21    1    1    2  504  505  0.21241741435E+02  0.33212599936E+02 -0.17229552052E+02  0.43024944365E+02  0.00000000000E+00 0. -1.
         21    1    1    2  505  501 -0.19397797989E+02 -0.74918968816E+02  0.23881085311E+03  0.25103734785E+03  0.00000000000E+00 0. -1.
          1    1    1    2  501    0 -0.41220092713E+02  0.74551832841E+02  0.82426003295E+03  0.82865051363E+03  0.00000000000E+00 0. -1.
<scales pt_clust_3="57.71202" pt_clust_4="39.42446" pt_clust_5="78.78885" pt_clust_6="14000.00000"></scales>
<clustering>
<clus scale="   39.424">  2  4  1 -1</clus>
<clus scale="   57.712">  2  3  1 -1</clus>
<clus scale="   78.789">  2  5  1 -1</clus>
<clus scale="   39.424">  2  3  1 -1</clus>
</clustering>
</event>
<event>
 6    0  0.1631680E+002  0.1277214E+03  0.7546771E-02  0.1230876E+00
          2   -1    0    0  503    0 -0.00000000000E+00  0.00000000000E+00  0.20606734884E+04  0.20606734884E+04  0.00000000000E+00 0.  1.
         21   -1    0    0  505  502  0.00000000000E+00 -0.00000000000E+00 -0.23817766836E+03  0.23817766836E+03  0.00000000000E+00 0.  1.
         21    1    1    2  503  504  0.70983560875E+02  0.39210425831E+02  0.18283383554E+03  0.20001083677E+03  0.00000000000E+00 0. -1.
         21    1    1    2  504  502 -0.16771821670E+02 -0.26290278842E+02  0.39165037701E+01  0.31429472880E+02  0.00000000000E+00 0.  1.
         21    1    1    2  505  501 -0.96955166861E+02 -0.53156579064E+02 -0.20117163659E+03  0.22955599240E+03  0.00000000000E+00 0.  1.
          2    1    1    2  501    0  0.42743427656E+02  0.40236432075E+02  0.18369171173E+04  0.18378548547E+04  0.00000000000E+00 0.  1.
<scales pt_clust_3="14000.00000" pt_clust_4="31.18450" pt_clust_5="127.72138" pt_clust_6="58.63923"></scales>
<clustering>
<clus scale="   31.184">  2  4  1 -1</clus>
<clus scale="   58.639">  1  6  2 -1</clus>
<clus scale="  127.721">  2  5  1 -1</clus>
<clus scale="   31.184">  2  3  1 -1</clus>
</clustering>
</event>
<event>
 6    0  0.1631680E+002  0.1365445E+03  0.7546771E-02  0.1218056E+00
          2   -1    0    0  503    0 -0.00000000000E+00  0.00000000000E+00  0.55884580420E+03  0.55884580420E+03  0.00000000000E+00 0.  1.
         21   -1    0    0  504  502  0.00000000000E+00 -0.00000000000E+00 -0.93756805821E+03  0.93756805821E+03  0.00000000000E+00 0.  1.
         21    1    1    2  503  505 -0.61323060260E+02 -0.10748402283E+03  0.16312949698E+03  0.20475489168E+03  0.00000000000E+00 0.  1.
         21    1    1    2  504  501  0.80550098723E+02  0.99407731235E+02 -0.42058408494E+03  0.43961481769E+03  0.00000000000E+00 0.  1.
         21    1    1    2  505  502 -0.17645018464E+02 -0.16318320744E+03 -0.45129934995E+03  0.48021995912E+03  0.00000000000E+00 0.  1.
          2    1    1    2  501    0 -0.15820199980E+01  0.17125949904E+03  0.33003168391E+03  0.37182419392E+03  0.00000000000E+00 0.  1.
<scales pt_clust_3="123.74705" pt_clust_4="14000.00000" pt_clust_5="136.54448" pt_clust_6="92.03453"></scales>
<clustering>
<clus scale="  123.747">  1  3  2 -1</clus>
<clus scale="   92.035">  1  6  2 -1</clus>
<clus scale="  136.544">  1  5  2 -1</clus>
<clus scale="  136.544">  2  3  1 -1</clus>
</clustering>
</event>
<event>
 6    0  0.1631680E+002  0.6249285E+02  0.7546771E-02  0.1387658E+00
         21   -1    0    0  504  502  0.00000000000E+00  0.00000000000E+00  0.66625108970E+03  0.66625108970E+03  0.00000000000E+00 0. -1.
          2   -1    0    0  505    0 -0.00000000000E+00 -0.00000000000E+00 -0.14524925184E+03  0.14524925184E+03  0.00000000000E+00 0. -1.
         21    1    1    2  503  502 -0.57120581320E+02 -0.11122296623E+02  0.24593693812E+03  0.25272800364E+03  0.00000000000E+00 0. -1.
         21    1    1    2  504  501  0.86074208572E+02  0.93458170211E+01  0.33555617822E+03  0.34654590233E+03  0.00000000000E+00 0. -1.
         21    1    1    2  505  503 -0.86955410184E+02 -0.11401306454E+02  0.39261182653E+02  0.96086802489E+02  0.00000000000E+00 0. -1.
          2    1    1    2  501    0  0.58001782932E+02  0.13177786056E+02 -0.99752461135E+02  0.11613963308E+03  0.00000000000E+00 0. -1.
<scales pt_clust_3="58.19335" pt_clust_4="39.34876" pt_clust_5="62.49285" pt_clust_6="14000.00000"></scales>
<clustering>
<clus scale="   58.193">  1  3  2 -1</clus>
<clus scale="   39.349">  1  4  2 -1</clus>
<clus scale="   62.493">  1  5  2 -1</clus>
<clus scale="   58.193">  1  3  2 -1</clus>
</clustering>
</event>
<event>
 6    0  0.1631680E+002  0.6335440E+02  0.7546771E-02  0.1384271E+00
         21   -1    0    0  504  502  0.00000000000E+00  0.00000000000E+00  0.29503509669E+02  0.29503509669E+02  0.00000000000E+00 0. -1.
          2   -1    0    0  503    0 -0.00000000000E+00 -0.00000000000E+00 -0.40404326100E+04  0.40404326100E+04  0.00000000000E+00 0.  1.
         21    1    1    2  503  505  0.47877094364E+02  0.70407594685E+00 -0.11314073814E+04  0.11324201405E+04  0.00000000000E+00 0.  1.
         21    1    1    2  504  501  0.39710152659E+02 -0.17413494307E+02 -0.94037580908E+02  0.10355284946E+03  0.00000000000E+00 0. -1.
         21    1    1    2  505  502 -0.25846545699E+01  0.67480269503E+02 -0.25469498347E+02  0.72173142910E+02  0.00000000000E+00 0. -1.
          2    1    1    2  501    0 -0.85002592453E+02 -0.50770851143E+02 -0.27600146396E+04  0.27617899868E+04  0.00000000000E+00 0.  1.
<scales pt_clust_3="48.69093" pt_clust_4="43.36042" pt_clust_5="63.35440" pt_clust_6="14000.00000"></scales>
<clustering>
<clus scale="   43.360">  1  4  2 -1</clus>
<clus scale="   48.691">  2  3  1 -1</clus>
<clus scale="   63.354">  1  5  2 -1</clus>
<clus scale="   43.360">  1  3  2 -1</clus>
</clustering>
</event>
<event>
 6    0  0.1631680E+002  0.7973111E+02  0.7546771E-02  0.1329816E+00
          2   -1    0    0  504    0 -0.00000000000E+00  0.00000000000E+00  0.14418402502E+04  0.14418402502E+04  0.00000000000E+00 0. -1.
         21   -1    0    0  505  502  0.00000000000E+00 -0.00000000000E+00 -0.13059428888E+03  0.13059428888E+03  0.00000000000E+00 0.  1.
         21    1    1    2  503  502 -0.63221279887E+02 -0.74199029037E+02  0.51039316812E+03  0.51961871811E+03  0.00000000000E+00 0. -1.
         21    1    1    2  504  503  0.12941430188E+02 -0.34742808921E+02  0.28232391314E+03  0.28474784515E+03  0.00000000000E+00 0. -1.
         21    1    1    2  505  501  0.34746005801E+02  0.26009366906E+02 -0.11812558120E+03  0.12584683159E+03  0.00000000000E+00 0.  1.
          2    1    1    2  501    0  0.15533843898E+02  0.82932471053E+02  0.63665446125E+03  0.64222114423E+03  0.00000000000E+00 0. -1.
<scales pt_clust_3="14000.00000" pt_clust_4="37.07483" pt_clust_5="43.36774" pt_clust_6="79.73111"></scales>
<clustering>
<clus scale="   37.075">  1  4  2 -1</clus>
<clus scale="   43.368">  2  5  1 -1</clus>
<clus scale="   79.731">  1  6  2 -1</clus>
<clus scale="   43.368">  2  3  1 -1</clus>
</clustering>
</event>
<event>
 6    0  0.1631680E+002  0.1450715E+03  0.7546771E-02  0.1206663E+00
          1   -1    0    0  503    0 -0.00000000000E+00  0.00000000000E+00  0.93512455380E+03  0.93512455380E+03  0.00000000000E+00 0. -1.
         21   -1    0    0  501  502  0.00000000000E+00 -0.00000000000E+00 -0.47147668257E+03  0.47147668257E+03  0.00000000000E+00 0. -1.
         21    1    1    2  503  505 -0.25997994018E+02 -0.34466605167E+02  0.97168342968E+02  0.10632746324E+03  0.00000000000E+00 0.  1.
         21    1    1    2  504  502 -0.92571314109E+02 -0.12106599949E+02 -0.29547519891E+03  0.30987354055E+03  0.00000000000E+00 0. -1.
         21    1    1    2  505  504 -0.42524682568E+02  0.28810842802E+02 -0.15201173906E+03  0.16045554556E+03  0.00000000000E+00 0. -1.
          1    1    1    2  501    0  0.16109399069E+03  0.17762362314E+02  0.81396646623E+03  0.82994468702E+03  0.00000000000E+00 0. -1.
<scales pt_clust_3="43.17224" pt_clust_4="36.60154" pt_clust_5="36.60154" pt_clust_6="136.42139"></scales>
<clustering>
<clus scale="   36.602">  4  5 -1 -1</clus>
<clus scale="   43.172">  1  3  2 -1</clus>
<clus scale="  136.421">  1  6  2 -1</clus>
<clus scale="  145.071">  2  3  1 -1</clus>
</clustering>
</event>
<event>
 6    0  0.1631680E+002  0.1232246E+03  0.7546771E-02  0.1237870E+00
         21   -1    0    0  501  502  0.00000000000E+00  0.00000000000E+00  0.90782382146E+02  0.90782382146E+02  0.00000000000E+00 0.  1.
          2   -1    0    0  503    0 -0.00000000000E+00 -0.00000000000E+00 -0.81588617754E+03  0.81588617754E+03  0.00000000000E+00 0.  1.
         21    1    1    2  503  504  0.38622849390E+02 -0.59100765628E+02 -0.56781090237E+03  0.57218340228E+03  0.00000000000E+00 0.  1.
         21    1    1    2  504  505  0.34956435542E+02 -0.33065542235E+02 -0.17052722181E+03  0.17718582293E+03  0.00000000000E+00 0.  1.
         21    1    1    2  505  502  0.43196905591E+01  0.74624920073E+02 -0.65470777847E+01  0.75036009022E+02  0.00000000000E+00 0.  1.
          2    1    1    2  501    0 -0.77898975491E+02  0.17541387790E+02  0.19781406576E+02  0.82263325451E+02  0.00000000000E+00 0.  1.
<scales pt_clust_3="41.29817" pt_clust_4="41.29817" pt_clust_5="74.74984" pt_clust_6="112.61342"></scales>
<clustering>
<clus scale="   41.298">  3  4 -1 -1</clus>
<clus scale="   74.750">  1  5  2 -1</clus>
<clus scale="  112.613">  1  6  2 -1</clus>
<clus scale="   74.750">  1  3  2 -1</clus>
</clustering>
</event>
<event>
 6    0  0.1631680E+002  0.3050104E+03  0.7546771E-02  0.1082762E+00
          2   -1    0    0  504    0 -0.00000000000E+00  0.00000000000E+00  0.14413756382E+04  0.14413756382E+04  0.00000000000E+00 0. -1.
         21   -1    0    0  505  502  0.00000000000E+00 -0.00000000000E+00 -0.83301933755E+02  0.83301933755E+02  0.00000000000E+00 0.  1.
         21    1    1    2  503  502  0.81826137576E+02 -0.28266225191E+03  0.33980404972E+03  0.44951113184E+03  0.00000000000E+00 0.  1.
         21    1    1    2  504  503  0.32027303964E+02 -0.80728467534E+00  0.10039321195E+03  0.10538119810E+03  0.00000000000E+00 0. -1.
         21    1    1    2  505  501 -0.73881687770E+01  0.66794854351E+02  0.13974949273E+03  0.15506791520E+03  0.00000000000E+00 0.  1.
          2    1    1    2  501    0 -0.10646527276E+03  0.21667468223E+03  0.77812695009E+03  0.81471732686E+03  0.00000000000E+00 0. -1.
<scales pt_clust_3="297.25862" pt_clust_4="32.03748" pt_clust_5="36.57477" pt_clust_6="36.57477"></scales>
<clustering>
<clus scale="   32.037">  1  4  2 -1</clus>
<clus scale="   36.575">  5  6 -1 -1</clus>
<clus scale="  297.259">  2  3  1 -1</clus>
<clus scale="  297.259">  2  3  1 -1</clus>
</clustering>
</event>
<event>
 6    0  0.1631680E+002  0.8647105E+02  0.7546771E-02  0.1311630E+00
          2   -1    0    0  503    0 -0.00000000000E+00  0.00000000000E+00  0.23680356481E+03  0.23680356481E+03  0.00000000000E+00 0.  1.
         21   -1    0    0  504  502  0.00000000000E+00 -0.00000000000E+00 -0.96256377863E+03  0.96256377863E+03  0.00000000000E+00 0.  1.
         21    1    1    2  503  505 -0.38808354050E+02  0.68805534859E+02  0.30732741338E+00  0.78996103837E+02  0.00000000000E+00 0. -1.
         21    1    1    2  504  501 -0.15309629789E+02  0.46674815037E+02 -0.16377632591E+03  0.17098423334E+03  0.00000000000E+00 0. -1.
         21    1    1    2  505  502  0.27808190435E+02  0.40721000596E+02 -0.72244795970E+03  0.72412882129E+03  0.00000000000E+00 0.  1.
          2    1    1    2  501    0  0.26309793404E+02 -0.15620135049E+03  0.16015674439E+03  0.22525818497E+03  0.00000000000E+00 0.  1.
<scales pt_clust_3="81.38052" pt_clust_4="49.12151" pt_clust_5="86.47105" pt_clust_6="14000.00000"></scales>
<clustering>
<clus scale="   49.122">  2  4  1 -1</clus>
<clus scale="   81.381">  1  3  2 -1</clus>
<clus scale="   86.471">  2  5  1 -1</clus>
<clus scale="   49.122">  2  3  1 -1</clus>
</clustering>
</event>
<event>
 6    0  0.1631680E+002  0.2394966E+03  0.7546771E-02  0.1120129E+00
          1   -1    0    0  504    0 -0.00000000000E+00  0.00000000000E+00  0.18702675168E+04  0.18702675168E+04  0.00000000000E+00 0.  1.
         21   -1    0    0  501  502  0.00000000000E+00 -0.00000000000E+00 -0.20394402641E+03  0.20394402641E+03  0.00000000000E+00 0. -1.
         21    1    1    2  503  502  0.49405429372E+02  0.28145471026E+03 -0.50112223276E+02  0.29011874345E+03  0.00000000000E+00 0. -1.
         21    1    1    2  504  505 -0.19823341944E+02  0.34139873209E+02  0.12658420396E+03  0.13259734733E+03  0.00000000000E+00 0. -1.
         21    1    1    2  505  503 -0.55997908699E+02 -0.14223977003E+03  0.20570796151E+03  0.25628828179E+03  0.00000000000E+00 0.  1.
          1    1    1    2  501    0  0.26415821270E+02 -0.17335481344E+03  0.13841435482E+04  0.13952071707E+04  0.00000000000E+00 0.  1.
<scales pt_clust_3="239.49656" pt_clust_4="39.47779" pt_clust_5="14000.00000" pt_clust_6="146.48242"></scales>
<clustering>
<clus scale="   39.478">  1  4  2 -1</clus>
<clus scale="  146.482">  1  6  2 -1</clus>
<clus scale="  239.497">  2  3  1 -1</clus>
<clus scale="  239.497">  2  3  1 -1</clus>
</clustering>
</event>
<event>
 6    0  0.1631680E+002  0.8651432E+02  0.7546771E-02  0.1311519E+00
          2   -1    0    0  503    0 -0.00000000000E+00  0.00000000000E+00  0.32966069280E+04  0.32966069280E+04  0.00000000000E+00 0. -1.
         21   -1    0    0  501  502  0.00000000000E+00 -0.00000000000E+00 -0.17125813747E+04  0.17125813747E+04  0.00000000000E+00 0.  1.
         21    1    1    2  503  505  0.14271957074E+03  0.45811383484E+02  0.72071604305E+03  0.73613801249E+03  0.00000000000E+00 0.  1.
         21    1    1    2  504  502 -0.31363794009E+02 -0.85332794193E+01 -0.14117113173E+04  0.14120854605E+04  0.00000000000E+00 0.  1.
         21    1    1    2  505  504 -0.50698765999E+02  0.18080397513E+02 -0.28983697499E+03  0.29479270297E+03  0.00000000000E+00 0.  1.
          2    1    1    2  501    0 -0.60657010732E+02 -0.55358501578E+02  0.25648578026E+04  0.25661721267E+04  0.00000000000E+00 0. -1.
<scales pt_clust_3="14000.00000" pt_clust_4="32.50391" pt_clust_5="81.77716" pt_clust_6="86.51432"></scales>
<clustering>
<clus scale="   32.504">  2  4  1 -1</clus>
<clus scale="   81.777">  2  5  1 -1</clus>
<clus scale="   86.514">  1  6  2 -1</clus>
<clus scale="   32.504">  2  3  1 -1</clus>
</clustering>
</event>
<event>
 6    0  0.1631680E+002  0.1711755E+03  0.7546771E-02  0.1176628E+00
          2   -1    0    0  503    0 -0.00000000000E+00  0.00000000000E+00  0.12348895235E+04  0.12348895235E+04  0.00000000000E+00 0. -1.
         21   -1    0    0  505  502  0.00000000000E+00 -0.00000000000E+00 -0.96931993052E+02  0.96931993052E+02  0.00000000000E+00 0. -1.
         21    1    1    2  503  502  0.78958930610E+02  0.10171133192E+03  0.25313253552E+03  0.28399962729E+03  0.00000000000E+00 0. -1.
         21    1    1    2  504  501  0.11459735902E+03 -0.16035185325E+02  0.49600688957E+02  0.12589642651E+03  0.00000000000E+00 0. -1.
         21    1    1    2  505  504  0.29202098581E+02 -0.32182802872E+02 -0.11339339654E+02  0.44911869100E+02  0.00000000000E+00 0. -1.
          2    1    1    2  501    0 -0.22275838822E+03 -0.53493343727E+02  0.84656364563E+03  0.87701359365E+03  0.00000000000E+00 0. -1.
<scales pt_clust_3="128.76221" pt_clust_4="42.05017" pt_clust_5="42.05017" pt_clust_6="156.82080"></scales>
<clustering>
<clus scale="   42.050">  4  5 -1 -1</clus>
<clus scale="  128.762">  1  3  2 -1</clus>
<clus scale="  156.821">  1  6  2 -1</clus>
<clus scale="  171.175">  2  3  1 -1</clus>
</clustering>
</event>
<event>
 6    0  0.1631680E+002  0.7876763E+02  0.7546771E-02  0.1332586E+00
          2   -1    0    0  503    0 -0.00000000000E+00  0.00000000000E+00  0.19393731678E+04  0.19393731678E+04  0.00000000000E+00 0. -1.
         21   -1    0    0  505  502  0.00000000000E+00 -0.00000000000E+00 -0.67426158549E+03  0.67426158549E+03  0.00000000000E+00 0.  1.
         21    1    1    2  503  502 -0.97353415394E+02  0.42635839546E+02  0.11399215875E+03  0.15585157862E+03  0.00000000000E+00 0.  1.
         21    1    1    2  504  501  0.99405144566E+02 -0.95148223111E+01  0.39953408198E+03  0.41182447387E+03  0.00000000000E+00 0.  1.
         21    1    1    2  505  504  0.34242937560E+02 -0.29700383855E+02 -0.64615502144E+03  0.64774300715E+03  0.00000000000E+00 0.  1.
          2    1    1    2  501    0 -0.36294666733E+02 -0.34206333792E+01  0.13977403630E+04  0.13982156936E+04  0.00000000000E+00 0. -1.
<scales pt_clust_3="78.76763" pt_clust_4="14000.00000" pt_clust_5="45.29180" pt_clust_6="36.45550"></scales>
<clustering>
<clus scale="   36.456">  1  6  2 -1</clus>
<clus scale="   45.292">  2  5  1 -1</clus>
<clus scale="   78.768">  2  3  1 -1</clus>
<clus scale="   45.292">  2  3  1 -1</clus>
</clustering>
</event>
<event>
 6    0  0.1631680E+002  0.1526441E+03  0.7546771E-02  0.1197261E+00
          2   -1    0    0  505    0 -0.00000000000E+00  0.00000000000E+00  0.78559290857E+03  0.78559290857E+03  0.00000000000E+00 0. -1.
         21   -1    0    0  503  502  0.00000000000E+00 -0.00000000000E+00 -0.25752109337E+03  0.25752109337E+03  0.00000000000E+00 0.  1.
         21    1    1    2  503  504  0.11881185870E+02 -0.99459347115E+02 -0.18382545948E+03  0.20934450998E+03  0.00000000000E+00 0.  1.
         21    1    1    2  504  501 -0.26971255452E+02 -0.39101071162E+02 -0.39117071736E+02  0.61534443102E+02  0.00000000000E+00 0.  1.
         21    1    1    2  505  502  0.26229362368E+02  0.37128568973E+02  0.68996341135E+02  0.82625693185E+02  0.00000000000E+00 0.  1.
          2    1    1    2  501    0 -0.11139292785E+02  0.10143184930E+03  0.68201800529E+03  0.68960935567E+03  0.00000000000E+00 0. -1.
<scales pt_clust_3="44.86896" pt_clust_4="44.86896" pt_clust_5="45.45888" pt_clust_6="138.03941"></scales>
<clustering>
<clus scale="   44.869">  3  4 -1 -1</clus>
<clus scale="   45.459">  1  5  2 -1</clus>
<clus scale="  138.039">  1  6  2 -1</clus>
<clus scale="  152.644">  2  3  1 -1</clus>
</clustering>
</event>
<event>
 6    0  0.1631680E+002  0.1306755E+03  0.7546771E-02  0.1226457E+00
         21   -1    0    0  501  502  0.00000000000E+00  0.00000000000E+00  0.27642520782E+04  0.27642520782E+04  0.00000000000E+00 0. -1.
          2   -1    0    0  504    0 -0.00000000000E+00 -0.00000000000E+00 -0.49080103642E+02  0.49080103642E+02  0.00000000000E+00 0.  1.
         21    1    1    2  503  505  0.64393984714E+01 -0.86336728044E+02  0.82422795011E+03  0.82876245704E+03  0.00000000000E+00 0. -1.
         21    1    1    2  504  503 -0.26984573323E+02  0.23275879911E+02  0.72113568231E+02  0.80438178163E+02  0.00000000000E+00 0.  1.
         21    1    1    2  505  502  0.28252433864E+02 -0.52735800044E+02  0.17810925526E+04  0.17820970640E+04  0.00000000000E+00 0. -1.
          2    1    1    2  501    0 -0.77072590118E+01  0.11579664818E+03  0.37737903557E+02  0.12203448257E+03  0.00000000000E+00 0.  1.
<scales pt_clust_3="130.67550" pt_clust_4="35.63613" pt_clust_5="59.45522" pt_clust_6="14000.00000"></scales>
<clustering>
<clus scale="   35.636">  2  4  1 -1</clus>
<clus scale="   59.455">  1  5  2 -1</clus>
<clus scale="  130.675">  1  3  2 -1</clus>
<clus scale="   59.455">  1  3  2 -1</clus>
</clustering>
</event>
<event>
 6    0  0.1631680E+002  0.8119632E+02  0.7546771E-02  0.1325690E+00
         21   -1    0    0  504  502  0.00000000000E+00  0.00000000000E+00  0.31990726215E+03  0.31990726215E+03  0.00000000000E+00 0. -1.
          1   -1    0    0  505    0 -0.00000000000E+00 -0.00000000000E+00 -0.60010772779E+03  0.60010772779E+03  0.00000000000E+00 0. -1.
         21    1    1    2  503  502 -0.65879831872E+02 -0.25512020314E+02  0.26405243034E+03  0.27333990085E+03  0.00000000000E+00 0. -1.
         21    1    1    2  504  501  0.12396512768E+02  0.32962015954E+02 -0.20955460339E+01  0.35278312569E+02  0.00000000000E+00 0.  1.
         21    1    1    2  505  503 -0.64096245011E+01 -0.66630620893E+02 -0.43946405554E+01  0.67082306106E+02  0.00000000000E+00 0. -1.
          1    1    1    2  501    0  0.59892943605E+02  0.59180625254E+02 -0.53776270939E+03  0.54431447042E+03  0.00000000000E+00 0. -1.
<scales pt_clust_3="55.02195" pt_clust_4="35.21602" pt_clust_5="81.19632" pt_clust_6="14000.00000"></scales>
<clustering>
<clus scale="   35.216">  1  4  2 -1</clus>
<clus scale="   55.022">  1  3  2 -1</clus>
<clus scale="   81.196">  1  5  2 -1</clus>
<clus scale="   35.216">  1  3  2 -1</clus>
</clustering>
</event>
<event>
 6    0  0.1631680E+002  0.2269420E+03  0.7546771E-02  0.1128811E+00
         -3   -1    0    0    0  501 -0.00000000000E+00  0.00000000000E+00  0.15596837838E+03  0.15596837838E+03  0.00000000000E+00 0.  1.
         21   -1    0    0  503  502  0.00000000000E+00 -0.00000000000E+00 -0.42355255729E+03  0.42355255729E+03  0.00000000000E+00 0.  1.
         21    1    1    2  503  501  0.17805320659E+02 -0.30468887128E+02  0.29737375798E+02  0.46148608277E+02  0.00000000000E+00 0.  1.
         21    1    1    2  504  505 -0.47540646456E+02  0.33439514450E+02 -0.24744306343E+02  0.63171155511E+02  0.00000000000E+00 0.  1.
         21    1    1    2  505  502  0.55638369281E+02 -0.18795558035E+03 -0.14925397725E+03  0.24637304650E+03  0.00000000000E+00 0.  1.
         -3    1    1    2    0  504 -0.25903043483E+02  0.18498495303E+03 -0.12332327112E+03  0.22382812537E+03  0.00000000000E+00 0.  1.
<scales pt_clust_3="35.28998" pt_clust_4="47.40545" pt_clust_5="210.14592" pt_clust_6="47.40545"></scales>
<clustering>
<clus scale="   35.290">  1  3  2 -1</clus>
<clus scale="   47.405">  4  6 -1 -1</clus>
<clus scale="  210.146">  2  5  1 -1</clus>
<clus scale="  210.146">  2  3  1 -1</clus>
</clustering>
</event>
<event>
 6    0  0.1631680E+002  0.9920033E+02  0.7546771E-02  0.1281987E+00
         21   -1    0    0  505  502  0.00000000000E+00  0.00000000000E+00  0.46911607486E+03  0.46911607486E+03  0.00000000000E+00 0.  1.
          2   -1    0    0  503    0 -0.00000000000E+00 -0.00000000000E+00 -0.26000522639E+03  0.26000522639E+03  0.00000000000E+00 0.  1.
         21    1    1    2  503  502  0.10286813892E+02  0.29532004926E+02 -0.11301998290E+02  0.33251962654E+02  0.00000000000E+00 0.  1.
         21    1    1    2  504  501 -0.47332429528E+02  0.49797543079E+02  0.82589674389E+02  0.10743001674E+03  0.00000000000E+00 0.  1.
         21    1    1    2  505  504 -0.10970108749E+02  0.37887054561E+02  0.34411151439E+03  0.34636470162E+03  0.00000000000E+00 0.  1.
          2    1    1    2  501    0  0.48015724385E+02 -0.11721660257E+03 -0.20628834202E+03  0.24207462023E+03  0.00000000000E+00 0.  1.
<scales pt_clust_3="31.27232" pt_clust_4="14000.00000" pt_clust_5="39.56424" pt_clust_6="99.20033"></scales>
<clustering>
<clus scale="   31.272">  2  3  1 -1</clus>
<clus scale="   39.564">  1  5  2 -1</clus>
<clus scale="   99.200">  2  6  1 -1</clus>
<clus scale="   39.564">  1  3  2 -1</clus>
</clustering>
</event>
<event>
 6    0  0.1631680E+002  0.1017289E+03  0.7546771E-02  0.1276702E+00
         21   -1    0    0  505  502  0.00000000000E+00  0.00000000000E+00  0.10490648885E+04  0.10490648885E+04  0.00000000000E+00 0. -1.
          3   -1    0    0  503    0 -0.00000000000E+00 -0.00000000000E+00 -0.48435003576E+03  0.48435003576E+03  0.00000000000E+00 0. -1.
         21    1    1    2  503  504 -0.10582263477E+03 -0.12207872954E+02 -0.14927648982E+02  0.10756531456E+03  0.00000000000E+00 0. -1.
         21    1    1    2  504  502  0.40087157260E+01 -0.63840859537E+02 -0.17998988092E+02  0.66450648760E+02  0.00000000000E+00 0. -1.
         21    1    1    2  505  501  0.58484033975E+02 -0.23818300997E+02  0.96969354216E+03  0.97174752863E+03  0.00000000000E+00 0. -1.
          3    1    1    2  501    0  0.43329885071E+02  0.99867033489E+02 -0.37205205234E+03  0.38765143231E+03  0.00000000000E+00 0. -1.
<scales pt_clust_3="101.72891" pt_clust_4="74.55474" pt_clust_5="63.14819" pt_clust_6="14000.00000"></scales>
<clustering>
<clus scale="   63.148">  1  5  2 -1</clus>
<clus scale="   74.555">  1  4  2 -1</clus>
<clus scale="  101.729">  1  3  2 -1</clus>
<clus scale="   63.148">  1  3  2 -1</clus>
</clustering>
</event>
<event>
 6    0  0.1631680E+002  0.1471644E+03  0.7546771E-02  0.1204001E+00
         21   -1    0    0  504  502  0.00000000000E+00  0.00000000000E+00  0.79784076572E+03  0.79784076572E+03  0.00000000000E+00 0. -1.
          1   -1    0    0  505    0 -0.00000000000E+00 -0.00000000000E+00 -0.50057338823E+03  0.50057338823E+03  0.00000000000E+00 0.  1.
         21    1    1    2  503  502 -0.56031537519E+02  0.14808973785E+03  0.98194051492E+02  0.18631203773E+03  0.00000000000E+00 0. -1.
         21    1    1    2  504  501  0.10612894049E+03 -0.10237221682E+03  0.64179847206E+03  0.65852008438E+03  0.00000000000E+00 0. -1.
         21    1    1    2  505  503 -0.18484081462E+02 -0.49704987679E+02 -0.14942674303E+03  0.15855787145E+03  0.00000000000E+00 0.  1.
          1    1    1    2  501    0 -0.31613321511E+02  0.39874666494E+01 -0.29329840304E+03  0.29502416039E+03  0.00000000000E+00 0.  1.
<scales pt_clust_3="14000.00000" pt_clust_4="147.16445" pt_clust_5="62.87692" pt_clust_6="31.86380"></scales>
<clustering>
<clus scale="   31.864">  2  6  1 -1</clus>
<clus scale="   62.877">  2  5  1 -1</clus>
<clus scale="  147.164">  1  4  2 -1</clus>
<clus scale="  147.164">  1  3  2 -1</clus>
</clustering>
</event>
<event>
 6    0  0.1631680E+002  0.1031594E+03  0.7546771E-02  0.1273789E+00
          2   -1    0    0  505    0 -0.00000000000E+00  0.00000000000E+00  0.20339171774E+04  0.20339171774E+04  0.00000000000E+00 0. -1.
         21   -1    0    0  503  502  0.00000000000E+00 -0.00000000000E+00 -0.24873283648E+03  0.24873283648E+03  0.00000000000E+00 0.  1.
         21    1    1    2  503  504 -0.30888988053E+02  0.15531231321E+02 -0.14355049025E+03  0.14765531477E+03  0.00000000000E+00 0.  1.
         21    1    1    2  504  501  0.28127138060E+02  0.88035070796E+02 -0.78132044306E+02  0.12102035338E+03  0.00000000000E+00 0.  1.
         21    1    1    2  505  502  0.36725642988E+02  0.68965207104E+01  0.20308747018E+03  0.20649662320E+03  0.00000000000E+00 0. -1.
          2    1    1    2  501    0 -0.33963792996E+02 -0.11046282283E+03  0.18037794053E+04  0.18074777225E+04  0.00000000000E+00 0. -1.
<scales pt_clust_3="34.57382" pt_clust_4="103.15939" pt_clust_5="36.91479" pt_clust_6="14000.00000"></scales>
<clustering>
<clus scale="   34.574">  2  3  1 -1</clus>
<clus scale="   36.915">  1  5  2 -1</clus>
<clus scale="  103.159">  2  4  1 -1</clus>
<clus scale="   34.574">  2  3  1 -1</clus>
</clustering>
</event>
<event>
 6    0  0.1631680E+002  0.7671275E+02  0.7546771E-02  0.1338648E+00
         21   -1    0    0  505  502  0.00000000000E+00  0.00000000000E+00  0.33533924028E+03  0.33533924028E+03  0.00000000000E+00 0. -1.
          1   -1    0    0  503    0 -0.00000000000E+00 -0.00000000000E+00 -0.46450212298E+03  0.46450212298E+03  0.00000000000E+00 0.  1.
         21    1    1    2  503  504 -0.35747447889E+02 -0.65940692782E+01 -0.75290021894E+02  0.83605915921E+02  0.00000000000E+00 0. -1.
         21    1    1    2  504  502 -0.11003890443E+02  0.70806788705E+02  0.70528884514E+02  0.10054357504E+03  0.00000000000E+00 0. -1.
         21    1    1    2  505  501  0.56527259294E+02 -0.13154382406E+03  0.22118007799E+03  0.26347625242E+03  0.00000000000E+00 0. -1.
          1    1    1    2  501    0 -0.97759209623E+01  0.67331104636E+02 -0.34558182331E+03  0.35221561987E+03  0.00000000000E+00 0.  1.
<scales pt_clust_3="36.35054" pt_clust_4="71.63073" pt_clust_5="76.71275" pt_clust_6="14000.00000"></scales>
<clustering>
<clus scale="   36.351">  2  3  1 -1</clus>
<clus scale="   71.631">  1  4  2 -1</clus>
<clus scale="   76.713">  1  5  2 -1</clus>
<clus scale="   71.631">  1  3  2 -1</clus>
</clustering>
</event>
<event>
 6    0  0.1631680E+002  0.1478847E+03  0.7546771E-02  0.1203097E+00
          4   -1    0    0  502    0 -0.00000000000E+00  0.00000000000E+00  0.30249810588E+03  0.30249810588E+03  0.00000000000E+00 0. -1.
         21   -1    0    0  504  502  0.00000000000E+00 -0.00000000000E+00 -0.26943703400E+03  0.26943703400E+03  0.00000000000E+00 0. -1.
         21    1    1    2  503  501  0.42466055986E+02 -0.11504837988E+02 -0.29702782939E+00  0.43997902605E+02  0.00000000000E+00 0. -1.
         21    1    1    2  504  505 -0.30251267544E+02  0.53413051834E+02 -0.14251056185E+03  0.15516879046E+03  0.00000000000E+00 0. -1.
         21    1    1    2  505  503  0.88363216370E+02  0.51729702194E+02 -0.45634683992E+02  0.11210059982E+03  0.00000000000E+00 0. -1.
          4    1    1    2  501    0 -0.10057800481E+03 -0.93637916039E+02  0.22150334554E+03  0.26066784700E+03  0.00000000000E+00 0. -1.
<scales pt_clust_3="38.90593" pt_clust_4="61.38480" pt_clust_5="38.90593" pt_clust_6="135.45181"></scales>
<clustering>
<clus scale="   38.906">  3  5 -1 -1</clus>
<clus scale="   61.385">  2  4  1 -1</clus>
<clus scale="  135.452">  1  6  2 -1</clus>
<clus scale="   61.385">  2  3  1 -1</clus>
</clustering>
</event>
<event>
 6    0  0.1631680E+002  0.1044233E+03  0.7546771E-02  0.1271260E+00
         21   -1    0    0  501  502  0.00000000000E+00  0.00000000000E+00  0.24426953639E+03  0.24426953639E+03  0.00000000000E+00 0.  1.
          2   -1    0    0  504    0 -0.00000000000E+00 -0.00000000000E+00 -0.23242053941E+03  0.23242053941E+03  0.00000000000E+00 0.  1.
         21    1    1    2  503  505  0.25987218714E+02  0.11717708527E+03  0.12160566173E+02  0.12063865143E+03  0.00000000000E+00 0.  1.
         21    1    1    2  504  503  0.48970892420E+02 -0.94204679976E+02 -0.11939676520E+03  0.15977564763E+03  0.00000000000E+00 0.  1.
         21    1    1    2  505  502  0.35657745741E+02 -0.25181393071E+02  0.47429980605E+02  0.64460689172E+02  0.00000000000E+00 0.  1.
          2    1    1    2  501    0 -0.11061585688E+03  0.22089877767E+01  0.71655215400E+02  0.13181508758E+03  0.00000000000E+00 0.  1.
<scales pt_clust_3="104.42331" pt_clust_4="14000.00000" pt_clust_5="43.65292" pt_clust_6="92.06094"></scales>
<clustering>
<clus scale="   43.653">  1  5  2 -1</clus>
<clus scale="   92.061">  1  6  2 -1</clus>
<clus scale="  104.423">  1  3  2 -1</clus>
<clus scale="   43.653">  1  3  2 -1</clus>
</clustering>
</event>
<event>
 6    0  0.1631680E+002  0.2014125E+03  0.7546771E-02  0.1148553E+00
         21   -1    0    0  504  502  0.00000000000E+00  0.00000000000E+00  0.33125845395E+04  0.33125845395E+04  0.00000000000E+00 0. -1.
          3   -1    0    0  503    0 -0.00000000000E+00 -0.00000000000E+00 -0.20333381492E+04  0.20333381492E+04  0.00000000000E+00 0. -1.
         21    1    1    2  503  505 -0.17391728806E+03 -0.51802913212E+02  0.77275759463E+03  0.79377897740E+03  0.00000000000E+00 0. -1.
         21    1    1    2  504  501 -0.46210360423E+02 -0.72336236299E+02  0.44794712309E+02  0.96821974485E+02  0.00000000000E+00 0. -1.
         21    1    1    2  505  502  0.37580112330E+02  0.38694660184E+02  0.24531245286E+04  0.24537174847E+04  0.00000000000E+00 0. -1.
          3    1    1    2  501    0  0.18254753615E+03  0.85444489327E+02 -0.19914304453E+04  0.20016042521E+04  0.00000000000E+00 0. -1.
<scales pt_clust_3="14000.00000" pt_clust_4="81.48669" pt_clust_5="53.94017" pt_clust_6="201.41248"></scales>
<clustering>
<clus scale="   53.940">  1  5  2 -1</clus>
<clus scale="   81.487">  1  4  2 -1</clus>
<clus scale="  201.412">  2  6  1 -1</clus>
<clus scale="   53.940">  1  3  2 -1</clus>
</clustering>
</event>
<event>
 6    0  0.1631680E+002  0.8680579E+02  0.7546771E-02  0.1310777E+00
         -1   -1    0    0    0  501 -0.00000000000E+00  0.00000000000E+00  0.68470283469E+03  0.68470283469E+03  0.00000000000E+00 0. -1.
         21   -1    0    0  503  502  0.00000000000E+00 -0.00000000000E+00 -0.21413066006E+03  0.21413066006E+03  0.00000000000E+00 0. -1.
         21    1    1    2  503  504  0.58490960816E+02 -0.71831497635E+02 -0.20997169914E+02  0.94983354826E+02  0.00000000000E+00 0. -1.
         21    1    1    2  504  501  0.24413852385E+02  0.29471895740E+02  0.88649607208E+02  0.96557659898E+02  0.00000000000E+00 0.  1.
         21    1    1    2  505  502 -0.91026683759E+02  0.11616421406E+02 -0.13784371119E+03  0.16559494895E+03  0.00000000000E+00 0. -1.
         -1    1    1    2    0  505  0.81218705583E+01  0.30743180489E+02  0.54076344852E+03  0.54169753109E+03  0.00000000000E+00 0. -1.
<scales pt_clust_3="14000.00000" pt_clust_4="57.54518" pt_clust_5="86.80579" pt_clust_6="31.79792"></scales>
<clustering>
<clus scale="   31.798">  1  6  2 -1</clus>
<clus scale="   57.545">  1  4  2 -1</clus>
<clus scale="   86.806">  2  5  1 -1</clus>
<clus scale="   86.806">  2  3  1 -1</clus>
</clustering>
</event>
<event>
 6    0  0.1631680E+002  0.6375602E+02  0.7546771E-02  0.1382713E+00
         -1   -1    0    0    0  501 -0.00000000000E+00  0.00000000000E+00  0.10009965523E+04  0.10009965523E+04  0.00000000000E+00 0. -1.
         21   -1    0    0  505  502  0.00000000000E+00 -0.00000000000E+00 -0.25367981759E+02  0.25367981759E+02  0.00000000000E+00 0. -1.
         21    1    1    2  503  502  0.28892204375E+02 -0.66398106542E+02  0.13255464677E+03  0.15104371025E+03  0.00000000000E+00 0. -1.
         21    1    1    2  504  501  0.43286813791E+02 -0.10130058700E+02  0.16788934490E+03  0.17367555518E+03  0.00000000000E+00 0. -1.
         21    1    1    2  505  504  0.16966768371E+02  0.41068659292E+02  0.41702036759E+02  0.60939034082E+02  0.00000000000E+00 0. -1.
         -1    1    1    2    0  503 -0.89145786538E+02  0.35459505950E+02  0.63348254211E+03  0.64070623453E+03  0.00000000000E+00 0. -1.
<scales pt_clust_3="63.75602" pt_clust_4="46.47553" pt_clust_5="44.43541" pt_clust_6="14000.00000"></scales>
<clustering>
<clus scale="   44.435">  2  5  1 -1</clus>
<clus scale="   46.476">  1  4  2 -1</clus>
<clus scale="   63.756">  2  3  1 -1</clus>
<clus scale="   44.435">  2  3  1 -1</clus>
</clustering>
</event>
<event>
 6    0  0.1631680E+002  0.2304887E+03  0.7546771E-02  0.1126296E+00
          1   -1    0    0  505    0 -0.00000000000E+00  0.00000000000E+00  0.13409343670E+04  0.13409343670E+04  0.00000000000E+00 0. -1.
         21   -1    0    0  501  502  0.00000000000E+00 -0.00000000000E+00 -0.11802990463E+03  0.11802990463E+03  0.00000000000E+00 0. -1.
         21    1    1    2  503  502  0.39177687313E+02 -0.40755151393E+02 -0.30489717862E+01  0.56614218861E+02  0.00000000000E+00 0. -1.
         21    1    1    2  504  503 -0.20356987874E+03 -0.90857272511E+02  0.17543641645E+03  0.28367882493E+03  0.00000000000E+00 0. -1.
         21    1    1    2  505  504 -0.24283657995E+02 -0.82737219742E+02  0.38392598333E+03  0.39348990362E+03  0.00000000000E+00 0.  1.
          1    1    1    2  501    0  0.18867584942E+03  0.21434964365E+03  0.66659103441E+03  0.72518132425E+03  0.00000000000E+00 0. -1.
<scales pt_clust_3="56.53206" pt_clust_4="14000.00000" pt_clust_5="87.78963" pt_clust_6="230.48867"></scales>
<clustering>
<clus scale="   56.532">  2  3  1 -1</clus>
<clus scale="   87.790">  1  5  2 -1</clus>
<clus scale="  230.489">  1  6  2 -1</clus>
<clus scale="   56.532">  2  3  1 -1</clus>
</clustering>
</event>
<event>
 6    0  0.1631680E+002  0.7453700E+02  0.7546771E-02  0.1345311E+00
         -1   -1    0    0    0  501 -0.00000000000E+00  0.00000000000E+00  0.79442752903E+03  0.79442752903E+03  0.00000000000E+00 0. -1.
         21   -1    0    0  505  502  0.00000000000E+00 -0.00000000000E+00 -0.32154983002E+02  0.32154983002E+02  0.00000000000E+00 0. -1.
         21    1    1    2  503  504  0.43450512880E+02 -0.78143601983E+02  0.10774132851E+03  0.14000915495E+03  0.00000000000E+00 0. -1.
         21    1    1    2  504  502  0.14477268265E+02  0.43799256874E+02  0.45803453865E+02  0.65007096421E+02  0.00000000000E+00 0.  1.
         21    1    1    2  505  501  0.29091864528E+02  0.85985309859E+01  0.90396064063E+02  0.95350509778E+02  0.00000000000E+00 0.  1.
         -1    1    1    2    0  503 -0.87019645674E+02  0.25745814123E+02  0.51833169959E+03  0.52621575089E+03  0.00000000000E+00 0. -1.
<scales pt_clust_3="74.53700" pt_clust_4="47.53646" pt_clust_5="30.33597" pt_clust_6="14000.00000"></scales>
<clustering>
<clus scale="   30.336">  1  5  2 -1</clus>
<clus scale="   47.536">  2  4  1 -1</clus>
<clus scale="   74.537">  2  3  1 -1</clus>
<clus scale="   47.536">  2  3  1 -1</clus>
</clustering>
</event>
<event>
 6    0  0.1631680E+002  0.2368001E+03  0.7546771E-02  0.1121943E+00
         21   -1    0    0  504  502  0.00000000000E+00  0.00000000000E+00  0.11153662858E+04  0.11153662858E+04  0.00000000000E+00 0. -1.
          1   -1    0    0  505    0 -0.00000000000E+00 -0.00000000000E+00 -0.68742343687E+03  0.68742343687E+03  0.00000000000E+00 0. -1.
         21    1    1    2  503  501 -0.37261094986E+02 -0.33097067360E+02 -0.27901860286E+03  0.28343462352E+03  0.00000000000E+00 0. -1.
         21    1    1    2  504  503  0.86809204933E+02 -0.54640167394E+01  0.11335267583E+03  0.14287939900E+03  0.00000000000E+00 0. -1.
         21    1    1    2  505  502  0.65475732094E+02  0.16517912766E+03  0.95778340640E+03  0.97412538684E+03  0.00000000000E+00 0. -1.
          1    1    1    2  501    0 -0.11502384204E+03 -0.12661804356E+03 -0.36417463043E+03  0.40235031334E+03  0.00000000000E+00 0. -1.
<scales pt_clust_3="47.98658" pt_clust_4="86.98100" pt_clust_5="219.47771" pt_clust_6="47.98658"></scales>
<clustering>
<clus scale="   47.987">  3  6 -1 -1</clus>
<clus scale="   86.981">  1  4  2 -1</clus>
<clus scale="  219.478">  1  5  2 -1</clus>
<clus scale="   86.981">  1  3  2 -1</clus>
</clustering>
</event>
<event>
 6    0  0.1631680E+002  0.1720243E+03  0.7546771E-02  0.1175753E+00
         -1   -1    0    0    0  501 -0.00000000000E+00  0.00000000000E+00  0.44842763552E+03  0.44842763552E+03  0.00000000000E+00 0. -1.
         21   -1    0    0  503  502  0.00000000000E+00 -0.00000000000E+00 -0.61060773551E+03  0.61060773551E+03  0.00000000000E+00 0. -1.
         21    1    1    2  503  505  0.10516647197E+03 -0.79838437281E+02 -0.37656178287E+03  0.39904002207E+03  0.00000000000E+00 0. -1.
         21    1    1    2  504  502  0.47287110890E+02  0.17173017183E+03 -0.90544010358E+02  0.19981376476E+03  0.00000000000E+00 0. -1.
         21    1    1    2  505  501  0.53905540310E+02 -0.36600355158E+02  0.22141245046E+03  0.23080049067E+03  0.00000000000E+00 0. -1.
         -1    1    1    2    0  504 -0.20635912317E+03 -0.55291379395E+02  0.83513242778E+02  0.22938109354E+03  0.00000000000E+00 0. -1.
<scales pt_clust_3="135.32790" pt_clust_4="172.02426" pt_clust_5="65.15668" pt_clust_6="14000.00000"></scales>
<clustering>
<clus scale="   65.157">  1  5  2 -1</clus>
<clus scale="  135.328">  2  3  1 -1</clus>
<clus scale="  172.024">  2  4  1 -1</clus>
<clus scale="  135.328">  2  3  1 -1</clus>
</clustering>
</event>
<event>
 6    0  0.1631680E+002  0.1554195E+03  0.7546771E-02  0.1193967E+00
         21   -1    0    0  505  502  0.00000000000E+00  0.00000000000E+00  0.99647038361E+02  0.99647038361E+02  0.00000000000E+00 0. -1.
          2   -1    0    0  502    0 -0.00000000000E+00 -0.00000000000E+00 -0.13121585874E+04  0.13121585874E+04  0.00000000000E+00 0.  1.
         21    1    1    2  503  501  0.50751973455E+02  0.98031647632E+01 -0.26452950270E+03  0.26953241484E+03  0.00000000000E+00 0.  1.
         21    1    1    2  504  503 -0.64596106754E+02  0.99590274301E+02 -0.18976606044E+03  0.22383484411E+03  0.00000000000E+00 0. -1.
         21    1    1    2  505  504 -0.87313290302E+02 -0.46920855409E+02  0.43289522466E+02  0.10816265571E+03  0.00000000000E+00 0. -1.
          2    1    1    2  501    0  0.10115742360E+03 -0.62472583655E+02 -0.80150550837E+03  0.81027571111E+03  0.00000000000E+00 0.  1.
<scales pt_clust_3="40.13140" pt_clust_4="143.00637" pt_clust_5="99.12203" pt_clust_6="40.13140"></scales>
<clustering>
<clus scale="   40.131">  3  6 -1 -1</clus>
<clus scale="   99.122">  1  5  2 -1</clus>
<clus scale="  143.006">  1  4  2 -1</clus>
<clus scale="   99.122">  1  3  2 -1</clus>
</clustering>
</event>
<event>
 6    0  0.1631680E+002  0.1027401E+03  0.7546771E-02  0.1274637E+00
          2   -1    0    0  503    0 -0.00000000000E+00  0.00000000000E+00  0.33386136307E+04  0.33386136307E+04  0.00000000000E+00 0.  1.
         21   -1    0    0  505  502  0.00000000000E+00 -0.00000000000E+00 -0.36834680026E+02  0.36834680026E+02  0.00000000000E+00 0.  1.
         21    1    1    2  503  502  0.23091088840E+02  0.39464092444E+02  0.29239735464E+03  0.29595071545E+03  0.00000000000E+00 0.  1.
         21    1    1    2  504  501  0.95128488939E+02  0.24681543885E+02  0.10969061865E+03  0.14727742473E+03  0.00000000000E+00 0.  1.
         21    1    1    2  505  504 -0.21492927802E+02  0.46255745982E+02  0.30813680153E+02  0.59590459525E+02  0.00000000000E+00 0.  1.
          2    1    1    2  501    0 -0.96726649976E+02 -0.11040138231E+03  0.28688772972E+04  0.28726297110E+04  0.00000000000E+00 0.  1.
<scales pt_clust_3="45.72322" pt_clust_4="14000.00000" pt_clust_5="51.39523" pt_clust_6="102.74006"></scales>
<clustering>
<clus scale="   45.723">  1  3  2 -1</clus>
<clus scale="   51.395">  2  5  1 -1</clus>
<clus scale="  102.740">  1  6  2 -1</clus>
<clus scale="   51.395">  2  3  1 -1</clus>
</clustering>
</event>
<event>
 6    0  0.1631680E+002  0.7344041E+02  0.7546771E-02  0.1348770E+00
          2   -1    0    0  503    0 -0.00000000000E+00  0.00000000000E+00  0.31942927814E+03  0.31942927814E+03  0.00000000000E+00 0. -1.
         21   -1    0    0  505  502  0.00000000000E+00 -0.00000000000E+00 -0.12370874879E+03  0.12370874879E+03  0.00000000000E+00 0.  1.
         21    1    1    2  503  502  0.13499805384E+02 -0.27977280562E+02  0.13800274138E+03  0.14145575139E+03  0.00000000000E+00 0.  1.
         21    1    1    2  504  501  0.68067450900E+02 -0.50655829564E+02 -0.33729035040E+02  0.91306290833E+02  0.00000000000E+00 0.  1.
         21    1    1    2  505  504 -0.40637774938E+02 -0.87392876663E+01 -0.32882669985E+02  0.53000697035E+02  0.00000000000E+00 0.  1.
          2    1    1    2  501    0 -0.40929481345E+02  0.87372397793E+02  0.12432949300E+03  0.15737528767E+03  0.00000000000E+00 0. -1.
<scales pt_clust_3="31.06401" pt_clust_4="73.44041" pt_clust_5="41.19202" pt_clust_6="14000.00000"></scales>
<clustering>
<clus scale="   31.064">  1  3  2 -1</clus>
<clus scale="   41.192">  2  5  1 -1</clus>
<clus scale="   73.440">  2  4  1 -1</clus>
<clus scale="   41.192">  2  3  1 -1</clus>
</clustering>
</event>
<event>
 6    0  0.1631680E+002  0.1277034E+03  0.7546771E-02  0.1230904E+00
         -4   -1    0    0    0  501 -0.00000000000E+00  0.00000000000E+00  0.31273750150E+03  0.31273750150E+03  0.00000000000E+00 0.  1.
         21   -1    0    0  505  502  0.00000000000E+00 -0.00000000000E+00 -0.95345637715E+03  0.95345637715E+03  0.00000000000E+00 0. -1.
         21    1    1    2  503  504 -0.74812913884E+02  0.47010939061E+02 -0.40572805574E+03  0.41523758944E+03  0.00000000000E+00 0.  1.
         21    1    1    2  504  501 -0.22673933032E+02 -0.23038563543E+02  0.86882320466E+02  0.92700702580E+02  0.00000000000E+00 0. -1.
         21    1    1    2  505  503 -0.97970396083E+01  0.51976896425E+02 -0.51879999321E+03  0.52148922587E+03  0.00000000000E+00 0. -1.
         -4    1    1    2    0  502  0.10728388652E+03 -0.75949271943E+02  0.19692685283E+03  0.23676636075E+03  0.00000000000E+00 0.  1.
<scales pt_clust_3="127.70338" pt_clust_4="32.32464" pt_clust_5="52.78118" pt_clust_6="14000.00000"></scales>
<clustering>
<clus scale="   32.325">  1  4  2 -1</clus>
<clus scale="   52.781">  2  5  1 -1</clus>
<clus scale="  127.703">  2  3  1 -1</clus>
<clus scale="   52.781">  2  3  1 -1</clus>
</clustering>
</event>
<event>
 6    0  0.1631680E+002  0.1369957E+03  0.7546771E-02  0.1217430E+00
         -1   -1    0    0    0  501 -0.00000000000E+00  0.00000000000E+00  0.16350100672E+03  0.16350100672E+03  0.00000000000E+00 0.  1.
         21   -1    0    0  505  502  0.00000000000E+00 -0.00000000000E+00 -0.32481245293E+03  0.32481245293E+03  0.00000000000E+00 0.  1.
         21    1    1    2  503  502  0.14996706408E+03  0.10032821995E+03 -0.11154203012E+03  0.21212613349E+03  0.00000000000E+00 0.  1.
         21    1    1    2  504  503 -0.32355729469E+02 -0.63207891017E+01  0.44223879609E+02  0.55159741950E+02  0.00000000000E+00 0.  1.
         21    1    1    2  505  501 -0.10159883254E+03 -0.58232479249E+02 -0.12482694239E+03  0.17115814313E+03  0.00000000000E+00 0.  1.
         -1    1    1    2    0  504 -0.16012502078E+02 -0.35774951597E+02  0.30833646695E+02  0.49869441075E+02  0.00000000000E+00 0.  1.
<scales pt_clust_3="14000.00000" pt_clust_4="32.88822" pt_clust_5="136.99565" pt_clust_6="73.46766"></scales>
<clustering>
<clus scale="   32.888">  4  6 -1 -1</clus>
<clus scale="   73.468">  1  4  2 -1</clus>
<clus scale="  136.996">  2  5  1 -1</clus>
<clus scale="  136.996">  2  3  1 -1</clus>
</clustering>
</event>
<event>
 6    0  0.1631680E+002  0.1236601E+03  0.7546771E-02  0.1237178E+00
          2   -1    0    0  505    0 -0.00000000000E+00  0.00000000000E+00  0.12977309049E+04  0.12977309049E+04  0.00000000000E+00 0.  1.
         21   -1    0    0  503  502  0.00000000000E+00 -0.00000000000E+00 -0.55103687344E+02  0.55103687344E+02  0.00000000000E+00 0.  1.
         21    1    1    2  503  501 -0.11267406528E+02 -0.12194741037E+03  0.86110447944E+02  0.14971016863E+03  0.00000000000E+00 0.  1.
         21    1    1    2  504  502  0.33400106459E+02 -0.12281704234E+02  0.43870204898E+01  0.35856008132E+02  0.00000000000E+00 0.  1.
         21    1    1    2  505  504 -0.78124543576E+01  0.29811640818E+02  0.77708944370E+03  0.77770030981E+03  0.00000000000E+00 0.  1.
          2    1    1    2  501    0 -0.14320245574E+02  0.10441747379E+03  0.37504030545E+03  0.38956810570E+03  0.00000000000E+00 0.  1.
<scales pt_clust_3="123.66015" pt_clust_4="34.91890" pt_clust_5="30.81831" pt_clust_6="14000.00000"></scales>
<clustering>
<clus scale="   30.818">  1  5  2 -1</clus>
<clus scale="   34.919">  2  4  1 -1</clus>
<clus scale="  123.660">  2  3  1 -1</clus>
<clus scale="   34.919">  2  3  1 -1</clus>
</clustering>
</event>
<event>
 6    0  0.1631680E+002  0.1167013E+03  0.7546771E-02  0.1248640E+00
         21   -1    0    0  503  502  0.00000000000E+00  0.00000000000E+00  0.60496025019E+03  0.60496025019E+03  0.00000000000E+00 0. -1.
          3   -1    0    0  505    0 -0.00000000000E+00 -0.00000000000E+00 -0.26078857422E+03  0.26078857422E+03  0.00000000000E+00 0. -1.
         21    1    1    2  503  501  0.51996981546E+02 -0.12558247770E+03  0.50924082671E+03  0.52706817812E+03  0.00000000000E+00 0. -1.
         21    1    1    2  504  502  0.46742283075E+02  0.59778469523E+02  0.37371079359E+02  0.84586665723E+02  0.00000000000E+00 0. -1.
         21    1    1    2  505  504  0.71486957868E+01  0.33137026012E+02 -0.16651563396E+02  0.37768252645E+02  0.00000000000E+00 0. -1.
          3    1    1    2  501    0 -0.10588796041E+03  0.32666982168E+02 -0.18578866670E+03  0.21632572792E+03  0.00000000000E+00 0. -1.
<scales pt_clust_3="116.70128" pt_clust_4="78.98104" pt_clust_5="33.89936" pt_clust_6="14000.00000"></scales>
<clustering>
<clus scale="   33.899">  2  5  1 -1</clus>
<clus scale="   78.981">  1  4  2 -1</clus>
<clus scale="  116.701">  1  3  2 -1</clus>
<clus scale="   78.981">  1  3  2 -1</clus>
</clustering>
</event>
<event>
 6    0  0.1631680E+002  0.8838109E+02  0.7546771E-02  0.1306820E+00
          4   -1    0    0  504    0 -0.00000000000E+00  0.00000000000E+00  0.15542618552E+04  0.15542618552E+04  0.00000000000E+00 0. -1.
         21   -1    0    0  505  502  0.00000000000E+00 -0.00000000000E+00 -0.39751670697E+02  0.39751670697E+02  0.00000000000E+00 0. -1.
         21    1    1    2  503  502  0.10102657485E+03 -0.26881028061E+02  0.28449308830E+03  0.30309285010E+03  0.00000000000E+00 0. -1.
         21    1    1    2  504  503 -0.71132073343E+02 -0.29990494792E+02  0.37859072893E+03  0.38638082467E+03  0.00000000000E+00 0. -1.
         21    1    1    2  505  501  0.38306778568E+01  0.73194004418E+02  0.25260792723E+02  0.77525118669E+02  0.00000000000E+00 0. -1.
          4    1    1    2  501    0 -0.33725179367E+02 -0.16322481565E+02  0.82616557453E+03  0.82701473243E+03  0.00000000000E+00 0. -1.
<scales pt_clust_3="88.38109" pt_clust_4="14000.00000" pt_clust_5="72.05577" pt_clust_6="37.46747"></scales>
<clustering>
<clus scale="   37.467">  1  6  2 -1</clus>
<clus scale="   72.056">  2  5  1 -1</clus>
<clus scale="   88.381">  2  3  1 -1</clus>
<clus scale="   72.056">  2  3  1 -1</clus>
</clustering>
</event>
<event>
 6    0  0.1631680E+002  0.8238307E+02  0.7546771E-02  0.1322421E+00
         21   -1    0    0  504  502  0.00000000000E+00  0.00000000000E+00  0.49839196587E+02  0.49839196587E+02  0.00000000000E+00 0. -1.
          2   -1    0    0  503    0 -0.00000000000E+00 -0.00000000000E+00 -0.10342937958E+04  0.10342937958E+04  0.00000000000E+00 0. -1.
         21    1    1    2  503  505  0.22485276505E+02 -0.22170197663E+02 -0.34366696823E+03  0.34511460469E+03  0.00000000000E+00 0.  1.
         21    1    1    2  504  501 -0.91904387904E+02  0.75679859010E+02 -0.44017242239E+03  0.45598861719E+03  0.00000000000E+00 0. -1.
         21    1    1    2  505  502  0.20060210012E+02 -0.78253463942E+02 -0.63074619968E+01  0.81029628664E+02  0.00000000000E+00 0. -1.
          2    1    1    2  501    0  0.49358901387E+02  0.24743802595E+02 -0.19430774658E+03  0.20200014182E+03  0.00000000000E+00 0. -1.
<scales pt_clust_3="31.57697" pt_clust_4="82.38307" pt_clust_5="14000.00000" pt_clust_6="58.76420"></scales>
<clustering>
<clus scale="   31.577">  2  3  1 -1</clus>
<clus scale="   58.764">  2  6  1 -1</clus>
<clus scale="   82.383">  2  4  1 -1</clus>
<clus scale="   82.383">  1  3  2 -1</clus>
</clustering>
</event>
<event>
 6    0  0.1631680E+002  0.7674675E+02  0.7546771E-02  0.1338546E+00
          1   -1    0    0  505    0 -0.00000000000E+00  0.00000000000E+00  0.12385879922E+04  0.12385879922E+04  0.00000000000E+00 0.  1.
         21   -1    0    0  503  502  0.00000000000E+00 -0.00000000000E+00 -0.18948498564E+02  0.18948498564E+02  0.00000000000E+00 0. -1.
         21    1    1    2  503  501  0.38284774810E+02 -0.48713810615E+02  0.20068691389E+03  0.21003332291E+03  0.00000000000E+00 0. -1.
         21    1    1    2  504  502 -0.33409869191E+02  0.32676685765E+02  0.60411637748E+02  0.76377687366E+02  0.00000000000E+00 0. -1.
         21    1    1    2  505  504 -0.74874039531E+02  0.31320845619E+02  0.60297223602E+03  0.60840992314E+03  0.00000000000E+00 0. -1.
          1    1    1    2  501    0  0.69999133913E+02 -0.15283720769E+02  0.35556870602E+03  0.36271555738E+03  0.00000000000E+00 0.  1.
<scales pt_clust_3="42.28972" pt_clust_4="46.73313" pt_clust_5="76.74675" pt_clust_6="14000.00000"></scales>
<clustering>
<clus scale="   46.733">  2  4  1 -1</clus>
<clus scale="   42.290">  2  3  1 -1</clus>
<clus scale="   76.747">  1  5  2 -1</clus>
<clus scale="   46.733">  2  3  1 -1</clus>
</clustering>
</event>
<event>
 6    0  0.2640823E+002  0.1071817E+03  0.7546771E-02  0.1265880E+00
         21   -1    0    0  504  502  0.00000000000E+00  0.00000000000E+00  0.57824346215E+03  0.57824346215E+03  0.00000000000E+00 0. -1.
          1   -1    0    0  503    0 -0.00000000000E+00 -0.00000000000E+00 -0.22070262469E+04  0.22070262469E+04  0.00000000000E+00 0.  1.
         21    1    1    2  503  502 -0.22711253169E+02  0.20643060832E+02 -0.73699139811E+01  0.31563469598E+02  0.00000000000E+00 0. -1.
         21    1    1    2  504  505  0.62921920934E+01  0.36657457501E+02  0.55291485447E+03  0.55416441348E+03  0.00000000000E+00 0. -1.
         21    1    1    2  505  501 -0.88180667958E+02 -0.19219243499E+02 -0.17304840290E+03  0.19516905305E+03  0.00000000000E+00 0.  1.
          1    1    1    2  501    0  0.10459972903E+03 -0.38081274834E+02 -0.20012793224E+04  0.20043727729E+04  0.00000000000E+00 0.  1.
<scales pt_clust_3="30.69099" pt_clust_4="59.02639" pt_clust_5="14000.00000" pt_clust_6="107.18174"></scales>
<clustering>
<clus scale="   30.691">  1  3  2 -1</clus>
<clus scale="   59.026">  1  4  2 -1</clus>
<clus scale="  107.182">  2  6  1 -1</clus>
<clus scale="   30.691">  1  3  2 -1</clus>
</clustering>
</event>
<event>
 6    0  0.1631680E+002  0.1084329E+03  0.7546771E-02  0.1263500E+00
         21   -1    0    0  503  502  0.00000000000E+00  0.00000000000E+00  0.34729116874E+03  0.34729116874E+03  0.00000000000E+00 0. -1.
          2   -1    0    0  504    0 -0.00000000000E+00 -0.00000000000E+00 -0.26106373677E+04  0.26106373677E+04  0.00000000000E+00 0. -1.
         21    1    1    2  503  505 -0.63116243525E+01  0.51973975689E+02 -0.63551715076E+02  0.82340459313E+02  0.00000000000E+00 0.  1.
         21    1    1    2  504  502  0.32800982776E+02 -0.89079809601E+01  0.33022607602E+03  0.33197065817E+03  0.00000000000E+00 0. -1.
         21    1    1    2  505  501  0.58748315458E+02  0.40945309127E+02 -0.23959708676E+03  0.25006928418E+03  0.00000000000E+00 0.  1.
          2    1    1    2  501    0 -0.85237673882E+02 -0.84011303856E+02 -0.22904234732E+04  0.22935481348E+04  0.00000000000E+00 0. -1.
<scales pt_clust_3="48.50306" pt_clust_4="33.98907" pt_clust_5="14000.00000" pt_clust_6="108.43294"></scales>
<clustering>
<clus scale="   33.989">  1  4  2 -1</clus>
<clus scale="   48.503">  1  3  2 -1</clus>
<clus scale="  108.433">  2  6  1 -1</clus>
<clus scale="   33.989">  1  3  2 -1</clus>
</clustering>
</event>
<event>
 6    0  0.1631680E+002  0.1108965E+03  0.7546771E-02  0.1258919E+00
          4   -1    0    0  505    0 -0.00000000000E+00  0.00000000000E+00  0.22164711067E+04  0.22164711067E+04  0.00000000000E+00 0.  1.
         21   -1    0    0  501  502  0.00000000000E+00 -0.00000000000E+00 -0.43017944899E+02  0.43017944899E+02  0.00000000000E+00 0. -1.
         21    1    1    2  503  504 -0.43800696354E+01 -0.53386669618E+02  0.15987496240E+03  0.16860997926E+03  0.00000000000E+00 0.  1.
         21    1    1    2  504  502 -0.37399329251E+02 -0.99151043133E+02  0.57943365640E+02  0.12077695477E+03  0.00000000000E+00 0. -1.
         21    1    1    2  505  503 -0.41844541805E+02 -0.30829375300E+01  0.79422713595E+03  0.79533465514E+03  0.00000000000E+00 0.  1.
          4    1    1    2  501    0  0.83623940691E+02  0.15562065028E+03  0.11614076978E+04  0.11747674624E+04  0.00000000000E+00 0.  1.
<scales pt_clust_3="54.52700" pt_clust_4="14000.00000" pt_clust_5="41.95796" pt_clust_6="110.89648"></scales>
<clustering>
<clus scale="   41.958">  1  5  2 -1</clus>
<clus scale="   54.527">  1  3  2 -1</clus>
<clus scale="  110.896">  1  6  2 -1</clus>
<clus scale="  110.896">  2  3  1 -1</clus>
</clustering>
</event>
<event>
 6    0  0.1631680E+002  0.1011863E+03  0.7546771E-02  0.1277821E+00
         21   -1    0    0  504  502  0.00000000000E+00  0.00000000000E+00  0.18814512543E+03  0.18814512543E+03  0.00000000000E+00 0.  1.
          2   -1    0    0  503    0 -0.00000000000E+00 -0.00000000000E+00 -0.10009872977E+04  0.10009872977E+04  0.00000000000E+00 0.  1.
         21    1    1    2  503  502 -0.38659752912E+02 -0.26069194774E+02 -0.30435581205E+03  0.30790686861E+03  0.00000000000E+00 0.  1.
         21    1    1    2  504  505 -0.23346251853E+02 -0.38439161355E+02  0.13971670214E+03  0.14677661073E+03  0.00000000000E+00 0.  1.
         21    1    1    2  505  501  0.12526093561E+03  0.19154954873E+02 -0.58390625711E+02  0.13952304275E+03  0.00000000000E+00 0. -1.
          2    1    1    2  501    0 -0.63254930847E+02  0.45353401256E+02 -0.58981243669E+03  0.59492590106E+03  0.00000000000E+00 0.  1.
<scales pt_clust_3="48.24916" pt_clust_4="44.97351" pt_clust_5="101.18628" pt_clust_6="14000.00000"></scales>
<clustering>
<clus scale="   44.974">  1  4  2 -1</clus>
<clus scale="   48.249">  2  3  1 -1</clus>
<clus scale="  101.186">  1  5  2 -1</clus>
<clus scale="   44.974">  1  3  2 -1</clus>
</clustering>
</event>
<event>
 6    0  0.1631680E+002  0.6172077E+02  0.7546771E-02  0.1390749E+00
         21   -1    0    0  505  502  0.00000000000E+00  0.00000000000E+00  0.16698228106E+03  0.16698228106E+03  0.00000000000E+00 0. -1.
          2   -1    0    0  504    0 -0.00000000000E+00 -0.00000000000E+00 -0.34212243075E+04  0.34212243075E+04  0.00000000000E+00 0.  1.
         21    1    1    2  503  502  0.59782732659E+02 -0.10845514530E+02  0.14860883265E+03  0.16054963548E+03  0.00000000000E+00 0. -1.
         21    1    1    2  504  503  0.17112835755E+02  0.44608285927E+02 -0.55104586830E+03  0.55311327708E+03  0.00000000000E+00 0.  1.
         21    1    1    2  505  501 -0.10604374542E+03 -0.11308723853E+02 -0.24172937362E+03  0.26420873046E+03  0.00000000000E+00 0.  1.
          2    1    1    2  501    0  0.29148177007E+02 -0.22454047545E+02 -0.26100756172E+04  0.26103349456E+04  0.00000000000E+00 0.  1.
<scales pt_clust_3="61.72077" pt_clust_4="47.17525" pt_clust_5="14000.00000" pt_clust_6="36.79403"></scales>
<clustering>
<clus scale="   36.794">  2  6  1 -1</clus>
<clus scale="   47.175">  2  4  1 -1</clus>
<clus scale="   61.721">  1  3  2 -1</clus>
<clus scale="   61.721">  1  3  2 -1</clus>
</clustering>
</event>
<event>
 6    0  0.1631680E+002  0.3762592E+03  0.7546771E-02  0.1052325E+00
         21   -1    0    0  504  502  0.00000000000E+00  0.00000000000E+00  0.56049865604E+03  0.56049865604E+03  0.00000000000E+00 0. -1.
          1   -1    0    0  503    0 -0.00000000000E+00 -0.00000000000E+00 -0.11460627323E+04  0.11460627323E+04  0.00000000000E+00 0.  1.
         21    1    1    2  503  505  0.56584885662E+02 -0.30383934573E+02 -0.22863281000E+03  0.23748261952E+03  0.00000000000E+00 0. -1.
         21    1    1    2  504  501  0.26315248968E+03  0.16316687064E+03 -0.37107607981E+03  0.48329092429E+03  0.00000000000E+00 0.  1.
         21    1    1    2  505  502 -0.30651556314E+03 -0.23865619412E+03  0.41648935186E+03  0.56953660958E+03  0.00000000000E+00 0. -1.
          1    1    1    2  501    0 -0.13221812201E+02  0.10587325805E+03 -0.40234453835E+03  0.41625123499E+03  0.00000000000E+00 0.  1.
<scales pt_clust_3="64.22642" pt_clust_4="376.25919" pt_clust_5="14000.00000" pt_clust_6="93.04823"></scales>
<clustering>
<clus scale="   64.226">  2  3  1 -1</clus>
<clus scale="   93.048">  2  6  1 -1</clus>
<clus scale="  376.259">  2  4  1 -1</clus>
<clus scale="  376.259">  1  3  2 -1</clus>
</clustering>
</event>
<event>
 6    0  0.1631680E+002  0.8077022E+02  0.7546771E-02  0.1326880E+00
         21   -1    0    0  504  502  0.00000000000E+00  0.00000000000E+00  0.30665340346E+03  0.30665340346E+03  0.00000000000E+00 0.  1.
         -2   -1    0    0    0  501 -0.00000000000E+00 -0.00000000000E+00 -0.34310179594E+03  0.34310179594E+03  0.00000000000E+00 0.  1.
         21    1    1    2  503  501 -0.36824230990E+02  0.13077726214E+02 -0.36499795690E+02  0.53472291856E+02  0.00000000000E+00 0. -1.
         21    1    1    2  504  505 -0.85174232192E+01 -0.47875875012E+02  0.20544746266E+03  0.21112391106E+03  0.00000000000E+00 0.  1.
         21    1    1    2  505  503 -0.32212025371E+02  0.10637556346E+03  0.39926049441E+02  0.11809938401E+03  0.00000000000E+00 0. -1.
         -2    1    1    2    0  502  0.77553679580E+02 -0.71577414659E+02 -0.24532210889E+03  0.26705961247E+03  0.00000000000E+00 0.  1.
<scales pt_clust_3="39.07750" pt_clust_4="48.56784" pt_clust_5="14000.00000" pt_clust_6="80.77022"></scales>
<clustering>
<clus scale="   39.077">  2  3  1 -1</clus>
<clus scale="   48.568">  1  4  2 -1</clus>
<clus scale="   80.770">  2  6  1 -1</clus>
<clus scale="   48.568">  1  3  2 -1</clus>
</clustering>
</event>
<event>
 6    0  0.1631680E+002  0.1036540E+03  0.7546771E-02  0.1272795E+00
         21   -1    0    0  504  502  0.00000000000E+00  0.00000000000E+00  0.50192755062E+02  0.50192755062E+02  0.00000000000E+00 0. -1.
          2   -1    0    0  505    0 -0.00000000000E+00 -0.00000000000E+00 -0.27115674633E+04  0.27115674633E+04  0.00000000000E+00 0. -1.
         21    1    1    2  503  502 -0.52993238037E+02  0.51867266106E+02 -0.99699574358E+02  0.12425176738E+03  0.00000000000E+00 0. -1.
         21    1    1    2  504  501 -0.12794795249E+02 -0.48505783422E+02  0.11972765780E+02  0.51573878381E+02  0.00000000000E+00 0. -1.
         21    1    1    2  505  503 -0.36318900331E+02 -0.59857361053E+02 -0.25749559552E+03  0.26684442641E+03  0.00000000000E+00 0. -1.
          2    1    1    2  501    0  0.10210693362E+03  0.56495878369E+02 -0.23161523042E+04  0.23190901462E+04  0.00000000000E+00 0. -1.
<scales pt_clust_3="64.54903" pt_clust_4="50.16491" pt_clust_5="14000.00000" pt_clust_6="103.65397"></scales>
<clustering>
<clus scale="   50.165">  1  4  2 -1</clus>
<clus scale="   64.549">  1  3  2 -1</clus>
<clus scale="  103.654">  2  6  1 -1</clus>
<clus scale="   50.165">  1  3  2 -1</clus>
</clustering>
</event>
<event>
 6    0  0.1631680E+002  0.1276237E+03  0.7546771E-02  0.1231025E+00
         21   -1    0    0  504  502  0.00000000000E+00  0.00000000000E+00  0.90064637145E+02  0.90064637145E+02  0.00000000000E+00 0.  1.
          2   -1    0    0  503    0 -0.00000000000E+00 -0.00000000000E+00 -0.20513970761E+04  0.20513970761E+04  0.00000000000E+00 0.  1.
         21    1    1    2  503  502  0.10512319710E+03 -0.16896941916E+03 -0.20940501690E+03  0.28888061943E+03  0.00000000000E+00 0.  1.
         21    1    1    2  504  505 -0.20202151630E+02  0.49493164708E+02  0.18284927923E+02  0.56498131584E+02  0.00000000000E+00 0.  1.
         21    1    1    2  505  501 -0.53256669794E+01  0.85671469560E+02 -0.14449844450E+03  0.16807071097E+03  0.00000000000E+00 0. -1.
          2    1    1    2  501    0 -0.79595378495E+02  0.33804784893E+02 -0.16257139055E+04  0.16280122513E+04  0.00000000000E+00 0.  1.
<scales pt_clust_3="14000.00000" pt_clust_4="53.45746" pt_clust_5="127.62366" pt_clust_6="87.30817"></scales>
<clustering>
<clus scale="   53.457">  1  4  2 -1</clus>
<clus scale="   87.308">  2  6  1 -1</clus>
<clus scale="  127.624">  2  5  1 -1</clus>
<clus scale="   53.457">  1  3  2 -1</clus>
</clustering>
</event>
<event>
 6    0  0.1631680E+002  0.8583940E+02  0.7546771E-02  0.1313252E+00
         21   -1    0    0  504  502  0.00000000000E+00  0.00000000000E+00  0.62934583430E+02  0.62934583430E+02  0.00000000000E+00 0. -1.
          1   -1    0    0  505    0 -0.00000000000E+00 -0.00000000000E+00 -0.13787265046E+04  0.13787265046E+04  0.00000000000E+00 0.  1.
         21    1    1    2  503  502  0.78444051861E+01 -0.73008257388E+02 -0.13149794783E+03  0.15061026068E+03  0.00000000000E+00 0. -1.
         21    1    1    2  504  501  0.77994603769E+02  0.34034100145E+02  0.12989770297E+02  0.86082590122E+02  0.00000000000E+00 0. -1.
         21    1    1    2  505  503 -0.62854598234E+02 -0.67966359809E+01 -0.96668229963E+03  0.96874741971E+03  0.00000000000E+00 0.  1.
          1    1    1    2  501    0 -0.22984410722E+02  0.45770793224E+02 -0.23060144405E+03  0.23622081756E+03  0.00000000000E+00 0.  1.
<scales pt_clust_3="67.55754" pt_clust_4="14000.00000" pt_clust_5="85.83940" pt_clust_6="51.21766"></scales>
<clustering>
<clus scale="   51.218">  2  6  1 -1</clus>
<clus scale="   67.558">  1  3  2 -1</clus>
<clus scale="   85.839">  2  5  1 -1</clus>
<clus scale="   67.558">  1  3  2 -1</clus>
</clustering>
</event>
<event>
 6    0  0.1631680E+002  0.1980426E+03  0.7546771E-02  0.1151401E+00
         21   -1    0    0  504  502  0.00000000000E+00  0.00000000000E+00  0.30885170981E+03  0.30885170981E+03  0.00000000000E+00 0. -1.
         -2   -1    0    0    0  501 -0.00000000000E+00 -0.00000000000E+00 -0.31224911773E+03  0.31224911773E+03  0.00000000000E+00 0. -1.
         21    1    1    2  503  505  0.26048613447E+02 -0.54398533425E+02 -0.33147726894E+01  0.60404622499E+02  0.00000000000E+00 0. -1.
         21    1    1    2  504  503  0.31908469112E+02  0.27241067020E+02  0.72008866277E+02  0.83339684160E+02  0.00000000000E+00 0. -1.
         21    1    1    2  505  501 -0.68382833662E+02 -0.17578917575E+03  0.97811097391E+02  0.21247366195E+03  0.00000000000E+00 0. -1.
         -2    1    1    2    0  502  0.10425751103E+02  0.20294664215E+03 -0.16990259890E+03  0.26488285894E+03  0.00000000000E+00 0. -1.
<scales pt_clust_3="59.19354" pt_clust_4="41.95505" pt_clust_5="198.04256" pt_clust_6="14000.00000"></scales>
<clustering>
<clus scale="   41.955">  1  4  2 -1</clus>
<clus scale="   59.194">  1  3  2 -1</clus>
<clus scale="  198.043">  1  5  2 -1</clus>
<clus scale="   41.955">  1  3  2 -1</clus>
</clustering>
</event>
<event>
 6    0  0.1631680E+002  0.1202269E+03  0.7546771E-02  0.1242723E+00
         21   -1    0    0  505  502  0.00000000000E+00  0.00000000000E+00  0.24793039381E+04  0.24793039381E+04  0.00000000000E+00 0.  1.
          1   -1    0    0  503    0 -0.00000000000E+00 -0.00000000000E+00 -0.13953774681E+04  0.13953774681E+04  0.00000000000E+00 0. -1.
         21    1    1    2  503  502  0.25041999037E+02  0.56381894726E+02 -0.38524778226E+02  0.72733611941E+02  0.00000000000E+00 0.  1.
         21    1    1    2  504  501  0.35968761960E+02  0.21645393329E+02  0.59062919906E+02  0.72461737470E+02  0.00000000000E+00 0.  1.
         21    1    1    2  505  504  0.32136498500E+02  0.33196574403E+01  0.23934597516E+04  0.23936777889E+04  0.00000000000E+00 0.  1.
          1    1    1    2  501    0 -0.93147259496E+02 -0.81346945496E+02 -0.13300714232E+04  0.13358082678E+04  0.00000000000E+00 0. -1.
<scales pt_clust_3="65.14100" pt_clust_4="14000.00000" pt_clust_5="32.30750" pt_clust_6="120.22693"></scales>
<clustering>
<clus scale="   32.308">  1  5  2 -1</clus>
<clus scale="   65.141">  1  3  2 -1</clus>
<clus scale="  120.227">  2  6  1 -1</clus>
<clus scale="   32.308">  1  3  2 -1</clus>
</clustering>
</event>
<event>
 6    0  0.1631680E+002  0.8154959E+02  0.7546771E-02  0.1324711E+00
          2   -1    0    0  504    0 -0.00000000000E+00  0.00000000000E+00  0.39027046265E+04  0.39027046265E+04  0.00000000000E+00 0. -1.
         21   -1    0    0  501  502  0.00000000000E+00 -0.00000000000E+00 -0.42318259976E+02  0.42318259976E+02  0.00000000000E+00 0. -1.
         21    1    1    2  503  505  0.80736505836E+01 -0.45766168299E+02  0.67201909779E+02  0.81705707710E+02  0.00000000000E+00 0. -1.
         21    1    1    2  504  503 -0.31538040132E+02 -0.29070889206E+02  0.14305935099E+04  0.14312363729E+04  0.00000000000E+00 0. -1.
         21    1    1    2  505  502 -0.24243784390E+02 -0.39161843130E+02 -0.17139036765E+02  0.49144253175E+02  0.00000000000E+00 0. -1.
          2    1    1    2  501    0  0.47708173938E+02  0.11399890064E+03  0.23797299837E+04  0.23829365527E+04  0.00000000000E+00 0. -1.
<scales pt_clust_3="14000.00000" pt_clust_4="42.89248" pt_clust_5="46.32634" pt_clust_6="81.54959"></scales>
<clustering>
<clus scale="   42.892">  1  4  2 -1</clus>
<clus scale="   46.326">  2  5  1 -1</clus>
<clus scale="   81.550">  1  6  2 -1</clus>
<clus scale="   46.326">  2  3  1 -1</clus>
</clustering>
</event>
<event>
 6    0  0.1631680E+002  0.1900435E+03  0.7546771E-02  0.1158422E+00
         21   -1    0    0  504  502  0.00000000000E+00  0.00000000000E+00  0.24627822172E+03  0.24627822172E+03  0.00000000000E+00 0.  1.
          2   -1    0    0  503    0 -0.00000000000E+00 -0.00000000000E+00 -0.72417798137E+03  0.72417798137E+03  0.00000000000E+00 0.  1.
         21    1    1    2  503  502  0.41247569750E+02 -0.35408377554E+02  0.10479995671E+03  0.11805992604E+03  0.00000000000E+00 0.  1.
         21    1    1    2  504  505  0.20701166369E+02  0.30525832689E+02  0.57321680783E+02  0.68162598529E+02  0.00000000000E+00 0.  1.
         21    1    1    2  505  501  0.11601871414E+03  0.10065398490E+03 -0.51533998578E+02  0.16201024571E+03  0.00000000000E+00 0. -1.
          2    1    1    2  501    0 -0.17796745026E+03 -0.95771440030E+02 -0.58848739856E+03  0.62222343281E+03  0.00000000000E+00 0.  1.
<scales pt_clust_3="56.39964" pt_clust_4="36.88312" pt_clust_5="14000.00000" pt_clust_6="190.04347"></scales>
<clustering>
<clus scale="   36.883">  1  4  2 -1</clus>
<clus scale="   56.400">  1  3  2 -1</clus>
<clus scale="  190.043">  2  6  1 -1</clus>
<clus scale="   36.883">  1  3  2 -1</clus>
</clustering>
</event>
<event>
 6    0  0.1631680E+002  0.1025568E+03  0.7546771E-02  0.1275009E+00
         21   -1    0    0  504  502  0.00000000000E+00  0.00000000000E+00  0.73996385326E+03  0.73996385326E+03  0.00000000000E+00 0.  1.
         -3   -1    0    0    0  501 -0.00000000000E+00 -0.00000000000E+00 -0.42591799518E+03  0.42591799518E+03  0.00000000000E+00 0. -1.
         21    1    1    2  503  505  0.47353849189E+02 -0.50799595464E+02 -0.71375366000E+02  0.99586288233E+02  0.00000000000E+00 0. -1.
         21    1    1    2  504  501 -0.11662717533E+02 -0.56111687153E+02  0.22822668553E+03  0.23531247396E+03  0.00000000000E+00 0.  1.
         21    1    1    2  505  502  0.52130426692E+02  0.57156050519E+01  0.47927913091E+03  0.48213974618E+03  0.00000000000E+00 0.  1.
         -3    1    1    2    0  503 -0.87821558349E+02  0.10119567756E+03 -0.32208459236E+03  0.34884334006E+03  0.00000000000E+00 0. -1.
<scales pt_clust_3="14000.00000" pt_clust_4="61.82303" pt_clust_5="52.44282" pt_clust_6="102.55683"></scales>
<clustering>
<clus scale="   52.443">  1  5  2 -1</clus>
<clus scale="   61.823">  1  4  2 -1</clus>
<clus scale="  102.557">  2  6  1 -1</clus>
<clus scale="   52.443">  1  3  2 -1</clus>
</clustering>
</event>
<event>
 6    0  0.1631680E+002  0.8578909E+02  0.7546771E-02  0.1313382E+00
          2   -1    0    0  503    0 -0.00000000000E+00  0.00000000000E+00  0.10971068058E+03  0.10971068058E+03  0.00000000000E+00 0.  1.
         21   -1    0    0  504  502  0.00000000000E+00 -0.00000000000E+00 -0.37659640530E+03  0.37659640530E+03  0.00000000000E+00 0.  1.
         21    1    1    2  503  502 -0.46003719697E+02  0.29841256501E+01 -0.19690642235E+02  0.50129518485E+02  0.00000000000E+00 0.  1.
         21    1    1    2  504  505  0.71268293838E+02  0.38698382129E+01 -0.24506493790E+03  0.25524687881E+03  0.00000000000E+00 0.  1.
         21    1    1    2  505  501  0.16560450901E+02 -0.77814133561E+02 -0.41394653184E+02  0.89681688366E+02  0.00000000000E+00 0.  1.
          2    1    1    2  501    0 -0.41825025041E+02  0.70960169698E+02  0.39264508601E+02  0.91249000208E+02  0.00000000000E+00 0.  1.
<scales pt_clust_3="46.10040" pt_clust_4="68.90770" pt_clust_5="85.78909" pt_clust_6="14000.00000"></scales>
<clustering>
<clus scale="   46.100">  1  3  2 -1</clus>
<clus scale="   68.908">  2  4  1 -1</clus>
<clus scale="   85.789">  2  5  1 -1</clus>
<clus scale="   68.908">  2  3  1 -1</clus>
</clustering>
</event>
<event>
 6    0  0.1631680E+002  0.1010391E+03  0.7546771E-02  0.1278126E+00
         21   -1    0    0  503  502  0.00000000000E+00  0.00000000000E+00  0.37426870759E+03  0.37426870759E+03  0.00000000000E+00 0.  1.
          2   -1    0    0  505    0 -0.00000000000E+00 -0.00000000000E+00 -0.84327592159E+03  0.84327592159E+03  0.00000000000E+00 0. -1.
         21    1    1    2  503  504 -0.25141895240E+02  0.22167159298E+02  0.33493631848E+02  0.47384820587E+02  0.00000000000E+00 0.  1.
         21    1    1    2  504  501 -0.35599235047E+02 -0.14426251942E+03 -0.51377187597E+03  0.53482756154E+03  0.00000000000E+00 0. -1.
         21    1    1    2  505  502  0.47464463678E+02  0.75561417593E+02  0.31519371059E+03  0.32758125455E+03  0.00000000000E+00 0.  1.
          2    1    1    2  501    0  0.13276666609E+02  0.46533942530E+02 -0.30392268047E+03  0.30775099250E+03  0.00000000000E+00 0. -1.
<scales pt_clust_3="33.51862" pt_clust_4="101.03915" pt_clust_5="14000.00000" pt_clust_6="48.47387"></scales>
<clustering>
<clus scale="   33.519">  1  3  2 -1</clus>
<clus scale="   48.474">  2  6  1 -1</clus>
<clus scale="  101.039">  2  4  1 -1</clus>
<clus scale="   33.519">  1  3  2 -1</clus>
</clustering>
</event>
<event>
 6    0  0.1631680E+002  0.1779620E+03  0.7546771E-02  0.1169790E+00
          2   -1    0    0  505    0 -0.00000000000E+00  0.00000000000E+00  0.19845118643E+04  0.19845118643E+04  0.00000000000E+00 0.  1.
         21   -1    0    0  503  502  0.00000000000E+00 -0.00000000000E+00 -0.97552447171E+02  0.97552447171E+02  0.00000000000E+00 0. -1.
         21    1    1    2  503  504  0.16387108303E+03  0.79714733209E+02  0.10871552086E+02  0.18255509083E+03  0.00000000000E+00 0. -1.
         21    1    1    2  504  501 -0.16553306175E+03  0.14526496387E+02  0.74101296962E+03  0.75941585102E+03  0.00000000000E+00 0.  1.
         21    1    1    2  505  502 -0.12079843460E+02 -0.39727890029E+02  0.26799078966E+03  0.27118866349E+03  0.00000000000E+00 0. -1.
          2    1    1    2  501    0  0.13741822181E+02 -0.54513339568E+02  0.86708410579E+03  0.86890470615E+03  0.00000000000E+00 0.  1.
<scales pt_clust_3="14000.00000" pt_clust_4="177.96205" pt_clust_5="41.52382" pt_clust_6="75.01013"></scales>
<clustering>
<clus scale="   41.524">  1  5  2 -1</clus>
<clus scale="   75.010">  1  6  2 -1</clus>
<clus scale="  177.962">  1  4  2 -1</clus>
<clus scale="  177.962">  2  3  1 -1</clus>
</clustering>
</event>
<event>
 6    0  0.1631680E+002  0.1514270E+03  0.7546771E-02  0.1198730E+00
         21   -1    0    0  504  502  0.00000000000E+00  0.00000000000E+00  0.13291245172E+03  0.13291245172E+03  0.00000000000E+00 0. -1.
          1   -1    0    0  503    0 -0.00000000000E+00 -0.00000000000E+00 -0.94693599073E+03  0.94693599073E+03  0.00000000000E+00 0. -1.
         21    1    1    2  503  502 -0.20724699724E+02 -0.56246296646E+02 -0.96638818865E+02  0.11371992076E+03  0.00000000000E+00 0. -1.
         21    1    1    2  504  505 -0.13996427589E+03 -0.17317457990E+02  0.70056076652E+02  0.15747300325E+03  0.00000000000E+00 0. -1.
         21    1    1    2  505  501  0.34994149076E+02  0.41469987376E+02 -0.23817888698E+03  0.24428166637E+03  0.00000000000E+00 0. -1.
          1    1    1    2  501    0  0.12569482654E+03  0.32093767260E+02 -0.54926190982E+03  0.56437385206E+03  0.00000000000E+00 0. -1.
<scales pt_clust_3="59.94297" pt_clust_4="142.48501" pt_clust_5="33.15568" pt_clust_6="33.15568"></scales>
<clustering>
<clus scale="   33.156">  5  6 -1 -1</clus>
<clus scale="   59.943">  2  3  1 -1</clus>
<clus scale="  142.485">  1  4  2 -1</clus>
<clus scale="  142.485">  1  3  2 -1</clus>
</clustering>
</event>
<event>
 6    0  0.1631680E+002  0.1262685E+03  0.7546771E-02  0.1233100E+00
         21   -1    0    0  503  502  0.00000000000E+00  0.00000000000E+00  0.78295053937E+03  0.78295053937E+03  0.00000000000E+00 0. -1.
          2   -1    0    0  504    0 -0.00000000000E+00 -0.00000000000E+00 -0.12042783543E+04  0.12042783543E+04  0.00000000000E+00 0. -1.
         21    1    1    2  503  501  0.35597657151E+02  0.69890378271E+02 -0.23038748011E+03  0.24337265491E+03  0.00000000000E+00 0. -1.
         21    1    1    2  504  505 -0.15050170409E+02 -0.54189735102E+02  0.26680777482E+03  0.27267090736E+03  0.00000000000E+00 0.  1.
         21    1    1    2  505  502  0.72198615237E+01 -0.67722703685E+02  0.50352252260E+03  0.50810768717E+03  0.00000000000E+00 0. -1.
          2    1    1    2  501    0 -0.27767348266E+02  0.52022060516E+02 -0.96127063229E+03  0.96307764428E+03  0.00000000000E+00 0. -1.
<scales pt_clust_3="121.08368" pt_clust_4="32.54309" pt_clust_5="32.54309" pt_clust_6="58.96881"></scales>
<clustering>
<clus scale="   32.543">  4  5 -1 -1</clus>
<clus scale="   58.969">  2  6  1 -1</clus>
<clus scale="  121.084">  2  3  1 -1</clus>
<clus scale="  126.269">  1  3  2 -1</clus>
</clustering>
</event>
<event>
 6    0  0.1631680E+002  0.1156555E+03  0.7546771E-02  0.1250441E+00
          2   -1    0    0  503    0 -0.00000000000E+00  0.00000000000E+00  0.29478308747E+04  0.29478308747E+04  0.00000000000E+00 0.  1.
         21   -1    0    0  504  502  0.00000000000E+00 -0.00000000000E+00 -0.19397308058E+02  0.19397308058E+02  0.00000000000E+00 0.  1.
         21    1    1    2  503  502  0.27935812010E+02  0.82887523481E+02  0.15382575193E+03  0.17695511605E+03  0.00000000000E+00 0.  1.
         21    1    1    2  504  505  0.18103000461E+02 -0.32639255321E+02  0.14146270644E+03  0.14630357797E+03  0.00000000000E+00 0.  1.
         21    1    1    2  505  501 -0.14993666839E+02  0.65008920403E+02  0.28153306135E+03  0.28932997496E+03  0.00000000000E+00 0.  1.
          2    1    1    2  501    0 -0.31045145632E+02 -0.11525718856E+03  0.23516120469E+04  0.23546395138E+04  0.00000000000E+00 0.  1.
<scales pt_clust_3="14000.00000" pt_clust_4="37.32345" pt_clust_5="58.52586" pt_clust_6="115.65555"></scales>
<clustering>
<clus scale="   37.323">  2  4  1 -1</clus>
<clus scale="   58.526">  2  5  1 -1</clus>
<clus scale="  115.656">  1  6  2 -1</clus>
<clus scale="   37.323">  2  3  1 -1</clus>
</clustering>
</event>
<event>
 6    0  0.1631680E+002  0.1511960E+03  0.7546771E-02  0.1199011E+00
         21   -1    0    0  501  502  0.00000000000E+00  0.00000000000E+00  0.20161964666E+03  0.20161964666E+03  0.00000000000E+00 0. -1.
          1   -1    0    0  503    0 -0.00000000000E+00 -0.00000000000E+00 -0.82128862869E+03  0.82128862869E+03  0.00000000000E+00 0. -1.
         21    1    1    2  503  505  0.63144479100E+02 -0.44594810254E+02 -0.14156122166E+03  0.16129321691E+03  0.00000000000E+00 0.  1.
         21    1    1    2  504  502  0.20787656031E+01 -0.37641415506E+02  0.99039868014E+02  0.10597213258E+03  0.00000000000E+00 0.  1.
         21    1    1    2  505  504 -0.15707108908E+03  0.47954933322E+01  0.89115685109E+01  0.15739675929E+03  0.00000000000E+00 0. -1.
          1    1    1    2  501    0  0.91847844374E+02  0.77440732428E+02 -0.58605919690E+03  0.59824616658E+03  0.00000000000E+00 0. -1.
<scales pt_clust_3="79.68891" pt_clust_4="37.69877" pt_clust_5="14000.00000" pt_clust_6="151.19602"></scales>
<clustering>
<clus scale="   37.699">  1  4  2 -1</clus>
<clus scale="   79.689">  2  3  1 -1</clus>
<clus scale="  151.196">  2  6  1 -1</clus>
<clus scale="   37.699">  1  3  2 -1</clus>
</clustering>
</event>
<event>
 6    0  0.1631680E+002  0.1735107E+03  0.7546771E-02  0.1174235E+00
         -1   -1    0    0    0  501 -0.00000000000E+00  0.00000000000E+00  0.87404939281E+03  0.87404939281E+03  0.00000000000E+00 0. -1.
         21   -1    0    0  504  502  0.00000000000E+00 -0.00000000000E+00 -0.47822189596E+02  0.47822189596E+02  0.00000000000E+00 0. -1.
         21    1    1    2  503  501 -0.23404939237E+02 -0.20409544418E+02  0.13146184182E+03  0.13507981543E+03  0.00000000000E+00 0. -1.
         21    1    1    2  504  503 -0.14298956220E+03 -0.57123817052E+02  0.24844241233E+03  0.29228885989E+03  0.00000000000E+00 0. -1.
         21    1    1    2  505  502  0.35921553838E+02  0.91255040675E+01  0.17319340710E+02  0.40909563885E+02  0.00000000000E+00 0. -1.
         -1    1    1    2    0  505  0.13047294759E+03  0.68407857402E+02  0.42900360835E+03  0.45359334319E+03  0.00000000000E+00 0. -1.
<scales pt_clust_3="30.51860" pt_clust_4="30.51860" pt_clust_5="37.06255" pt_clust_6="159.64892"></scales>
<clustering>
<clus scale="   30.519">  3  4 -1 -1</clus>
<clus scale="   37.063">  2  5  1 -1</clus>
<clus scale="  159.649">  1  6  2 -1</clus>
<clus scale="   37.063">  2  3  1 -1</clus>
</clustering>
</event>
<event>
 6    0  0.1631680E+002  0.1209909E+03  0.7546771E-02  0.1241471E+00
         21   -1    0    0  505  502  0.00000000000E+00  0.00000000000E+00  0.12798421219E+03  0.12798421219E+03  0.00000000000E+00 0.  1.
          2   -1    0    0  503    0 -0.00000000000E+00 -0.00000000000E+00 -0.65154881340E+03  0.65154881340E+03  0.00000000000E+00 0.  1.
         21    1    1    2  503  504  0.21958088710E+01 -0.89649826761E+02 -0.40615479766E+02  0.98445569791E+02  0.00000000000E+00 0.  1.
         21    1    1    2  504  502 -0.29930334192E+02 -0.25980168143E+02 -0.35626069538E+02  0.53291752386E+02  0.00000000000E+00 0. -1.
         21    1    1    2  505  501 -0.23474005814E+02  0.22290513971E+02  0.81850173180E+02  0.88019013921E+02  0.00000000000E+00 0.  1.
          2    1    1    2  501    0  0.51208531135E+02  0.93339480933E+02 -0.52917322509E+03  0.53977668949E+03  0.00000000000E+00 0.  1.
<scales pt_clust_3="40.64187" pt_clust_4="40.64187" pt_clust_5="32.37122" pt_clust_6="107.54930"></scales>
<clustering>
<clus scale="   32.371">  1  5  2 -1</clus>
<clus scale="   40.642">  3  4 -1 -1</clus>
<clus scale="  107.549">  2  6  1 -1</clus>
<clus scale="   32.371">  1  3  2 -1</clus>
</clustering>
</event>
<event>
 6    0  0.1631680E+002  0.1777662E+03  0.7546771E-02  0.1169983E+00
         21   -1    0    0  504  502  0.00000000000E+00  0.00000000000E+00  0.29445042371E+03  0.29445042371E+03  0.00000000000E+00 0.  1.
          1   -1    0    0  503    0 -0.00000000000E+00 -0.00000000000E+00 -0.55286136902E+03  0.55286136902E+03  0.00000000000E+00 0. -1.
         21    1    1    2  503  505  0.13847375726E+02 -0.45444719715E+02 -0.59613997962E+02  0.76228610885E+02  0.00000000000E+00 0. -1.
         21    1    1    2  504  501 -0.14901690215E+03  0.15284775845E+03  0.14799897417E+03  0.25975405819E+03  0.00000000000E+00 0.  1.
         21    1    1    2  505  502 -0.19133576246E+02 -0.85954506738E+02  0.38216084703E+02  0.95993437789E+02  0.00000000000E+00 0.  1.
          1    1    1    2  501    0  0.15430310267E+03 -0.21448531995E+02 -0.38501200622E+03  0.41533568587E+03  0.00000000000E+00 0. -1.
<scales pt_clust_3="47.50760" pt_clust_4="14000.00000" pt_clust_5="90.53236" pt_clust_6="177.76620"></scales>
<clustering>
<clus scale="   47.508">  2  3  1 -1</clus>
<clus scale="   90.532">  1  5  2 -1</clus>
<clus scale="  177.766">  2  6  1 -1</clus>
<clus scale="   90.532">  1  3  2 -1</clus>
</clustering>
</event>
<event>
 6    0  0.1631680E+002  0.8128247E+02  0.7546771E-02  0.1325451E+00
          2   -1    0    0  504    0 -0.00000000000E+00  0.00000000000E+00  0.10460147076E+04  0.10460147076E+04  0.00000000000E+00 0. -1.
         21   -1    0    0  505  502  0.00000000000E+00 -0.00000000000E+00 -0.13889067695E+03  0.13889067695E+03  0.00000000000E+00 0.  1.
         21    1    1    2  503  502 -0.99144219261E+01 -0.95221291954E+02  0.15464032680E+02  0.96976938033E+02  0.00000000000E+00 0.  1.
         21    1    1    2  504  503  0.14675879641E+02  0.59942823546E+02  0.22521862914E+03  0.23352077948E+03  0.00000000000E+00 0.  1.
         21    1    1    2  505  501  0.67581425946E+02  0.29360282517E+02 -0.77498093046E+02  0.10693563367E+03  0.00000000000E+00 0.  1.
          2    1    1    2  501    0 -0.72342883660E+02  0.59181858912E+01  0.74393946183E+03  0.74747203333E+03  0.00000000000E+00 0. -1.
<scales pt_clust_3="14000.00000" pt_clust_4="61.71324" pt_clust_5="74.36198" pt_clust_6="81.28247"></scales>
<clustering>
<clus scale="   61.713">  1  4  2 -1</clus>
<clus scale="   74.362">  2  5  1 -1</clus>
<clus scale="   81.282">  1  6  2 -1</clus>
<clus scale="   74.362">  2  3  1 -1</clus>
</clustering>
</event>
<event>
 6    0  0.1631680E+002  0.8676000E+02  0.7546771E-02  0.1310893E+00
          2   -1    0    0  505    0 -0.00000000000E+00  0.00000000000E+00  0.34644874079E+03  0.34644874079E+03  0.00000000000E+00 0.  1.
         21   -1    0    0  503  502  0.00000000000E+00 -0.00000000000E+00 -0.23405132413E+03  0.23405132413E+03  0.00000000000E+00 0. -1.
         21    1    1    2  503  501  0.77145658354E+02  0.13827846827E+02 -0.51449583572E+02  0.93753515137E+02  0.00000000000E+00 0. -1.
         21    1    1    2  504  502  0.38842747508E+01 -0.45528441878E+02 -0.13394067284E+03  0.14152042415E+03  0.00000000000E+00 0. -1.
         21    1    1    2  505  504  0.40126127543E+02  0.10935940670E+01  0.31326003143E+02  0.50917782086E+02  0.00000000000E+00 0. -1.
          2    1    1    2  501    0 -0.12115606065E+03  0.30607000985E+02  0.26646166993E+03  0.29430834355E+03  0.00000000000E+00 0.  1.
<scales pt_clust_3="14000.00000" pt_clust_4="45.72535" pt_clust_5="40.14103" pt_clust_6="86.76000"></scales>
<clustering>
<clus scale="   40.141">  1  5  2 -1</clus>
<clus scale="   45.725">  2  4  1 -1</clus>
<clus scale="   86.760">  1  6  2 -1</clus>
<clus scale="   45.725">  2  3  1 -1</clus>
</clustering>
</event>
<event>
 6    0  0.1631680E+002  0.9171104E+02  0.7546771E-02  0.1298760E+00
         21   -1    0    0  501  502  0.00000000000E+00  0.00000000000E+00  0.35734017671E+03  0.35734017671E+03  0.00000000000E+00 0. -1.
          2   -1    0    0  505    0 -0.00000000000E+00 -0.00000000000E+00 -0.11921337345E+04  0.11921337345E+04  0.00000000000E+00 0. -1.
         21    1    1    2  503  502  0.33912687155E+01  0.91667474249E+02  0.33897084215E+03  0.35116329303E+03  0.00000000000E+00 0. -1.
         21    1    1    2  504  503  0.29964976568E+02 -0.27762962057E+02 -0.25763817093E+03  0.26085649120E+03  0.00000000000E+00 0. -1.
         21    1    1    2  505  504  0.20439739043E+02  0.22967820987E+02 -0.22734971832E+02  0.38238497320E+02  0.00000000000E+00 0. -1.
          2    1    1    2  501    0 -0.53795984327E+02 -0.86872333179E+02 -0.89339125722E+03  0.89921562969E+03  0.00000000000E+00 0. -1.
<scales pt_clust_3="91.71104" pt_clust_4="41.28590" pt_clust_5="30.74579" pt_clust_6="14000.00000"></scales>
<clustering>
<clus scale="   30.746">  2  5  1 -1</clus>
<clus scale="   41.286">  2  4  1 -1</clus>
<clus scale="   91.711">  1  3  2 -1</clus>
<clus scale="   91.711">  1  3  2 -1</clus>
</clustering>
</event>
<event>
 6    0  0.1631680E+002  0.7803888E+02  0.7546771E-02  0.1334711E+00
         21   -1    0    0  503  502  0.00000000000E+00  0.00000000000E+00  0.19444010790E+03  0.19444010790E+03  0.00000000000E+00 0. -1.
          1   -1    0    0  504    0 -0.00000000000E+00 -0.00000000000E+00 -0.40587872403E+03  0.40587872403E+03  0.00000000000E+00 0.  1.
         21    1    1    2  503  501 -0.66912722465E+02 -0.31590857146E+02  0.10950828735E+03  0.13216413917E+03  0.00000000000E+00 0. -1.
         21    1    1    2  504  505  0.34905952862E+01  0.33852622891E+02 -0.10739341138E+03  0.11265668706E+03  0.00000000000E+00 0.  1.
         21    1    1    2  505  502  0.11066643246E+03 -0.26552880851E+02  0.20372009540E+02  0.11561632033E+03  0.00000000000E+00 0. -1.
          1    1    1    2  501    0 -0.47244305278E+02  0.24291115106E+02 -0.23392550165E+03  0.23988168537E+03  0.00000000000E+00 0.  1.
<scales pt_clust_3="78.03888" pt_clust_4="34.03211" pt_clust_5="14000.00000" pt_clust_6="67.95245"></scales>
<clustering>
<clus scale="   34.032">  2  4  1 -1</clus>
<clus scale="   67.952">  2  6  1 -1</clus>
<clus scale="   78.039">  1  3  2 -1</clus>
<clus scale="   78.039">  1  3  2 -1</clus>
</clustering>
</event>
<event>
 6    0  0.1631680E+002  0.7764386E+02  0.7546771E-02  0.1335874E+00
          1   -1    0    0  503    0 -0.00000000000E+00  0.00000000000E+00  0.11712855521E+04  0.11712855521E+04  0.00000000000E+00 0. -1.
         21   -1    0    0  501  502  0.00000000000E+00 -0.00000000000E+00 -0.21090404019E+03  0.21090404019E+03  0.00000000000E+00 0. -1.
         21    1    1    2  503  505 -0.30980125258E+02  0.22898468607E+02  0.85590936750E+02  0.93861155327E+02  0.00000000000E+00 0. -1.
         21    1    1    2  504  502  0.60972391638E+02 -0.47866086244E+02 -0.19468262081E+03  0.20954741134E+03  0.00000000000E+00 0. -1.
         21    1    1    2  505  504  0.30576237265E+02 -0.39720665717E+02  0.49214683076E+03  0.49469297609E+03  0.00000000000E+00 0. -1.
          1    1    1    2  501    0 -0.60568503645E+02  0.64688283353E+02  0.57732636521E+03  0.58408804953E+03  0.00000000000E+00 0. -1.
<scales pt_clust_3="38.52412" pt_clust_4="14000.00000" pt_clust_5="33.57586" pt_clust_6="77.64386"></scales>
<clustering>
<clus scale="   38.524">  1  3  2 -1</clus>
<clus scale="   33.576">  1  5  2 -1</clus>
<clus scale="   77.644">  1  6  2 -1</clus>
<clus scale="   77.644">  2  3  1 -1</clus>
</clustering>
</event>
<event>
 6    0  0.1631680E+002  0.5667306E+02  0.7546771E-02  0.1412349E+00
          2   -1    0    0  503    0 -0.00000000000E+00  0.00000000000E+00  0.16179349324E+04  0.16179349324E+04  0.00000000000E+00 0.  1.
         21   -1    0    0  504  502  0.00000000000E+00 -0.00000000000E+00 -0.36766123085E+02  0.36766123085E+02  0.00000000000E+00 0. -1.
         21    1    1    2  503  505 -0.29097138085E+02 -0.37675001047E+02  0.58821087048E+03  0.59013394860E+03  0.00000000000E+00 0. -1.
         21    1    1    2  504  501  0.65539816766E+02 -0.57981908879E+02  0.14253594593E+03  0.16725389449E+03  0.00000000000E+00 0. -1.
         21    1    1    2  505  502 -0.33815795773E+02  0.20196246090E+02 -0.39736080678E+01  0.39587699617E+02  0.00000000000E+00 0. -1.
          2    1    1    2  501    0 -0.26268829080E+01  0.75460663836E+02  0.85439560102E+03  0.85772551282E+03  0.00000000000E+00 0.  1.
<scales pt_clust_3="47.96937" pt_clust_4="56.67306" pt_clust_5="39.38777" pt_clust_6="14000.00000"></scales>
<clustering>
<clus scale="   39.388">  2  5  1 -1</clus>
<clus scale="   47.969">  1  3  2 -1</clus>
<clus scale="   56.673">  2  4  1 -1</clus>
<clus scale="   39.388">  2  3  1 -1</clus>
</clustering>
</event>
<event>
 6    0  0.1631680E+002  0.6415683E+02  0.7546771E-02  0.1381172E+00
         21   -1    0    0  504  502  0.00000000000E+00  0.00000000000E+00  0.57226303493E+02  0.57226303493E+02  0.00000000000E+00 0.  1.
          2   -1    0    0  503    0 -0.00000000000E+00 -0.00000000000E+00 -0.15502766358E+04  0.15502766358E+04  0.00000000000E+00 0.  1.
         21    1    1    2  503  505  0.65103078898E+02  0.19796889850E+02 -0.79860786098E+03  0.80150161781E+03  0.00000000000E+00 0.  1.
         21    1    1    2  504  501 -0.50574097593E+02 -0.30731164239E+01  0.36467191186E+02  0.62426271913E+02  0.00000000000E+00 0.  1.
         21    1    1    2  505  502 -0.25795343451E+02 -0.73029943029E+02 -0.47752267196E+03  0.48376303554E+03  0.00000000000E+00 0.  1.
          2    1    1    2  501    0  0.11266362145E+02  0.56306169603E+02 -0.25338699053E+03  0.25981201400E+03  0.00000000000E+00 0.  1.
<scales pt_clust_3="64.15683" pt_clust_4="50.66738" pt_clust_5="14000.00000" pt_clust_6="55.87119"></scales>
<clustering>
<clus scale="   50.667">  1  4  2 -1</clus>
<clus scale="   55.871">  1  6  2 -1</clus>
<clus scale="   64.157">  2  3  1 -1</clus>
<clus scale="   50.667">  1  3  2 -1</clus>
</clustering>
</event>
<event>
 6    0  0.1631680E+002  0.1391614E+03  0.7546771E-02  0.1214462E+00
          2   -1    0    0  503    0 -0.00000000000E+00  0.00000000000E+00  0.83191989491E+03  0.83191989491E+03  0.00000000000E+00 0.  1.
         21   -1    0    0  501  502  0.00000000000E+00 -0.00000000000E+00 -0.15617557410E+03  0.15617557410E+03  0.00000000000E+00 0. -1.
         21    1    1    2  503  504 -0.48064194083E+02  0.39253308858E+02  0.20926224347E+03  0.21826973118E+03  0.00000000000E+00 0. -1.
         21    1    1    2  504  505  0.10716672846E+03  0.76699023038E+02  0.14575312501E+03  0.19649789127E+03  0.00000000000E+00 0. -1.
         21    1    1    2  505  502 -0.13502112199E+03  0.40433089266E+02 -0.61229579128E+02  0.15367042477E+03  0.00000000000E+00 0. -1.
          2    1    1    2  501    0  0.75918587604E+02 -0.15638542116E+03  0.38195853146E+03  0.41965742178E+03  0.00000000000E+00 0.  1.
<scales pt_clust_3="62.05634" pt_clust_4="128.36519" pt_clust_5="139.16145" pt_clust_6="14000.00000"></scales>
<clustering>
<clus scale="   62.056">  1  3  2 -1</clus>
<clus scale="  128.365">  1  4  2 -1</clus>
<clus scale="  139.161">  2  5  1 -1</clus>
<clus scale="  139.161">  2  3  1 -1</clus>
</clustering>
</event>
<event>
 6    0  0.1631680E+002  0.1237602E+03  0.7546771E-02  0.1237020E+00
         21   -1    0    0  504  502  0.00000000000E+00  0.00000000000E+00  0.10044886616E+03  0.10044886616E+03  0.00000000000E+00 0. -1.
          2   -1    0    0  503    0 -0.00000000000E+00 -0.00000000000E+00 -0.13587893711E+04  0.13587893711E+04  0.00000000000E+00 0.  1.
         21    1    1    2  503  502 -0.12940991412E+03  0.44986825019E+02  0.66275652818E+01  0.13716655904E+03  0.00000000000E+00 0. -1.
         21    1    1    2  504  505 -0.23333897928E+02  0.47542896621E+02 -0.39181691563E+02  0.65878697356E+02  0.00000000000E+00 0. -1.
         21    1    1    2  505  501  0.84932984421E+02  0.11841673008E+02 -0.14649643627E+03  0.16974994227E+03  0.00000000000E+00 0. -1.
          2    1    1    2  501    0  0.67810827627E+02 -0.10437139465E+03 -0.10792899424E+04  0.10864430386E+04  0.00000000000E+00 0.  1.
<scales pt_clust_3="123.76024" pt_clust_4="52.96034" pt_clust_5="83.81542" pt_clust_6="14000.00000"></scales>
<clustering>
<clus scale="   52.960">  1  4  2 -1</clus>
<clus scale="   83.815">  1  5  2 -1</clus>
<clus scale="  123.760">  1  3  2 -1</clus>
<clus scale="   52.960">  1  3  2 -1</clus>
</clustering>
</event>
<event>
 6    0  0.1631680E+002  0.1508254E+03  0.7546771E-02  0.1199462E+00
         -3   -1    0    0    0  501 -0.00000000000E+00  0.00000000000E+00  0.64350213214E+03  0.64350213214E+03  0.00000000000E+00 0.  1.
         21   -1    0    0  503  502  0.00000000000E+00 -0.00000000000E+00 -0.50661157447E+03  0.50661157447E+03  0.00000000000E+00 0.  1.
         21    1    1    2  503  501  0.16777111821E+03  0.13359647290E+03  0.33118858142E+03  0.39456437008E+03  0.00000000000E+00 0.  1.
         21    1    1    2  504  505 -0.96307835100E+02  0.26200649781E+02  0.13451471851E+02  0.10071055181E+03  0.00000000000E+00 0. -1.
         21    1    1    2  505  502 -0.16252938776E+02 -0.50580878990E+02 -0.41271409516E+03  0.41611958339E+03  0.00000000000E+00 0.  1.
         -3    1    1    2    0  504 -0.55210344330E+02 -0.10921624369E+03  0.20496459957E+03  0.23871920133E+03  0.00000000000E+00 0.  1.
<scales pt_clust_3="14000.00000" pt_clust_4="104.02390" pt_clust_5="53.12799" pt_clust_6="150.82538"></scales>
<clustering>
<clus scale="   53.128">  2  5  1 -1</clus>
<clus scale="  104.024">  2  4  1 -1</clus>
<clus scale="  150.825">  1  6  2 -1</clus>
<clus scale="   53.128">  2  3  1 -1</clus>
</clustering>
</event>
<event>
 6    0  0.1631680E+002  0.1155851E+03  0.7546771E-02  0.1250563E+00
         -1   -1    0    0    0  501 -0.00000000000E+00  0.00000000000E+00  0.92933886359E+03  0.92933886359E+03  0.00000000000E+00 0. -1.
         21   -1    0    0  505  502  0.00000000000E+00 -0.00000000000E+00 -0.79294475528E+02  0.79294475528E+02  0.00000000000E+00 0. -1.
         21    1    1    2  503  502 -0.31772759039E+02 -0.11782376930E+03 -0.45117560897E+01  0.12211594806E+03  0.00000000000E+00 0. -1.
         21    1    1    2  504  501 -0.36070931254E+02  0.35439199313E+02  0.86307261410E+02  0.10002995702E+03  0.00000000000E+00 0. -1.
         21    1    1    2  505  504 -0.19898856909E+01  0.47134695607E+02  0.73429855558E+02  0.87278765242E+02  0.00000000000E+00 0.  1.
         -1    1    1    2    0  503  0.69833575984E+02  0.35249874375E+02  0.69481902718E+03  0.69920866879E+03  0.00000000000E+00 0. -1.
<scales pt_clust_3="109.81063" pt_clust_4="34.84634" pt_clust_5="34.84634" pt_clust_6="78.22584"></scales>
<clustering>
<clus scale="   34.846">  4  5 -1 -1</clus>
<clus scale="   78.226">  1  6  2 -1</clus>
<clus scale="  109.811">  2  3  1 -1</clus>
<clus scale="  109.811">  2  3  1 -1</clus>
</clustering>
</event>
<event>
 6    0  0.1631680E+002  0.8143640E+02  0.7546771E-02  0.1325024E+00
         21   -1    0    0  505  502  0.00000000000E+00  0.00000000000E+00  0.39761587858E+03  0.39761587858E+03  0.00000000000E+00 0.  1.
         -3   -1    0    0    0  501 -0.00000000000E+00 -0.00000000000E+00 -0.43871637730E+03  0.43871637730E+03  0.00000000000E+00 0. -1.
         21    1    1    2  503  501  0.10063009237E+01  0.53392553345E+02 -0.57151237876E+02  0.78217909618E+02  0.00000000000E+00 0.  1.
         21    1    1    2  504  502 -0.58719000559E+02  0.20699930591E+02  0.15095094924E+03  0.16328685566E+03  0.00000000000E+00 0.  1.
         21    1    1    2  505  503 -0.46164584562E+01  0.33183104618E+02  0.21810037058E+03  0.22065856378E+03  0.00000000000E+00 0.  1.
         -3    1    1    2    0  504  0.62329158091E+02 -0.10727558855E+03 -0.35300058067E+03  0.37416892683E+03  0.00000000000E+00 0. -1.
<scales pt_clust_3="55.35845" pt_clust_4="81.43640" pt_clust_5="33.50269" pt_clust_6="14000.00000"></scales>
<clustering>
<clus scale="   33.503">  1  5  2 -1</clus>
<clus scale="   55.358">  2  3  1 -1</clus>
<clus scale="   81.436">  1  4  2 -1</clus>
<clus scale="   33.503">  1  3  2 -1</clus>
</clustering>
</event>
<event>
 6    0  0.1631680E+002  0.1342441E+03  0.7546771E-02  0.1221291E+00
          2   -1    0    0  505    0 -0.00000000000E+00  0.00000000000E+00  0.19548017978E+04  0.19548017978E+04  0.00000000000E+00 0.  1.
         21   -1    0    0  503  502  0.00000000000E+00 -0.00000000000E+00 -0.59098292903E+03  0.59098292903E+03  0.00000000000E+00 0. -1.
         21    1    1    2  503  501 -0.10333311205E+03  0.17608953018E+02 -0.27675328990E+03  0.29593950521E+03  0.00000000000E+00 0. -1.
         21    1    1    2  504  502 -0.17662599436E+01  0.54909023468E+02 -0.27937870285E+03  0.28472895908E+03  0.00000000000E+00 0. -1.
         21    1    1    2  505  504 -0.23687399328E+02 -0.13215835411E+03  0.20978698369E+03  0.24907328635E+03  0.00000000000E+00 0.  1.
          2    1    1    2  501    0  0.12878677132E+03  0.59640377628E+02  0.17101638779E+04  0.17160429762E+04  0.00000000000E+00 0.  1.
<scales pt_clust_3="125.34581" pt_clust_4="54.93742" pt_clust_5="134.24405" pt_clust_6="14000.00000"></scales>
<clustering>
<clus scale="   54.937">  2  4  1 -1</clus>
<clus scale="  125.346">  2  3  1 -1</clus>
<clus scale="  134.244">  2  5  1 -1</clus>
<clus scale="   54.937">  2  3  1 -1</clus>
</clustering>
</event>
<event>
 6    0  0.1631680E+002  0.9627837E+02  0.7546771E-02  0.1288323E+00
          2   -1    0    0  505    0 -0.00000000000E+00  0.00000000000E+00  0.18881448118E+03  0.18881448118E+03  0.00000000000E+00 0.  1.
         21   -1    0    0  501  502  0.00000000000E+00 -0.00000000000E+00 -0.12184098756E+03  0.12184098756E+03  0.00000000000E+00 0.  1.
         21    1    1    2  503  504  0.50267219967E+02 -0.27442285661E+02  0.26226482285E+02  0.62989688192E+02  0.00000000000E+00 0.  1.
         21    1    1    2  504  502 -0.50956117226E+02 -0.62186225625E+02 -0.30287592863E+02  0.85912693019E+02  0.00000000000E+00 0.  1.
         21    1    1    2  505  503  0.49163632123E+02  0.77359216325E+01  0.30064361414E+02  0.58144415332E+02  0.00000000000E+00 0.  1.
          2    1    1    2  501    0 -0.48474734864E+02  0.81892589653E+02  0.40970242780E+02  0.10360867219E+03  0.00000000000E+00 0.  1.
<scales pt_clust_3="32.69352" pt_clust_4="80.39684" pt_clust_5="32.69352" pt_clust_6="89.66352"></scales>
<clustering>
<clus scale="   32.694">  3  5 -1 -1</clus>
<clus scale="   80.397">  2  4  1 -1</clus>
<clus scale="   89.664">  2  6  1 -1</clus>
<clus scale="   80.397">  2  3  1 -1</clus>
</clustering>
</event>
<event>
 6    0  0.1631680E+002  0.1456469E+03  0.7546771E-02  0.1205926E+00
         21   -1    0    0  504  502  0.00000000000E+00  0.00000000000E+00  0.22850250665E+03  0.22850250665E+03  0.00000000000E+00 0. -1.
          1   -1    0    0  503    0 -0.00000000000E+00 -0.00000000000E+00 -0.19857009137E+04  0.19857009137E+04  0.00000000000E+00 0. -1.
         21    1    1    2  503  502  0.53980716399E+01 -0.34393906671E+02 -0.63809529591E+03  0.63904435422E+03  0.00000000000E+00 0. -1.
         21    1    1    2  504  505 -0.39187803894E+02 -0.18856110899E+02  0.20161905387E+03  0.20625585998E+03  0.00000000000E+00 0. -1.
         21    1    1    2  505  501 -0.11585889322E+03  0.31570805506E+02 -0.16912171744E+03  0.20741782519E+03  0.00000000000E+00 0.  1.
          1    1    1    2  501    0  0.14964862547E+03  0.21679212064E+02 -0.11516004475E+04  0.11614853809E+04  0.00000000000E+00 0. -1.
<scales pt_clust_3="34.81494" pt_clust_4="43.50568" pt_clust_5="145.64692" pt_clust_6="14000.00000"></scales>
<clustering>
<clus scale="   34.815">  2  3  1 -1</clus>
<clus scale="   43.506">  1  4  2 -1</clus>
<clus scale="  145.647">  1  5  2 -1</clus>
<clus scale="   43.506">  1  3  2 -1</clus>
</clustering>
</event>
<event>
 6    0  0.1631680E+002  0.2100514E+03  0.7546771E-02  0.1141525E+00
         21   -1    0    0  505  502  0.00000000000E+00  0.00000000000E+00  0.20663678863E+03  0.20663678863E+03  0.00000000000E+00 0. -1.
          2   -1    0    0  504    0 -0.00000000000E+00 -0.00000000000E+00 -0.21662079800E+04  0.21662079800E+04  0.00000000000E+00 0.  1.
         21    1    1    2  503  502 -0.31541276428E+02  0.79235914737E+02  0.16270994802E+03  0.18370549662E+03  0.00000000000E+00 0. -1.
         21    1    1    2  504  503 -0.46031144522E+02 -0.25854405144E+03 -0.13795726799E+04  0.14043449263E+04  0.00000000000E+00 0.  1.
         21    1    1    2  505  501 -0.15252700765E+02  0.32513357963E+02 -0.19184275778E+02  0.40716087285E+02  0.00000000000E+00 0.  1.
          2    1    1    2  501    0  0.92825121715E+02  0.14679477874E+03 -0.72352418368E+03  0.74407825842E+03  0.00000000000E+00 0.  1.
<scales pt_clust_3="116.99953" pt_clust_4="210.05140" pt_clust_5="35.91328" pt_clust_6="14000.00000"></scales>
<clustering>
<clus scale="   35.913">  1  5  2 -1</clus>
<clus scale="  117.000">  1  3  2 -1</clus>
<clus scale="  210.051">  1  4  2 -1</clus>
<clus scale="   35.913">  1  3  2 -1</clus>
</clustering>
</event>
<event>
 6    0  0.1631680E+002  0.2508276E+03  0.7546771E-02  0.1112783E+00
         21   -1    0    0  501  502  0.00000000000E+00  0.00000000000E+00  0.12382099962E+03  0.12382099962E+03  0.00000000000E+00 0.  1.
          2   -1    0    0  504    0 -0.00000000000E+00 -0.00000000000E+00 -0.20637350942E+04  0.20637350942E+04  0.00000000000E+00 0.  1.
         21    1    1    2  503  502 -0.18437771495E+02 -0.27415658025E+02  0.54002670228E+02  0.63307646571E+02  0.00000000000E+00 0.  1.
         21    1    1    2  504  505  0.10172941968E+02  0.28893182671E+02 -0.14431747119E+03  0.14753249555E+03  0.00000000000E+00 0.  1.
         21    1    1    2  505  503 -0.24144898228E+03  0.65230318002E+02 -0.15929655685E+04  0.16124800488E+04  0.00000000000E+00 0.  1.
          2    1    1    2  501    0  0.24971381181E+03 -0.66707842648E+02 -0.25663372514E+03  0.36423590290E+03  0.00000000000E+00 0.  1.
<scales pt_clust_3="32.96698" pt_clust_4="30.63176" pt_clust_5="14000.00000" pt_clust_6="250.82762"></scales>
<clustering>
<clus scale="   30.632">  2  4  1 -1</clus>
<clus scale="   32.967">  1  3  2 -1</clus>
<clus scale="  250.828">  1  6  2 -1</clus>
<clus scale="   32.967">  1  3  2 -1</clus>
</clustering>
</event>
<event>
 6    0  0.1631680E+002  0.8766678E+02  0.7546771E-02  0.1308602E+00
         21   -1    0    0  503  502  0.00000000000E+00  0.00000000000E+00  0.15715350100E+03  0.15715350100E+03  0.00000000000E+00 0. -1.
          2   -1    0    0  505    0 -0.00000000000E+00 -0.00000000000E+00 -0.53106853554E+03  0.53106853554E+03  0.00000000000E+00 0. -1.
         21    1    1    2  503  501  0.14572408303E+02  0.45861530017E+02  0.11071963450E+02  0.49378369696E+02  0.00000000000E+00 0. -1.
         21    1    1    2  504  502  0.18579000837E+02 -0.11674521451E+03  0.78605534696E+02  0.14196286299E+03  0.00000000000E+00 0. -1.
         21    1    1    2  505  504  0.28046850763E+02 -0.23798767418E+02 -0.27280257358E+03  0.27527123228E+03  0.00000000000E+00 0. -1.
          2    1    1    2  501    0 -0.61198259903E+02  0.94682451912E+02 -0.19078995911E+03  0.22160957157E+03  0.00000000000E+00 0. -1.
<scales pt_clust_3="47.13170" pt_clust_4="14000.00000" pt_clust_5="36.78325" pt_clust_6="87.66678"></scales>
<clustering>
<clus scale="   36.783">  2  5  1 -1</clus>
<clus scale="   47.132">  1  3  2 -1</clus>
<clus scale="   87.667">  2  6  1 -1</clus>
<clus scale="   47.132">  1  3  2 -1</clus>
</clustering>
</event>
<event>
 6    0  0.1631680E+002  0.8692760E+02  0.7546771E-02  0.1310467E+00
          2   -1    0    0  505    0 -0.00000000000E+00  0.00000000000E+00  0.21751043734E+04  0.21751043734E+04  0.00000000000E+00 0.  1.
         21   -1    0    0  504  502  0.00000000000E+00 -0.00000000000E+00 -0.90500274903E+02  0.90500274903E+02  0.00000000000E+00 0. -1.
         21    1    1    2  503  501  0.62508495581E+02  0.16863362856E+02  0.15221155426E+02  0.66508409988E+02  0.00000000000E+00 0.  1.
         21    1    1    2  504  503  0.18913772844E+02 -0.59706380767E+02 -0.46225197406E+02  0.77841836969E+02  0.00000000000E+00 0. -1.
         21    1    1    2  505  502 -0.34162437294E+02 -0.41162150820E+02  0.52188252190E+03  0.52461677580E+03  0.00000000000E+00 0.  1.
          2    1    1    2  501    0 -0.47259831131E+02  0.84005168730E+02  0.15937256186E+04  0.15966376256E+04  0.00000000000E+00 0.  1.
<scales pt_clust_3="86.92760" pt_clust_4="62.90880" pt_clust_5="53.49201" pt_clust_6="14000.00000"></scales>
<clustering>
<clus scale="   53.492">  1  5  2 -1</clus>
<clus scale="   62.909">  2  4  1 -1</clus>
<clus scale="   86.928">  2  3  1 -1</clus>
<clus scale="   62.909">  2  3  1 -1</clus>
</clustering>
</event>
<event>
 6    0  0.1631680E+002  0.1483651E+03  0.7546771E-02  0.1202496E+00
         21   -1    0    0  501  502  0.00000000000E+00  0.00000000000E+00  0.19080279414E+04  0.19080279414E+04  0.00000000000E+00 0.  1.
          4   -1    0    0  504    0 -0.00000000000E+00 -0.00000000000E+00 -0.60030812301E+02  0.60030812301E+02  0.00000000000E+00 0. -1.
         21    1    1    2  503  505 -0.35708666966E+02  0.78118885322E+02  0.93390811475E+03  0.93784968728E+03  0.00000000000E+00 0.  1.
         21    1    1    2  504  503  0.41697657905E+02 -0.31883369510E+01  0.78388194034E+02  0.88845760344E+02  0.00000000000E+00 0. -1.
         21    1    1    2  505  502 -0.58777888519E+02  0.24120365224E+02  0.82629080967E+03  0.82872983193E+03  0.00000000000E+00 0.  1.
          4    1    1    2  501    0  0.52788897581E+02 -0.99050913595E+02  0.94100106269E+01  0.11263347412E+03  0.00000000000E+00 0. -1.
<scales pt_clust_3="47.92298" pt_clust_4="41.81938" pt_clust_5="47.92298" pt_clust_6="137.44027"></scales>
<clustering>
<clus scale="   41.819">  2  4  1 -1</clus>
<clus scale="   47.923">  3  5 -1 -1</clus>
<clus scale="  137.440">  2  6  1 -1</clus>
<clus scale="  148.365">  1  3  2 -1</clus>
</clustering>
</event>
<event>
 6    0  0.1631680E+002  0.1906054E+03  0.7546771E-02  0.1157916E+00
          2   -1    0    0  503    0 -0.00000000000E+00  0.00000000000E+00  0.19540238277E+04  0.19540238277E+04  0.00000000000E+00 0.  1.
         21   -1    0    0  505  502  0.00000000000E+00 -0.00000000000E+00 -0.14805947180E+04  0.14805947180E+04  0.00000000000E+00 0. -1.
         21    1    1    2  503  502 -0.12722901320E+02 -0.54677602968E+02  0.18234201909E+03  0.19078816633E+03  0.00000000000E+00 0.  1.
         21    1    1    2  504  501 -0.48911716938E+02 -0.31662958325E+02  0.58807576615E+03  0.59095516388E+03  0.00000000000E+00 0. -1.
         21    1    1    2  505  504  0.16844134317E+03  0.68018748956E+02 -0.14668248609E+04  0.14780305169E+04  0.00000000000E+00 0. -1.
          2    1    1    2  501    0 -0.10680672491E+03  0.18321812336E+02  0.11698361853E+04  0.11748446986E+04  0.00000000000E+00 0.  1.
<scales pt_clust_3="56.13833" pt_clust_4="42.55761" pt_clust_5="181.55413" pt_clust_6="42.55761"></scales>
<clustering>
<clus scale="   42.558">  4  6 -1 -1</clus>
<clus scale="   56.138">  1  3  2 -1</clus>
<clus scale="  181.554">  2  5  1 -1</clus>
<clus scale="  181.554">  2  3  1 -1</clus>
</clustering>
</event>
<event>
 6    0  0.1631680E+002  0.1115642E+03  0.7546771E-02  0.1257700E+00
         -1   -1    0    0    0  501 -0.00000000000E+00  0.00000000000E+00  0.12493367378E+03  0.12493367378E+03  0.00000000000E+00 0.  1.
         21   -1    0    0  501  502  0.00000000000E+00 -0.00000000000E+00 -0.38342155572E+03  0.38342155572E+03  0.00000000000E+00 0.  1.
         21    1    1    2  503  502  0.13153042950E+02 -0.62417224869E+02 -0.26291398549E+03  0.27054145018E+03  0.00000000000E+00 0.  1.
         21    1    1    2  504  505 -0.53313409988E+02 -0.30876361605E+00  0.13807913888E+01  0.53332181695E+02  0.00000000000E+00 0.  1.
         21    1    1    2  505  503 -0.57224263564E+02  0.17173813158E+02 -0.36401560743E+02  0.69961631080E+02  0.00000000000E+00 0.  1.
         -1    1    1    2    0  504  0.97384630602E+02  0.45552175327E+02  0.39446872906E+02  0.11451996654E+03  0.00000000000E+00 0.  1.
<scales pt_clust_3="63.78803" pt_clust_4="36.24164" pt_clust_5="36.24164" pt_clust_6="104.76007"></scales>
<clustering>
<clus scale="   36.242">  4  5 -1 -1</clus>
<clus scale="   63.788">  2  3  1 -1</clus>
<clus scale="  104.760">  1  6  2 -1</clus>
<clus scale="   63.788">  2  3  1 -1</clus>
</clustering>
</event>
<event>
 6    0  0.1631680E+002  0.1032221E+03  0.7546771E-02  0.1273663E+00
          1   -1    0    0  503    0 -0.00000000000E+00  0.00000000000E+00  0.68580445454E+03  0.68580445454E+03  0.00000000000E+00 0.  1.
         21   -1    0    0  501  502  0.00000000000E+00 -0.00000000000E+00 -0.88339550041E+02  0.88339550041E+02  0.00000000000E+00 0. -1.
         21    1    1    2  503  504 -0.46569829314E+02  0.25611039276E+02  0.16101726184E+03  0.16956188530E+03  0.00000000000E+00 0.  1.
         21    1    1    2  504  505 -0.55549542135E+02 -0.64403368068E+02  0.52541648520E+02  0.99970847146E+02  0.00000000000E+00 0. -1.
         21    1    1    2  505  502  0.31069445631E+02 -0.49628479533E+02 -0.36617108705E+02  0.69058736468E+02  0.00000000000E+00 0. -1.
          1    1    1    2  501    0  0.71049925819E+02  0.88420808324E+02  0.42052310283E+03  0.43555253566E+03  0.00000000000E+00 0.  1.
<scales pt_clust_3="53.14767" pt_clust_4="103.22212" pt_clust_5="57.11078" pt_clust_6="14000.00000"></scales>
<clustering>
<clus scale="   53.148">  1  3  2 -1</clus>
<clus scale="   57.111">  2  5  1 -1</clus>
<clus scale="  103.222">  2  4  1 -1</clus>
<clus scale="   57.111">  2  3  1 -1</clus>
</clustering>
</event>
<event>
 6    0  0.1631680E+002  0.1229180E+03  0.7546771E-02  0.1238359E+00
          2   -1    0    0  504    0 -0.00000000000E+00  0.00000000000E+00  0.74377469487E+03  0.74377469487E+03  0.00000000000E+00 0. -1.
         21   -1    0    0  503  502  0.00000000000E+00 -0.00000000000E+00 -0.22344789790E+03  0.22344789790E+03  0.00000000000E+00 0.  1.
         21    1    1    2  503  501 -0.83253471572E+02 -0.96343173612E+02 -0.16855075391E+03  0.21124039451E+03  0.00000000000E+00 0.  1.
         21    1    1    2  504  505  0.23734124911E+02 -0.21633083236E+02  0.72759931849E+02  0.79531796523E+02  0.00000000000E+00 0. -1.
         21    1    1    2  505  502  0.33193542729E+02 -0.15361516601E+02 -0.82222112974E+01  0.37488561319E+02  0.00000000000E+00 0. -1.
          2    1    1    2  501    0  0.26325803932E+02  0.13333777345E+03  0.62433983033E+03  0.63896184042E+03  0.00000000000E+00 0. -1.
<scales pt_clust_3="122.91800" pt_clust_4="32.11384" pt_clust_5="37.24762" pt_clust_6="14000.00000"></scales>
<clustering>
<clus scale="   32.114">  1  4  2 -1</clus>
<clus scale="   37.248">  2  5  1 -1</clus>
<clus scale="  122.918">  2  3  1 -1</clus>
<clus scale="   37.248">  2  3  1 -1</clus>
</clustering>
</event>
<event>
 6    0  0.1631680E+002  0.8742050E+02  0.7546771E-02  0.1309221E+00
         -2   -1    0    0    0  501 -0.00000000000E+00  0.00000000000E+00  0.47130575493E+03  0.47130575493E+03  0.00000000000E+00 0.  1.
         21   -1    0    0  505  502  0.00000000000E+00 -0.00000000000E+00 -0.56021851808E+03  0.56021851808E+03  0.00000000000E+00 0.  1.
         21    1    1    2  503  501 -0.68102416811E+02  0.14619620804E+02  0.17287663710E+03  0.18638134066E+03  0.00000000000E+00 0. -1.
         21    1    1    2  504  502 -0.56564302442E+02 -0.10893659929E+02 -0.31963831039E+03  0.32478737907E+03  0.00000000000E+00 0.  1.
         21    1    1    2  505  503  0.97686422282E+01  0.37812050366E+02 -0.21651988943E+03  0.22001372694E+03  0.00000000000E+00 0.  1.
         -2    1    1    2    0  504  0.11489807702E+03 -0.41538011241E+02  0.27436879955E+03  0.30034182634E+03  0.00000000000E+00 0.  1.
<scales pt_clust_3="87.42050" pt_clust_4="53.43017" pt_clust_5="39.05352" pt_clust_6="14000.00000"></scales>
<clustering>
<clus scale="   39.054">  2  5  1 -1</clus>
<clus scale="   53.430">  2  4  1 -1</clus>
<clus scale="   87.420">  1  3  2 -1</clus>
<clus scale="   39.054">  2  3  1 -1</clus>
</clustering>
</event>
<event>
 6    0  0.1631680E+002  0.1818205E+03  0.7546771E-02  0.1166053E+00
          1   -1    0    0  505    0 -0.00000000000E+00  0.00000000000E+00  0.85535313449E+03  0.85535313449E+03  0.00000000000E+00 0. -1.
         21   -1    0    0  503  502  0.00000000000E+00 -0.00000000000E+00 -0.20808330839E+03  0.20808330839E+03  0.00000000000E+00 0.  1.
         21    1    1    2  503  501  0.24487340819E+02  0.22767809060E+02 -0.60538531072E+01  0.33980172561E+02  0.00000000000E+00 0.  1.
         21    1    1    2  504  502  0.95481659000E+02 -0.15358088016E+03 -0.10595755570E+03  0.20959684532E+03  0.00000000000E+00 0.  1.
         21    1    1    2  505  504  0.68569534698E+02 -0.45831982446E+01  0.10375352291E+03  0.12444910731E+03  0.00000000000E+00 0. -1.
          1    1    1    2  501    0 -0.18853853452E+03  0.13539626934E+03  0.65552771200E+03  0.69541031769E+03  0.00000000000E+00 0. -1.
<scales pt_clust_3="33.43655" pt_clust_4="14000.00000" pt_clust_5="69.99616" pt_clust_6="181.82051"></scales>
<clustering>
<clus scale="   33.437">  2  3  1 -1</clus>
<clus scale="   69.996">  1  5  2 -1</clus>
<clus scale="  181.821">  1  6  2 -1</clus>
<clus scale="   33.437">  2  3  1 -1</clus>
</clustering>
</event>
<event>
 6    0  0.1631680E+002  0.8839448E+02  0.7546771E-02  0.1306787E+00
          1   -1    0    0  503    0 -0.00000000000E+00  0.00000000000E+00  0.31479361438E+03  0.31479361438E+03  0.00000000000E+00 0. -1.
         21   -1    0    0  505  502  0.00000000000E+00 -0.00000000000E+00 -0.30330972168E+03  0.30330972168E+03  0.00000000000E+00 0. -1.
         21    1    1    2  503  502  0.49002885511E+01 -0.39701355528E+02 -0.23945393272E+03  0.24277231381E+03  0.00000000000E+00 0. -1.
         21    1    1    2  504  501 -0.12151517688E+02  0.80279468696E+02  0.83297665782E+02  0.11632262721E+03  0.00000000000E+00 0.  1.
         21    1    1    2  505  504 -0.21090966827E+02  0.48841912813E+02 -0.13617568505E+02  0.54916295404E+02  0.00000000000E+00 0.  1.
          1    1    1    2  501    0  0.28342195963E+02 -0.89420025982E+02  0.18125772815E+03  0.20409209963E+03  0.00000000000E+00 0. -1.
<scales pt_clust_3="40.00263" pt_clust_4="88.39448" pt_clust_5="32.64265" pt_clust_6="14000.00000"></scales>
<clustering>
<clus scale="   40.003">  2  3  1 -1</clus>
<clus scale="   32.643">  2  5  1 -1</clus>
<clus scale="   88.394">  2  4  1 -1</clus>
<clus scale="   40.003">  2  3  1 -1</clus>
</clustering>
</event>
<event>
 6    0  0.1631680E+002  0.1012783E+03  0.7546771E-02  0.1277631E+00
          2   -1    0    0  503    0 -0.00000000000E+00  0.00000000000E+00  0.96538952001E+03  0.96538952001E+03  0.00000000000E+00 0. -1.
         21   -1    0    0  504  502  0.00000000000E+00 -0.00000000000E+00 -0.72819276810E+03  0.72819276810E+03  0.00000000000E+00 0. -1.
         21    1    1    2  503  505 -0.38533632173E+02  0.56596576894E+02  0.74796080915E+01  0.68876395534E+02  0.00000000000E+00 0.  1.
         21    1    1    2  504  501 -0.30118157555E+02 -0.33866581711E+02 -0.36684091819E+03  0.36962996095E+03  0.00000000000E+00 0. -1.
         21    1    1    2  505  502 -0.16088402267E+02  0.38963797252E+02 -0.32492618041E+03  0.32764925896E+03  0.00000000000E+00 0. -1.
          2    1    1    2  501    0  0.84740191995E+02 -0.61693792435E+02  0.92148424241E+03  0.92742667267E+03  0.00000000000E+00 0. -1.
<scales pt_clust_3="101.27826" pt_clust_4="44.89619" pt_clust_5="42.15465" pt_clust_6="14000.00000"></scales>
<clustering>
<clus scale="   42.155">  2  5  1 -1</clus>
<clus scale="   44.896">  2  4  1 -1</clus>
<clus scale="  101.278">  2  3  1 -1</clus>
<clus scale="   42.155">  2  3  1 -1</clus>
</clustering>
</event>
<event>
 6    0  0.1631680E+002  0.1043907E+03  0.7546771E-02  0.1271325E+00
          1   -1    0    0  505    0 -0.00000000000E+00  0.00000000000E+00  0.40010394848E+03  0.40010394848E+03  0.00000000000E+00 0.  1.
         21   -1    0    0  503  502  0.00000000000E+00 -0.00000000000E+00 -0.14587592191E+03  0.14587592191E+03  0.00000000000E+00 0.  1.
         21    1    1    2  503  501  0.80805113726E+02 -0.59680275388E+02 -0.23541081317E+01  0.10048255321E+03  0.00000000000E+00 0.  1.
         21    1    1    2  504  502 -0.11034458669E+03  0.19185620916E+02 -0.51955715397E+02  0.12346421435E+03  0.00000000000E+00 0.  1.
         21    1    1    2  505  504 -0.92397371288E+01  0.34143163410E+02  0.54487724251E+02  0.64961838366E+02  0.00000000000E+00 0.  1.
          1    1    1    2  501    0  0.38779210092E+02  0.63514910616E+01  0.25405012585E+03  0.25707126447E+03  0.00000000000E+00 0.  1.
<scales pt_clust_3="104.39075" pt_clust_4="14000.00000" pt_clust_5="35.37129" pt_clust_6="45.13367"></scales>
<clustering>
<clus scale="   35.371">  1  5  2 -1</clus>
<clus scale="   45.134">  1  6  2 -1</clus>
<clus scale="  104.391">  1  3  2 -1</clus>
<clus scale="  104.391">  2  3  1 -1</clus>
</clustering>
</event>
<event>
 6    0  0.1631680E+002  0.9476610E+02  0.7546771E-02  0.1291704E+00
          1   -1    0    0  505    0 -0.00000000000E+00  0.00000000000E+00  0.25456992967E+04  0.25456992967E+04  0.00000000000E+00 0. -1.
         21   -1    0    0  504  502  0.00000000000E+00 -0.00000000000E+00 -0.35691242865E+02  0.35691242865E+02  0.00000000000E+00 0.  1.
         21    1    1    2  503  502  0.96107059611E+02  0.50031586042E+02  0.15543704459E+03  0.18947401230E+03  0.00000000000E+00 0.  1.
         21    1    1    2  504  501 -0.92831566993E+02  0.29383601924E+02  0.14157926066E+03  0.17183068103E+03  0.00000000000E+00 0.  1.
         21    1    1    2  505  503 -0.64753149287E+02  0.92584880535E+01  0.61908191517E+03  0.62252799747E+03  0.00000000000E+00 0.  1.
          1    1    1    2  501    0  0.61477656669E+02 -0.88673676019E+02  0.15939098334E+04  0.15975578487E+04  0.00000000000E+00 0. -1.
<scales pt_clust_3="14000.00000" pt_clust_4="94.76610" pt_clust_5="65.41170" pt_clust_6="81.37286"></scales>
<clustering>
<clus scale="   65.412">  1  5  2 -1</clus>
<clus scale="   81.373">  1  6  2 -1</clus>
<clus scale="   94.766">  2  4  1 -1</clus>
<clus scale="   94.766">  2  3  1 -1</clus>
</clustering>
</event>
<event>
 6    0  0.1631680E+002  0.8407959E+02  0.7546771E-02  0.1317857E+00
          2   -1    0    0  503    0 -0.00000000000E+00  0.00000000000E+00  0.13695460641E+03  0.13695460641E+03  0.00000000000E+00 0. -1.
         21   -1    0    0  501  502  0.00000000000E+00 -0.00000000000E+00 -0.96215734959E+03  0.96215734959E+03  0.00000000000E+00 0.  1.
         21    1    1    2  503  505 -0.12030299512E+03 -0.45662674892E+02  0.19457542432E+02  0.13014025692E+03  0.00000000000E+00 0. -1.
         21    1    1    2  504  502  0.13877807512E+02  0.35340038627E+02 -0.73275450464E+03  0.73373747072E+03  0.00000000000E+00 0.  1.
         21    1    1    2  505  504  0.67059342303E+02 -0.49761362820E+02 -0.13589651373E+03  0.15950238577E+03  0.00000000000E+00 0.  1.
          2    1    1    2  501    0  0.39365845309E+02  0.60083999086E+02  0.23990732767E+02  0.75731842588E+02  0.00000000000E+00 0. -1.
<scales pt_clust_3="14000.00000" pt_clust_4="37.96725" pt_clust_5="84.07959" pt_clust_6="76.03683"></scales>
<clustering>
<clus scale="   37.967">  2  4  1 -1</clus>
<clus scale="   76.037">  1  6  2 -1</clus>
<clus scale="   84.080">  2  5  1 -1</clus>
<clus scale="   37.967">  2  3  1 -1</clus>
</clustering>
</event>
<event>
 6    0  0.1631680E+002  0.7721220E+02  0.7546771E-02  0.1337154E+00
         21   -1    0    0  505  502  0.00000000000E+00  0.00000000000E+00  0.11525378029E+03  0.11525378029E+03  0.00000000000E+00 0.  1.
          2   -1    0    0  504    0 -0.00000000000E+00 -0.00000000000E+00 -0.24808177658E+04  0.24808177658E+04  0.00000000000E+00 0. -1.
         21    1    1    2  503  502  0.89054123008E+02  0.68884393657E+02 -0.22463129530E+03  0.25126662202E+03  0.00000000000E+00 0. -1.
         21    1    1    2  504  503  0.68671868782E+01  0.38347310463E+02 -0.35551234088E+03  0.35764046051E+03  0.00000000000E+00 0.  1.
         21    1    1    2  505  501 -0.72555812168E+02 -0.20968973612E+02  0.85517477603E+02  0.11409330703E+03  0.00000000000E+00 0.  1.
          2    1    1    2  501    0 -0.23365497718E+02 -0.86262730508E+02 -0.18709378269E+04  0.18730711565E+04  0.00000000000E+00 0. -1.
<scales pt_clust_3="14000.00000" pt_clust_4="38.95734" pt_clust_5="77.21220" pt_clust_6="55.25167"></scales>
<clustering>
<clus scale="   38.957">  2  4  1 -1</clus>
<clus scale="   55.252">  2  6  1 -1</clus>
<clus scale="   77.212">  1  5  2 -1</clus>
<clus scale="   77.212">  1  3  2 -1</clus>
</clustering>
</event>
<event>
 6    0  0.1631680E+002  0.3895592E+03  0.7546771E-02  0.1047456E+00
          1   -1    0    0  505    0 -0.00000000000E+00  0.00000000000E+00  0.43860623968E+03  0.43860623968E+03  0.00000000000E+00 0. -1.
         21   -1    0    0  503  502  0.00000000000E+00 -0.00000000000E+00 -0.20644553482E+04  0.20644553482E+04  0.00000000000E+00 0.  1.
         21    1    1    2  503  501  0.19286821793E+03  0.26647068715E+02 -0.26946205229E+03  0.33244249636E+03  0.00000000000E+00 0. -1.
         21    1    1    2  504  502  0.57335890054E+02 -0.36407394298E+03 -0.15974754480E+04  0.16394404677E+04  0.00000000000E+00 0.  1.
         21    1    1    2  505  504 -0.10232572801E+03  0.11438721236E+03 -0.23015527287E+02  0.15519247231E+03  0.00000000000E+00 0. -1.
          1    1    1    2  501    0 -0.14787837997E+03  0.22303966191E+03  0.26410391906E+03  0.37598615149E+03  0.00000000000E+00 0. -1.
<scales pt_clust_3="187.76386" pt_clust_4="14000.00000" pt_clust_5="153.47635" pt_clust_6="389.55918"></scales>
<clustering>
<clus scale="  153.476">  1  5  2 -1</clus>
<clus scale="  187.764">  2  3  1 -1</clus>
<clus scale="  389.559">  1  6  2 -1</clus>
<clus scale="  187.764">  2  3  1 -1</clus>
</clustering>
</event>
<event>
 6    0  0.1631680E+002  0.8659329E+02  0.7546771E-02  0.1311318E+00
          2   -1    0    0  504    0 -0.00000000000E+00  0.00000000000E+00  0.30165921818E+03  0.30165921818E+03  0.00000000000E+00 0.  1.
         21   -1    0    0  501  502  0.00000000000E+00 -0.00000000000E+00 -0.58171249826E+03  0.58171249826E+03  0.00000000000E+00 0. -1.
         21    1    1    2  503  502  0.11891056316E+02 -0.35872795323E+02 -0.22808145837E+03  0.23119127648E+03  0.00000000000E+00 0. -1.
         21    1    1    2  504  505  0.22847801482E+02  0.23345655461E+02  0.69164254968E+02  0.76490102802E+02  0.00000000000E+00 0. -1.
         21    1    1    2  505  503 -0.94573024633E+02  0.61134332976E+02 -0.33231697798E+03  0.35087894994E+03  0.00000000000E+00 0. -1.
          2    1    1    2  501    0  0.59834166836E+02 -0.48607193115E+02  0.21118090131E+03  0.22481138722E+03  0.00000000000E+00 0.  1.
<scales pt_clust_3="37.69105" pt_clust_4="32.66560" pt_clust_5="86.59329" pt_clust_6="14000.00000"></scales>
<clustering>
<clus scale="   32.666">  1  4  2 -1</clus>
<clus scale="   37.691">  2  3  1 -1</clus>
<clus scale="   86.593">  2  5  1 -1</clus>
<clus scale="   37.691">  2  3  1 -1</clus>
</clustering>
</event>
<event>
 6    0  0.1631680E+002  0.1535325E+03  0.7546771E-02  0.1196198E+00
         21   -1    0    0  503  502  0.00000000000E+00  0.00000000000E+00  0.80383238990E+03  0.80383238990E+03  0.00000000000E+00 0.  1.
          2   -1    0    0  505    0 -0.00000000000E+00 -0.00000000000E+00 -0.28977548210E+04  0.28977548210E+04  0.00000000000E+00 0. -1.
         21    1    1    2  503  504  0.62997444298E+02  0.41560887484E+02  0.53640343966E+03  0.54168684259E+03  0.00000000000E+00 0.  1.
         21    1    1    2  504  501  0.21800606343E+02  0.66657127231E+02  0.25501264940E+03  0.26448041591E+03  0.00000000000E+00 0.  1.
         21    1    1    2  505  502  0.60376753153E+02 -0.41395133258E+02 -0.12962033876E+04  0.12982688980E+04  0.00000000000E+00 0. -1.
          2    1    1    2  501    0 -0.14517480379E+03 -0.66822881458E+02 -0.15891351326E+04  0.15971510544E+04  0.00000000000E+00 0. -1.
<scales pt_clust_3="65.83568" pt_clust_4="65.83568" pt_clust_5="73.20457" pt_clust_6="137.50586"></scales>
<clustering>
<clus scale="   65.836">  3  4 -1 -1</clus>
<clus scale="   73.205">  2  5  1 -1</clus>
<clus scale="  137.506">  2  6  1 -1</clus>
<clus scale="  153.533">  1  3  2 -1</clus>
</clustering>
</event>
<event>
 6    0  0.1631680E+002  0.7930827E+02  0.7546771E-02  0.1331026E+00
         21   -1    0    0  504  502  0.00000000000E+00  0.00000000000E+00  0.24318613954E+02  0.24318613954E+02  0.00000000000E+00 0. -1.
          2   -1    0    0  505    0 -0.00000000000E+00 -0.00000000000E+00 -0.13763664042E+04  0.13763664042E+04  0.00000000000E+00 0. -1.
         21    1    1    2  503  502 -0.43459937884E+02 -0.55770533996E+02 -0.31079808508E+03  0.31873902860E+03  0.00000000000E+00 0. -1.
         21    1    1    2  504  501  0.44650054826E+02 -0.41215980766E+02 -0.12286949650E+03  0.13707405895E+03  0.00000000000E+00 0. -1.
         21    1    1    2  505  503  0.26851725972E+02 -0.19803710438E+02 -0.64982729530E+03  0.65068326846E+03  0.00000000000E+00 0. -1.
          2    1    1    2  501    0 -0.28041842914E+02  0.11679022520E+03 -0.26855291332E+03  0.29418866210E+03  0.00000000000E+00 0. -1.
<scales pt_clust_3="14000.00000" pt_clust_4="66.70433" pt_clust_5="33.36468" pt_clust_6="79.30827"></scales>
<clustering>
<clus scale="   33.365">  2  5  1 -1</clus>
<clus scale="   66.704">  1  4  2 -1</clus>
<clus scale="   79.308">  1  6  2 -1</clus>
<clus scale="   66.704">  1  3  2 -1</clus>
</clustering>
</event>
<event>
 6    0  0.1631680E+002  0.1165603E+03  0.7546771E-02  0.1248882E+00
         -2   -1    0    0    0  501 -0.00000000000E+00  0.00000000000E+00  0.20145633682E+03  0.20145633682E+03  0.00000000000E+00 0.  1.
         21   -1    0    0  503  502  0.00000000000E+00 -0.00000000000E+00 -0.34551457750E+03  0.34551457750E+03  0.00000000000E+00 0.  1.
         21    1    1    2  503  501 -0.19662076618E+02  0.63355379609E+02 -0.92937826561E+01  0.66984145724E+02  0.00000000000E+00 0.  1.
         21    1    1    2  504  502 -0.73665933051E+02  0.13161896557E+02 -0.16382265233E+03  0.18010487676E+03  0.00000000000E+00 0. -1.
         21    1    1    2  505  504  0.23942890901E+02 -0.13884661563E+03 -0.75433739837E+02  0.15981831497E+03  0.00000000000E+00 0.  1.
         -2    1    1    2    0  505  0.69385118768E+02  0.62329339460E+02  0.10449193415E+03  0.14006357687E+03  0.00000000000E+00 0.  1.
<scales pt_clust_3="66.33628" pt_clust_4="76.32156" pt_clust_5="14000.00000" pt_clust_6="116.56026"></scales>
<clustering>
<clus scale="   66.336">  1  3  2 -1</clus>
<clus scale="   76.322">  2  4  1 -1</clus>
<clus scale="  116.560">  1  6  2 -1</clus>
<clus scale="   76.322">  2  3  1 -1</clus>
</clustering>
</event>
<event>
 6    0  0.1631680E+002  0.3032631E+03  0.7546771E-02  0.1083621E+00
          2   -1    0    0  503    0 -0.00000000000E+00  0.00000000000E+00  0.17883234530E+04  0.17883234530E+04  0.00000000000E+00 0.  1.
         21   -1    0    0  504  502  0.00000000000E+00 -0.00000000000E+00 -0.51945228485E+03  0.51945228485E+03  0.00000000000E+00 0.  1.
         21    1    1    2  503  505 -0.77148166896E+01  0.39164809077E+02  0.16483592825E+03  0.16960036529E+03  0.00000000000E+00 0. -1.
         21    1    1    2  504  501 -0.11127086658E+03 -0.17662632723E+03 -0.40348187629E+03  0.45428591186E+03  0.00000000000E+00 0.  1.
         21    1    1    2  505  502 -0.17162290196E+03  0.50848190919E+02  0.37450659230E+02  0.18287293642E+03  0.00000000000E+00 0.  1.
          2    1    1    2  501    0  0.29060858523E+03  0.86613327229E+02  0.14700664570E+04  0.15010165243E+04  0.00000000000E+00 0.  1.
<scales pt_clust_3="39.91742" pt_clust_4="14000.00000" pt_clust_5="180.27181" pt_clust_6="303.26315"></scales>
<clustering>
<clus scale="   39.917">  1  3  2 -1</clus>
<clus scale="  180.272">  2  5  1 -1</clus>
<clus scale="  303.263">  1  6  2 -1</clus>
<clus scale="  180.272">  2  3  1 -1</clus>
</clustering>
</event>
<event>
 6    0  0.1631680E+002  0.1314412E+03  0.7546771E-02  0.1225333E+00
          2   -1    0    0  502    0 -0.00000000000E+00  0.00000000000E+00  0.17567452022E+04  0.17567452022E+04  0.00000000000E+00 0.  1.
         21   -1    0    0  504  502  0.00000000000E+00 -0.00000000000E+00 -0.23990874456E+02  0.23990874456E+02  0.00000000000E+00 0. -1.
         21    1    1    2  503  505 -0.78149702600E+02  0.38356453168E+02  0.21120256242E+03  0.22844061786E+03  0.00000000000E+00 0. -1.
         21    1    1    2  504  503 -0.28411848485E+02  0.38075446538E+02  0.35341407320E+02  0.59211382645E+02  0.00000000000E+00 0. -1.
         21    1    1    2  505  501  0.58242339061E+02 -0.23686703752E+02  0.44505510798E+03  0.44947444770E+03  0.00000000000E+00 0.  1.
          2    1    1    2  501    0  0.48319212024E+02 -0.52745195954E+02  0.10411552500E+04  0.10436096284E+04  0.00000000000E+00 0.  1.
<scales pt_clust_3="118.30116" pt_clust_4="47.50761" pt_clust_5="52.29553" pt_clust_6="52.29553"></scales>
<clustering>
<clus scale="   47.508">  2  4  1 -1</clus>
<clus scale="   52.296">  5  6 -1 -1</clus>
<clus scale="  118.301">  2  3  1 -1</clus>
<clus scale="   47.508">  2  3  1 -1</clus>
</clustering>
</event>
<event>
 6    0  0.1631680E+002  0.1086058E+03  0.7546771E-02  0.1263174E+00
         21   -1    0    0  501  502  0.00000000000E+00  0.00000000000E+00  0.15258742991E+04  0.15258742991E+04  0.00000000000E+00 0. -1.
          1   -1    0    0  505    0 -0.00000000000E+00 -0.00000000000E+00 -0.61984575175E+02  0.61984575175E+02  0.00000000000E+00 0. -1.
         21    1    1    2  503  504  0.10034781205E+03  0.55837343447E+02  0.44244282066E+03  0.45710298824E+03  0.00000000000E+00 0. -1.
         21    1    1    2  504  502 -0.11179206470E+03  0.14012068982E+02  0.10242419424E+04  0.10304199922E+04  0.00000000000E+00 0. -1.
         21    1    1    2  505  503 -0.24311655852E+02 -0.46573790858E+02 -0.17238308597E+02  0.55293163125E+02  0.00000000000E+00 0. -1.
          1    1    1    2  501    0  0.35755908496E+02 -0.23275621571E+02  0.14443269419E+02  0.45042730639E+02  0.00000000000E+00 0. -1.
<scales pt_clust_3="14000.00000" pt_clust_4="108.60576" pt_clust_5="64.74751" pt_clust_6="42.66427"></scales>
<clustering>
<clus scale="   42.664">  2  6  1 -1</clus>
<clus scale="   64.748">  2  5  1 -1</clus>
<clus scale="  108.606">  1  4  2 -1</clus>
<clus scale="  108.606">  1  3  2 -1</clus>
</clustering>
</event>
<event>
 6    0  0.1631680E+002  0.1616247E+03  0.7546771E-02  0.1186875E+00
         21   -1    0    0  505  502  0.00000000000E+00  0.00000000000E+00  0.24074099420E+02  0.24074099420E+02  0.00000000000E+00 0.  1.
          2   -1    0    0  503    0 -0.00000000000E+00 -0.00000000000E+00 -0.31542318917E+04  0.31542318917E+04  0.00000000000E+00 0. -1.
         21    1    1    2  503  504  0.10022904402E+03  0.14202904405E+02 -0.98979733067E+03  0.99496047135E+03  0.00000000000E+00 0. -1.
         21    1    1    2  504  502 -0.13013436049E+03  0.11855549315E+03 -0.54292039071E+03  0.57074767401E+03  0.00000000000E+00 0.  1.
         21    1    1    2  505  501 -0.23630300936E+02 -0.18871400812E+02 -0.40318500299E+02  0.50399428145E+02  0.00000000000E+00 0. -1.
          2    1    1    2  501    0  0.53535617409E+02 -0.11388699674E+03 -0.15571215706E+04  0.15621984177E+04  0.00000000000E+00 0. -1.
<scales pt_clust_3="97.72015" pt_clust_4="14000.00000" pt_clust_5="30.24105" pt_clust_6="161.62475"></scales>
<clustering>
<clus scale="   30.241">  1  5  2 -1</clus>
<clus scale="   97.720">  2  3  1 -1</clus>
<clus scale="  161.625">  2  6  1 -1</clus>
<clus scale="   30.241">  1  3  2 -1</clus>
</clustering>
</event>
<event>
 6    0  0.1631680E+002  0.1131367E+03  0.7546771E-02  0.1254869E+00
          4   -1    0    0  504    0 -0.00000000000E+00  0.00000000000E+00  0.22737498490E+03  0.22737498490E+03  0.00000000000E+00 0. -1.
         21   -1    0    0  505  502  0.00000000000E+00 -0.00000000000E+00 -0.11727874453E+04  0.11727874453E+04  0.00000000000E+00 0. -1.
         21    1    1    2  503  502  0.10225557700E+03 -0.99131592630E+02 -0.10165635302E+04  0.10264914449E+04  0.00000000000E+00 0. -1.
         21    1    1    2  504  503  0.28246617266E+02  0.11873858426E+02  0.59820525036E+01  0.31219302572E+02  0.00000000000E+00 0. -1.
         21    1    1    2  505  501 -0.44616543498E+02  0.28352292689E+01 -0.11633409099E+03  0.12462862915E+03  0.00000000000E+00 0. -1.
          4    1    1    2  501    0 -0.85885650772E+02  0.84422504936E+02  0.18150310824E+03  0.21782305353E+03  0.00000000000E+00 0. -1.
<scales pt_clust_3="14000.00000" pt_clust_4="30.64082" pt_clust_5="44.16234" pt_clust_6="113.13673"></scales>
<clustering>
<clus scale="   30.641">  1  4  2 -1</clus>
<clus scale="   44.162">  2  5  1 -1</clus>
<clus scale="  113.137">  1  6  2 -1</clus>
<clus scale="   44.162">  2  3  1 -1</clus>
</clustering>
</event>
<event>
 6    0  0.1631680E+002  0.1240012E+03  0.7546771E-02  0.1236639E+00
         21   -1    0    0  505  502  0.00000000000E+00  0.00000000000E+00  0.26605654196E+03  0.26605654196E+03  0.00000000000E+00 0. -1.
          2   -1    0    0  503    0 -0.00000000000E+00 -0.00000000000E+00 -0.17084049239E+04  0.17084049239E+04  0.00000000000E+00 0. -1.
         21    1    1    2  503  504 -0.39821743214E+02  0.14994713114E+02 -0.24056599634E+03  0.24430024815E+03  0.00000000000E+00 0. -1.
         21    1    1    2  504  502  0.64550492008E+02  0.10751070936E+03  0.20813669373E+03  0.24299424257E+03  0.00000000000E+00 0. -1.
         21    1    1    2  505  501 -0.37793933597E+02  0.13557394323E+02  0.23979884342E+02  0.46767715474E+02  0.00000000000E+00 0. -1.
          2    1    1    2  501    0  0.13065184803E+02 -0.13606281679E+03 -0.14338989637E+04  0.14403992597E+04  0.00000000000E+00 0. -1.
<scales pt_clust_3="42.87624" pt_clust_4="14000.00000" pt_clust_5="40.15202" pt_clust_6="124.00118"></scales>
<clustering>
<clus scale="   40.152">  1  5  2 -1</clus>
<clus scale="   42.876">  2  3  1 -1</clus>
<clus scale="  124.001">  2  6  1 -1</clus>
<clus scale="   40.152">  1  3  2 -1</clus>
</clustering>
</event>
<event>
 6    0  0.1631680E+002  0.9528364E+02  0.7546771E-02  0.1290539E+00
         21   -1    0    0  504  502  0.00000000000E+00  0.00000000000E+00  0.19975179608E+03  0.19975179608E+03  0.00000000000E+00 0.  1.
          1   -1    0    0  503    0 -0.00000000000E+00 -0.00000000000E+00 -0.39790478137E+03  0.39790478137E+03  0.00000000000E+00 0.  1.
         21    1    1    2  503  505 -0.26428190163E+02 -0.42226887199E+02 -0.44125421281E+02  0.66547817703E+02  0.00000000000E+00 0.  1.
         21    1    1    2  504  501  0.16606840393E+01 -0.83956256439E+02  0.24656334791E+02  0.87517687995E+02  0.00000000000E+00 0.  1.
         21    1    1    2  505  502 -0.25931074851E+02  0.41718565588E+02  0.11968875270E+03  0.12937641548E+03  0.00000000000E+00 0.  1.
          1    1    1    2  501    0  0.50698580975E+02  0.84464578050E+02 -0.29837265150E+03  0.31421465628E+03  0.00000000000E+00 0.  1.
<scales pt_clust_3="47.05648" pt_clust_4="14000.00000" pt_clust_5="49.12086" pt_clust_6="95.28364"></scales>
<clustering>
<clus scale="   49.121">  1  5  2 -1</clus>
<clus scale="   47.056">  1  3  2 -1</clus>
<clus scale="   95.284">  2  6  1 -1</clus>
<clus scale="   49.121">  1  3  2 -1</clus>
</clustering>
</event>
<event>
 6    0  0.1631680E+002  0.2666991E+03  0.7546771E-02  0.1103184E+00
         21   -1    0    0  505  502  0.00000000000E+00  0.00000000000E+00  0.20297671389E+03  0.20297671389E+03  0.00000000000E+00 0. -1.
          2   -1    0    0  504    0 -0.00000000000E+00 -0.00000000000E+00 -0.93198749139E+03  0.93198749139E+03  0.00000000000E+00 0.  1.
         21    1    1    2  503  501  0.60096861782E+02  0.88978268277E+01  0.69358415161E+02  0.92203003595E+02  0.00000000000E+00 0. -1.
         21    1    1    2  504  502  0.17000255795E+03 -0.12434922998E+03 -0.17547711669E+03  0.27414561676E+03  0.00000000000E+00 0. -1.
         21    1    1    2  505  503  0.46929295724E+02 -0.19213936455E+02  0.20963161578E+02  0.54872473013E+02  0.00000000000E+00 0. -1.
          2    1    1    2  501    0 -0.27702871546E+03  0.13466533960E+03 -0.64385523755E+03  0.71374311191E+03  0.00000000000E+00 0.  1.
<scales pt_clust_3="116.07415" pt_clust_4="266.69907" pt_clust_5="39.95150" pt_clust_6="14000.00000"></scales>
<clustering>
<clus scale="   39.952">  3  5 -1 -1</clus>
<clus scale="  116.074">  1  3  2 -1</clus>
<clus scale="  266.699">  1  4  2 -1</clus>
<clus scale="  116.074">  1  3  2 -1</clus>
</clustering>
</event>
<event>
 6    0  0.1631680E+002  0.1360802E+03  0.7546771E-02  0.1218703E+00
         21   -1    0    0  505  502  0.00000000000E+00  0.00000000000E+00  0.98595416123E+02  0.98595416123E+02  0.00000000000E+00 0.  1.
          2   -1    0    0  504    0 -0.00000000000E+00 -0.00000000000E+00 -0.18410486196E+04  0.18410486196E+04  0.00000000000E+00 0.  1.
         21    1    1    2  503  502  0.72401189630E+02  0.19645531419E+02  0.64238723993E+02  0.98764835973E+02  0.00000000000E+00 0.  1.
         21    1    1    2  504  503 -0.51368190923E+01 -0.16145271202E+03 -0.85365419673E+03  0.86880311505E+03  0.00000000000E+00 0.  1.
         21    1    1    2  505  501 -0.25190034739E+02  0.23856171125E+02 -0.52854934060E+02  0.63224194778E+02  0.00000000000E+00 0. -1.
          2    1    1    2  501    0 -0.42074335798E+02  0.11795100948E+03 -0.90018279667E+03  0.90885188991E+03  0.00000000000E+00 0.  1.
<scales pt_clust_3="64.64887" pt_clust_4="14000.00000" pt_clust_5="34.69373" pt_clust_6="136.08020"></scales>
<clustering>
<clus scale="   34.694">  1  5  2 -1</clus>
<clus scale="   64.649">  1  3  2 -1</clus>
<clus scale="  136.080">  2  6  1 -1</clus>
<clus scale="   34.694">  1  3  2 -1</clus>
</clustering>
</event>
<event>
 6    0  0.1631680E+002  0.1081446E+03  0.7546771E-02  0.1264045E+00
         21   -1    0    0  503  502  0.00000000000E+00  0.00000000000E+00  0.38306977556E+03  0.38306977556E+03  0.00000000000E+00 0.  1.
         -4   -1    0    0    0  501 -0.00000000000E+00 -0.00000000000E+00 -0.22588271964E+03  0.22588271964E+03  0.00000000000E+00 0.  1.
         21    1    1    2  503  505  0.20563919959E+01  0.53887240159E+02  0.19980721168E+03  0.20695648151E+03  0.00000000000E+00 0.  1.
         21    1    1    2  504  502  0.18426057337E+02 -0.66667223730E+02  0.11114649316E+03  0.13091058494E+03  0.00000000000E+00 0.  1.
         21    1    1    2  505  501 -0.91856162745E+02  0.81335462967E+02 -0.68888283992E+02  0.14070752589E+03  0.00000000000E+00 0.  1.
         -4    1    1    2    0  504  0.71373713413E+02 -0.68555479397E+02 -0.84878364921E+02  0.13037790286E+03  0.00000000000E+00 0.  1.
<scales pt_clust_3="53.92646" pt_clust_4="36.26172" pt_clust_5="14000.00000" pt_clust_6="108.14458"></scales>
<clustering>
<clus scale="   53.926">  1  3  2 -1</clus>
<clus scale="   36.262">  1  4  2 -1</clus>
<clus scale="  108.145">  2  6  1 -1</clus>
<clus scale="   53.926">  1  3  2 -1</clus>
</clustering>
</event>
<event>
 6    0  0.1631680E+002  0.1365327E+03  0.7546771E-02  0.1218072E+00
          3   -1    0    0  503    0 -0.00000000000E+00  0.00000000000E+00  0.78539242993E+03  0.78539242993E+03  0.00000000000E+00 0. -1.
         21   -1    0    0  504  502  0.00000000000E+00 -0.00000000000E+00 -0.17420124537E+03  0.17420124537E+03  0.00000000000E+00 0. -1.
         21    1    1    2  503  502 -0.10110806767E+03  0.10737363352E+02 -0.54320848086E+02  0.11527743429E+03  0.00000000000E+00 0. -1.
         21    1    1    2  504  505  0.32797221392E+02 -0.73249132115E+02 -0.34961046303E+02  0.87540663952E+02  0.00000000000E+00 0. -1.
         21    1    1    2  505  501  0.89577224825E+00 -0.50723901879E+02  0.73808985907E+01  0.51265917467E+02  0.00000000000E+00 0. -1.
          3    1    1    2  501    0  0.67415074031E+02  0.11323567064E+03  0.69309218036E+03  0.70550965960E+03  0.00000000000E+00 0. -1.
<scales pt_clust_3="101.67661" pt_clust_4="35.57460" pt_clust_5="35.57460" pt_clust_6="128.99267"></scales>
<clustering>
<clus scale="   35.575">  4  5 -1 -1</clus>
<clus scale="  101.677">  2  3  1 -1</clus>
<clus scale="  128.993">  1  6  2 -1</clus>
<clus scale="  101.677">  2  3  1 -1</clus>
</clustering>
</event>
<event>
 6    0  0.1631680E+002  0.1793699E+03  0.7546771E-02  0.1168414E+00
         -2   -1    0    0    0  501 -0.00000000000E+00  0.00000000000E+00  0.76866717180E+03  0.76866717180E+03  0.00000000000E+00 0.  1.
         21   -1    0    0  505  502  0.00000000000E+00 -0.00000000000E+00 -0.26695040702E+04  0.26695040702E+04  0.00000000000E+00 0. -1.
         21    1    1    2  503  502  0.75791005819E+02 -0.61709882805E+02 -0.19709831387E+04  0.19734049051E+04  0.00000000000E+00 0. -1.
         21    1    1    2  504  503 -0.10620034049E+03  0.23453029933E+03 -0.64310827528E+03  0.69272738314E+03  0.00000000000E+00 0. -1.
         21    1    1    2  505  501  0.69151411505E+02  0.38754258440E+02  0.22318841507E+03  0.23684779687E+03  0.00000000000E+00 0.  1.
         -2    1    1    2    0  504 -0.38742076832E+02 -0.21157467496E+03  0.49006610051E+03  0.53519115694E+03  0.00000000000E+00 0.  1.
<scales pt_clust_3="97.80199" pt_clust_4="14000.00000" pt_clust_5="79.27049" pt_clust_6="179.36991"></scales>
<clustering>
<clus scale="   79.270">  1  5  2 -1</clus>
<clus scale="   97.802">  2  3  1 -1</clus>
<clus scale="  179.370">  1  6  2 -1</clus>
<clus scale="   97.802">  2  3  1 -1</clus>
</clustering>
</event>
<event>
 6    0  0.1631680E+002  0.1247557E+03  0.7546771E-02  0.1235452E+00
         21   -1    0    0  503  502  0.00000000000E+00  0.00000000000E+00  0.27144649650E+03  0.27144649650E+03  0.00000000000E+00 0. -1.
          1   -1    0    0  505    0 -0.00000000000E+00 -0.00000000000E+00 -0.16101216673E+04  0.16101216673E+04  0.00000000000E+00 0.  1.
         21    1    1    2  503  504  0.29215993656E+02 -0.13577209728E+02 -0.30088634959E+02  0.44082205741E+02  0.00000000000E+00 0.  1.
         21    1    1    2  504  501  0.54137916611E+01  0.48049189306E+02  0.25562594013E+00  0.48353894132E+02  0.00000000000E+00 0. -1.
         21    1    1    2  505  502 -0.12229336254E+02  0.88687617180E+02  0.22916875152E+03  0.24603529580E+03  0.00000000000E+00 0. -1.
          1    1    1    2  501    0 -0.22400449063E+02 -0.12315959676E+03 -0.15380109133E+04  0.15430967681E+04  0.00000000000E+00 0.  1.
<scales pt_clust_3="32.21669" pt_clust_4="47.49694" pt_clust_5="124.75573" pt_clust_6="14000.00000"></scales>
<clustering>
<clus scale="   32.217">  1  3  2 -1</clus>
<clus scale="   47.497">  1  4  2 -1</clus>
<clus scale="  124.756">  1  5  2 -1</clus>
<clus scale="   32.217">  1  3  2 -1</clus>
</clustering>
</event>
<event>
 6    0  0.1631680E+002  0.1142416E+03  0.7546771E-02  0.1252911E+00
          2   -1    0    0  504    0 -0.00000000000E+00  0.00000000000E+00  0.43121111957E+04  0.43121111957E+04  0.00000000000E+00 0.  1.
         21   -1    0    0  503  502  0.00000000000E+00 -0.00000000000E+00 -0.21493721521E+03  0.21493721521E+03  0.00000000000E+00 0.  1.
         21    1    1    2  503  505  0.33964546046E+02 -0.16268463220E+02 -0.31456495446E+02  0.49068975834E+02  0.00000000000E+00 0.  1.
         21    1    1    2  504  502 -0.56029511016E+02 -0.29800697429E+02 -0.15915314879E+03  0.17133917369E+03  0.00000000000E+00 0.  1.
         21    1    1    2  505  501 -0.75254153725E+02 -0.21022220420E+02  0.16930056657E+03  0.18646126473E+03  0.00000000000E+00 0.  1.
          2    1    1    2  501    0  0.97319118695E+02  0.67091381069E+02  0.41184830581E+04  0.41201789967E+04  0.00000000000E+00 0.  1.
<scales pt_clust_3="37.65970" pt_clust_4="51.12100" pt_clust_5="14000.00000" pt_clust_6="114.24159"></scales>
<clustering>
<clus scale="   37.660">  2  3  1 -1</clus>
<clus scale="   51.121">  2  4  1 -1</clus>
<clus scale="  114.242">  1  6  2 -1</clus>
<clus scale="   37.660">  2  3  1 -1</clus>
</clustering>
</event>
<event>
 6    0  0.1631680E+002  0.9439051E+02  0.7546771E-02  0.1292555E+00
         21   -1    0    0  503  502  0.00000000000E+00  0.00000000000E+00  0.27212698680E+03  0.27212698680E+03  0.00000000000E+00 0.  1.
         -1   -1    0    0    0  501 -0.00000000000E+00 -0.00000000000E+00 -0.33855424542E+03  0.33855424542E+03  0.00000000000E+00 0. -1.
         21    1    1    2  503  501 -0.44077148243E+02  0.11862171889E+03  0.15651140497E+03  0.20127028363E+03  0.00000000000E+00 0.  1.
         21    1    1    2  504  502  0.60061960623E+01 -0.31215235297E+02  0.71323574924E+02  0.78086603497E+02  0.00000000000E+00 0. -1.
         21    1    1    2  505  504  0.56451027239E+02 -0.52234447365E+02 -0.71357472136E+02  0.10491446420E+03  0.00000000000E+00 0.  1.
         -1    1    1    2    0  505 -0.18380075058E+02 -0.35172036223E+02 -0.22290476638E+03  0.22640988089E+03  0.00000000000E+00 0. -1.
<scales pt_clust_3="94.39051" pt_clust_4="31.78782" pt_clust_5="14000.00000" pt_clust_6="39.90629"></scales>
<clustering>
<clus scale="   31.788">  1  4  2 -1</clus>
<clus scale="   39.906">  2  6  1 -1</clus>
<clus scale="   94.391">  1  3  2 -1</clus>
<clus scale="   31.788">  1  3  2 -1</clus>
</clustering>
</event>
<event>
 6    0  0.1631680E+002  0.8086191E+02  0.7546771E-02  0.1326623E+00
         21   -1    0    0  505  502  0.00000000000E+00  0.00000000000E+00  0.56271839434E+03  0.56271839434E+03  0.00000000000E+00 0. -1.
          1   -1    0    0  504    0 -0.00000000000E+00 -0.00000000000E+00 -0.97522901416E+03  0.97522901416E+03  0.00000000000E+00 0. -1.
         21    1    1    2  503  501  0.11986839434E+02 -0.76083330501E+02  0.28921038045E+03  0.29929083123E+03  0.00000000000E+00 0. -1.
         21    1    1    2  504  502  0.77869501238E+01 -0.29808025651E+02 -0.28942429669E+03  0.29105940717E+03  0.00000000000E+00 0. -1.
         21    1    1    2  505  503 -0.47094639901E+02  0.32835872840E+01  0.26137726736E+03  0.26560640607E+03  0.00000000000E+00 0. -1.
          1    1    1    2  501    0  0.27320850343E+02  0.10260776887E+03 -0.67367397094E+03  0.68199076403E+03  0.00000000000E+00 0. -1.
<scales pt_clust_3="80.86191" pt_clust_4="30.80836" pt_clust_5="47.17868" pt_clust_6="14000.00000"></scales>
<clustering>
<clus scale="   30.808">  2  4  1 -1</clus>
<clus scale="   47.179">  1  5  2 -1</clus>
<clus scale="   80.862">  1  3  2 -1</clus>
<clus scale="   47.179">  1  3  2 -1</clus>
</clustering>
</event>
<event>
 6    0  0.1631680E+002  0.1078347E+03  0.7546771E-02  0.1264633E+00
         -2   -1    0    0    0  501 -0.00000000000E+00  0.00000000000E+00  0.61769865493E+02  0.61769865493E+02  0.00000000000E+00 0.  1.
         21   -1    0    0  503  502  0.00000000000E+00 -0.00000000000E+00 -0.22450433384E+04  0.22450433384E+04  0.00000000000E+00 0. -1.
         21    1    1    2  503  505 -0.14792841256E+03 -0.13392333876E+03 -0.17852304997E+04  0.17963480211E+04  0.00000000000E+00 0. -1.
         21    1    1    2  504  502  0.73763863061E+02  0.51703087005E+02 -0.32521886871E+03  0.33746352287E+03  0.00000000000E+00 0. -1.
         21    1    1    2  505  501  0.63175018016E+02  0.49661309033E+01 -0.70696629666E+02  0.94940817373E+02  0.00000000000E+00 0. -1.
         -2    1    1    2    0  504  0.10989531486E+02  0.77254120850E+02 -0.21274748434E+01  0.78060842551E+02  0.00000000000E+00 0.  1.
<scales pt_clust_3="14000.00000" pt_clust_4="96.89177" pt_clust_5="63.36991" pt_clust_6="107.83475"></scales>
<clustering>
<clus scale="   63.370">  1  5  2 -1</clus>
<clus scale="   96.892">  2  4  1 -1</clus>
<clus scale="  107.835">  1  6  2 -1</clus>
<clus scale="   96.892">  2  3  1 -1</clus>
</clustering>
</event>
<event>
 6    0  0.1631680E+002  0.1538141E+03  0.7546771E-02  0.1195863E+00
         21   -1    0    0  505  502  0.00000000000E+00  0.00000000000E+00  0.51222499653E+03  0.51222499653E+03  0.00000000000E+00 0.  1.
          2   -1    0    0  504    0 -0.00000000000E+00 -0.00000000000E+00 -0.82856893315E+03  0.82856893315E+03  0.00000000000E+00 0. -1.
         21    1    1    2  503  502 -0.16218280398E+03  0.63401139895E+02  0.41830530047E+03  0.45310295833E+03  0.00000000000E+00 0.  1.
         21    1    1    2  504  503  0.14556494327E+02  0.53408951211E+02 -0.43674112987E+03  0.44023541670E+03  0.00000000000E+00 0.  1.
         21    1    1    2  505  501  0.28827863049E+02  0.99882812857E+01  0.49998964271E+02  0.58572244956E+02  0.00000000000E+00 0. -1.
          2    1    1    2  501    0  0.11879844661E+03 -0.12679837239E+03 -0.34790707151E+03  0.38888330970E+03  0.00000000000E+00 0. -1.
<scales pt_clust_3="14000.00000" pt_clust_4="55.42286" pt_clust_5="30.50920" pt_clust_6="153.81408"></scales>
<clustering>
<clus scale="   30.509">  1  5  2 -1</clus>
<clus scale="   55.423">  2  4  1 -1</clus>
<clus scale="  153.814">  2  6  1 -1</clus>
<clus scale="   30.509">  1  3  2 -1</clus>
</clustering>
</event>
<event>
 6    0  0.1631680E+002  0.7542610E+02  0.7546771E-02  0.1342557E+00
         21   -1    0    0  505  502  0.00000000000E+00  0.00000000000E+00  0.37921717746E+03  0.37921717746E+03  0.00000000000E+00 0. -1.
         -2   -1    0    0    0  501 -0.00000000000E+00 -0.00000000000E+00 -0.88147232635E+03  0.88147232635E+03  0.00000000000E+00 0.  1.
         21    1    1    2  503  501 -0.65454340211E+01 -0.38445743883E+02 -0.23283550399E+03  0.23607899070E+03  0.00000000000E+00 0.  1.
         21    1    1    2  504  503 -0.41100106255E+02 -0.79668783834E+02 -0.12978699609E+03  0.15773711740E+03  0.00000000000E+00 0.  1.
         21    1    1    2  505  504 -0.59605211002E+01  0.75158967162E+02  0.35732400681E+03  0.36519151687E+03  0.00000000000E+00 0. -1.
         -2    1    1    2    0  502  0.53606061376E+02  0.42955560555E+02 -0.49695665562E+03  0.50168187884E+03  0.00000000000E+00 0.  1.
<scales pt_clust_3="38.99895" pt_clust_4="14000.00000" pt_clust_5="75.42610" pt_clust_6="50.33966"></scales>
<clustering>
<clus scale="   38.999">  2  3  1 -1</clus>
<clus scale="   50.340">  2  6  1 -1</clus>
<clus scale="   75.426">  1  5  2 -1</clus>
<clus scale="   75.426">  1  3  2 -1</clus>
</clustering>
</event>
<event>
 6    0  0.1631680E+002  0.7659493E+02  0.7546771E-02  0.1339002E+00
         21   -1    0    0  504  502  0.00000000000E+00  0.00000000000E+00  0.10718600427E+03  0.10718600427E+03  0.00000000000E+00 0.  1.
         -1   -1    0    0    0  501 -0.00000000000E+00 -0.00000000000E+00 -0.73621168016E+03  0.73621168016E+03  0.00000000000E+00 0. -1.
         21    1    1    2  503  505  0.74499029779E+02 -0.12141196502E+02  0.44388658369E+02  0.87566358165E+02  0.00000000000E+00 0.  1.
         21    1    1    2  504  501  0.19667849646E+01  0.91780125700E+02 -0.22916839112E+03  0.24687164925E+03  0.00000000000E+00 0. -1.
         21    1    1    2  505  502 -0.16838490819E+02 -0.27754185856E+02  0.19936472247E+02  0.38095833516E+02  0.00000000000E+00 0.  1.
         -1    1    1    2    0  503 -0.59627323924E+02 -0.51884743343E+02 -0.46418241539E+03  0.47086384350E+03  0.00000000000E+00 0. -1.
<scales pt_clust_3="69.99631" pt_clust_4="14000.00000" pt_clust_5="32.46274" pt_clust_6="76.59493"></scales>
<clustering>
<clus scale="   32.463">  1  5  2 -1</clus>
<clus scale="   69.996">  1  3  2 -1</clus>
<clus scale="   76.595">  2  6  1 -1</clus>
<clus scale="   32.463">  1  3  2 -1</clus>
</clustering>
</event>
<event>
 6    0  0.1631680E+002  0.9546732E+02  0.7546771E-02  0.1290127E+00
          2   -1    0    0  505    0 -0.00000000000E+00  0.00000000000E+00  0.13414044856E+04  0.13414044856E+04  0.00000000000E+00 0.  1.
         21   -1    0    0  503  502  0.00000000000E+00 -0.00000000000E+00 -0.37113737920E+03  0.37113737920E+03  0.00000000000E+00 0. -1.
         21    1    1    2  503  501 -0.27579101882E+02 -0.57687479749E+02 -0.25494486012E+02  0.68836189592E+02  0.00000000000E+00 0. -1.
         21    1    1    2  504  502  0.49792904828E+02 -0.38857448657E+02 -0.31524322625E+03  0.32150820578E+03  0.00000000000E+00 0. -1.
         21    1    1    2  505  504  0.23060548571E+02 -0.21310946547E+02  0.10478952852E+03  0.10939282715E+03  0.00000000000E+00 0.  1.
          2    1    1    2  501    0 -0.45274351517E+02  0.11785587495E+03  0.12062152901E+04  0.12128046422E+04  0.00000000000E+00 0.  1.
<scales pt_clust_3="95.46732" pt_clust_4="63.23980" pt_clust_5="31.39977" pt_clust_6="14000.00000"></scales>
<clustering>
<clus scale="   31.400">  1  5  2 -1</clus>
<clus scale="   63.240">  2  4  1 -1</clus>
<clus scale="   95.467">  2  3  1 -1</clus>
<clus scale="   63.240">  2  3  1 -1</clus>
</clustering>
</event>
<event>
 6    0  0.1631680E+002  0.1147685E+03  0.7546771E-02  0.1251986E+00
         21   -1    0    0  503  502  0.00000000000E+00  0.00000000000E+00  0.55083951454E+03  0.55083951454E+03  0.00000000000E+00 0. -1.
          2   -1    0    0  504    0 -0.00000000000E+00 -0.00000000000E+00 -0.95758257452E+03  0.95758257452E+03  0.00000000000E+00 0.  1.
         21    1    1    2  503  505  0.48474913553E+02 -0.89770271575E+02  0.22507014313E+02  0.10447528222E+03  0.00000000000E+00 0.  1.
         21    1    1    2  504  502 -0.33814388816E+02 -0.15088940057E+02  0.48301344148E+03  0.48443066961E+03  0.00000000000E+00 0. -1.
         21    1    1    2  505  501 -0.23474588263E+02  0.36602110842E+02 -0.25751860837E+03  0.26116394175E+03  0.00000000000E+00 0.  1.
          2    1    1    2  501    0  0.88140635261E+01  0.68257100789E+02 -0.65474490740E+03  0.65835219548E+03  0.00000000000E+00 0.  1.
<scales pt_clust_3="105.34223" pt_clust_4="37.02822" pt_clust_5="36.20599" pt_clust_6="36.20599"></scales>
<clustering>
<clus scale="   36.206">  5  6 -1 -1</clus>
<clus scale="   37.028">  1  4  2 -1</clus>
<clus scale="  105.342">  1  3  2 -1</clus>
<clus scale="   37.028">  1  3  2 -1</clus>
</clustering>
</event>
<event>
 6    0  0.1631680E+002  0.1004948E+03  0.7546771E-02  0.1279259E+00
         21   -1    0    0  504  502  0.00000000000E+00  0.00000000000E+00  0.18874732461E+03  0.18874732461E+03  0.00000000000E+00 0.  1.
         -1   -1    0    0    0  501 -0.00000000000E+00 -0.00000000000E+00 -0.13943042269E+04  0.13943042269E+04  0.00000000000E+00 0.  1.
         21    1    1    2  503  502 -0.85859803208E+02  0.48580466736E+02  0.12561021062E+03  0.15971816606E+03  0.00000000000E+00 0.  1.
         21    1    1    2  504  501 -0.14305843291E+02  0.80198434405E+02 -0.63938064199E+03  0.64454949491E+03  0.00000000000E+00 0.  1.
         21    1    1    2  505  503  0.12055590023E+03 -0.81656290510E+01 -0.59340585619E+02  0.13461689225E+03  0.00000000000E+00 0.  1.
         -1    1    1    2    0  505 -0.20390253733E+02 -0.12061327209E+03 -0.63244588531E+03  0.64416699830E+03  0.00000000000E+00 0.  1.
<scales pt_clust_3="14000.00000" pt_clust_4="81.46439" pt_clust_5="100.49480" pt_clust_6="61.82007"></scales>
<clustering>
<clus scale="   81.464">  2  4  1 -1</clus>
<clus scale="   61.820">  2  6  1 -1</clus>
<clus scale="  100.495">  2  5  1 -1</clus>
<clus scale="  100.495">  1  3  2 -1</clus>
</clustering>
</event>
<event>
 6    0  0.1631680E+002  0.5625954E+02  0.7546771E-02  0.1414235E+00
         21   -1    0    0  503  502  0.00000000000E+00  0.00000000000E+00  0.10887210188E+04  0.10887210188E+04  0.00000000000E+00 0. -1.
          1   -1    0    0  505    0 -0.00000000000E+00 -0.00000000000E+00 -0.20681635617E+03  0.20681635617E+03  0.00000000000E+00 0.  1.
         21    1    1    2  503  501 -0.10292673396E+03  0.11743182228E+02  0.99188631443E+03  0.99728144254E+03  0.00000000000E+00 0. -1.
         21    1    1    2  504  502  0.49454286082E+02 -0.20126664160E+02  0.62524531570E+02  0.82219985832E+02  0.00000000000E+00 0.  1.
         21    1    1    2  505  504 -0.22740882547E+02  0.33179577953E+02 -0.22827462590E+02  0.46250677621E+02  0.00000000000E+00 0. -1.
          1    1    1    2  501    0  0.76213330423E+02 -0.24796096021E+02 -0.14967872077E+03  0.16978526898E+03  0.00000000000E+00 0.  1.
<scales pt_clust_3="56.25954" pt_clust_4="51.48959" pt_clust_5="40.22477" pt_clust_6="14000.00000"></scales>
<clustering>
<clus scale="   40.225">  2  5  1 -1</clus>
<clus scale="   51.490">  1  4  2 -1</clus>
<clus scale="   56.260">  1  3  2 -1</clus>
<clus scale="   51.490">  1  3  2 -1</clus>
</clustering>
</event>
<event>
 6    0  0.1631680E+002  0.7200654E+02  0.7546771E-02  0.1353400E+00
         21   -1    0    0  505  502  0.00000000000E+00  0.00000000000E+00  0.17353383014E+03  0.17353383014E+03  0.00000000000E+00 0. -1.
          1   -1    0    0  504    0 -0.00000000000E+00 -0.00000000000E+00 -0.68365334666E+03  0.68365334666E+03  0.00000000000E+00 0.  1.
         21    1    1    2  503  502 -0.40939415115E+02 -0.72156229138E+02 -0.22307552145E+03  0.23800261634E+03  0.00000000000E+00 0.  1.
         21    1    1    2  504  503 -0.26443445392E+02  0.24374281178E+02 -0.39457435165E+03  0.39620989433E+03  0.00000000000E+00 0.  1.
         21    1    1    2  505  501  0.71443174715E+02 -0.19690893449E+02  0.13175812852E+03  0.15116898799E+03  0.00000000000E+00 0. -1.
          1    1    1    2  501    0 -0.40603142084E+01  0.67472841409E+02 -0.24227771957E+02  0.71805678141E+02  0.00000000000E+00 0.  1.
<scales pt_clust_3="14000.00000" pt_clust_4="35.96333" pt_clust_5="72.00654" pt_clust_6="72.03209"></scales>
<clustering>
<clus scale="   35.963">  2  4  1 -1</clus>
<clus scale="   72.032">  2  6  1 -1</clus>
<clus scale="   72.007">  1  5  2 -1</clus>
<clus scale="   72.007">  1  3  2 -1</clus>
</clustering>
</event>
<event>
 6    0  0.1631680E+002  0.7466492E+02  0.7546771E-02  0.1344912E+00
          2   -1    0    0  505    0 -0.00000000000E+00  0.00000000000E+00  0.13197783186E+04  0.13197783186E+04  0.00000000000E+00 0. -1.
         21   -1    0    0  503  502  0.00000000000E+00 -0.00000000000E+00 -0.80507066331E+02  0.80507066331E+02  0.00000000000E+00 0. -1.
         21    1    1    2  503  501 -0.68498884079E+02 -0.23500814352E+02 -0.49084972840E+02  0.87485541400E+02  0.00000000000E+00 0. -1.
         21    1    1    2  504  502  0.11968336880E+03  0.58110149514E+01  0.33850342767E+03  0.35908557087E+03  0.00000000000E+00 0. -1.
         21    1    1    2  505  504 -0.29799627632E+02 -0.23637251863E+02  0.50654141948E+03  0.50796746661E+03  0.00000000000E+00 0. -1.
          2    1    1    2  501    0 -0.21384857089E+02  0.41327051263E+02  0.44331137793E+03  0.44574680602E+03  0.00000000000E+00 0. -1.
<scales pt_clust_3="74.66492" pt_clust_4="14000.00000" pt_clust_5="38.03600" pt_clust_6="47.18773"></scales>
<clustering>
<clus scale="   38.036">  1  5  2 -1</clus>
<clus scale="   47.188">  1  6  2 -1</clus>
<clus scale="   74.665">  2  3  1 -1</clus>
<clus scale="   74.665">  2  3  1 -1</clus>
</clustering>
</event>
<event>
 6    0  0.1631680E+002  0.1051679E+03  0.7546771E-02  0.1269789E+00
         21   -1    0    0  501  502  0.00000000000E+00  0.00000000000E+00  0.30355891145E+02  0.30355891145E+02  0.00000000000E+00 0. -1.
          2   -1    0    0  503    0 -0.00000000000E+00 -0.00000000000E+00 -0.14373449944E+04  0.14373449944E+04  0.00000000000E+00 0.  1.
         21    1    1    2  503  504 -0.70028051191E+02  0.15906580113E+02 -0.10557101182E+03  0.12768001324E+03  0.00000000000E+00 0. -1.
         21    1    1    2  504  505 -0.35634539762E+02  0.41738989248E+02 -0.12236874759E+03  0.13411216960E+03  0.00000000000E+00 0. -1.
         21    1    1    2  505  502  0.15877448270E+02 -0.36166872017E+02 -0.22058596110E+02  0.45240663759E+02  0.00000000000E+00 0. -1.
          2    1    1    2  501    0  0.89785142683E+02 -0.21478697345E+02 -0.11569907478E+04  0.11606680390E+04  0.00000000000E+00 0.  1.
<scales pt_clust_3="38.50726" pt_clust_4="38.50726" pt_clust_5="39.49856" pt_clust_6="94.70627"></scales>
<clustering>
<clus scale="   39.499">  1  5  2 -1</clus>
<clus scale="   38.507">  3  4 -1 -1</clus>
<clus scale="   94.706">  2  6  1 -1</clus>
<clus scale="   39.499">  1  3  2 -1</clus>
</clustering>
</event>
<event>
 6    0  0.1631680E+002  0.8966201E+02  0.7546771E-02  0.1303672E+00
         21   -1    0    0  505  502  0.00000000000E+00  0.00000000000E+00  0.14896388422E+03  0.14896388422E+03  0.00000000000E+00 0. -1.
         -3   -1    0    0    0  501 -0.00000000000E+00 -0.00000000000E+00 -0.32273667547E+03  0.32273667547E+03  0.00000000000E+00 0. -1.
         21    1    1    2  503  502 -0.19770984069E+02  0.31616425616E+02  0.40183553710E+02  0.54819778990E+02  0.00000000000E+00 0. -1.
         21    1    1    2  504  501 -0.66295456823E+02 -0.53582353584E+02 -0.80475953566E+02  0.11722856014E+03  0.00000000000E+00 0. -1.
         21    1    1    2  505  504  0.63158968903E+02 -0.92131769163E+02  0.13127576587E+02  0.11247066955E+03  0.00000000000E+00 0. -1.
         -3    1    1    2    0  503  0.22907471989E+02  0.11409769713E+03 -0.14660796797E+03  0.18718155101E+03  0.00000000000E+00 0. -1.
<scales pt_clust_3="37.28928" pt_clust_4="84.69300" pt_clust_5="14000.00000" pt_clust_6="89.66201"></scales>
<clustering>
<clus scale="   37.289">  1  3  2 -1</clus>
<clus scale="   84.693">  2  4  1 -1</clus>
<clus scale="   89.662">  2  6  1 -1</clus>
<clus scale="   37.289">  1  3  2 -1</clus>
</clustering>
</event>
<event>
 6    0  0.1631680E+002  0.2060837E+03  0.7546771E-02  0.1144705E+00
         -1   -1    0    0    0  501 -0.00000000000E+00  0.00000000000E+00  0.26169511443E+03  0.26169511443E+03  0.00000000000E+00 0.  1.
         21   -1    0    0  505  502  0.00000000000E+00 -0.00000000000E+00 -0.20233089486E+03  0.20233089486E+03  0.00000000000E+00 0.  1.
         21    1    1    2  503  504  0.56834130984E+02  0.28341004688E+02  0.39050987217E+02  0.74554078319E+02  0.00000000000E+00 0.  1.
         21    1    1    2  504  501  0.14604519163E+03 -0.69555141781E+01  0.14089616267E+02  0.14688803376E+03  0.00000000000E+00 0.  1.
         21    1    1    2  505  503 -0.27153215399E+02  0.46069319080E+02 -0.67959216930E+01  0.53906064767E+02  0.00000000000E+00 0.  1.
         -1    1    1    2    0  502 -0.17572610721E+03 -0.67454809590E+02  0.13019537780E+02  0.18867783244E+03  0.00000000000E+00 0.  1.
<scales pt_clust_3="44.67705" pt_clust_4="44.67705" pt_clust_5="53.47597" pt_clust_6="194.61543"></scales>
<clustering>
<clus scale="   44.677">  3  4 -1 -1</clus>
<clus scale="   53.476">  2  5  1 -1</clus>
<clus scale="  194.615">  2  6  1 -1</clus>
<clus scale="   53.476">  2  3  1 -1</clus>
</clustering>
</event>
<event>
 6    0  0.1631680E+002  0.1007650E+03  0.7546771E-02  0.1278695E+00
          2   -1    0    0  505    0 -0.00000000000E+00  0.00000000000E+00  0.15068648870E+04  0.15068648870E+04  0.00000000000E+00 0.  1.
         21   -1    0    0  503  502  0.00000000000E+00 -0.00000000000E+00 -0.25906484665E+03  0.25906484665E+03  0.00000000000E+00 0. -1.
         21    1    1    2  503  504  0.31396249999E+02 -0.97089129059E+02 -0.23489871453E+03  0.25610433339E+03  0.00000000000E+00 0. -1.
         21    1    1    2  504  501 -0.89673379762E+02  0.41604130432E+02  0.26229131407E+03  0.28030153789E+03  0.00000000000E+00 0.  1.
         21    1    1    2  505  502  0.29736704058E+02  0.17705239332E+02  0.69474041363E+02  0.77616940750E+02  0.00000000000E+00 0.  1.
          2    1    1    2  501    0  0.28540425705E+02  0.37779759295E+02  0.11509333994E+04  0.11519069216E+04  0.00000000000E+00 0.  1.
<scales pt_clust_3="100.76501" pt_clust_4="14000.00000" pt_clust_5="34.60848" pt_clust_6="73.84480"></scales>
<clustering>
<clus scale="   34.608">  1  5  2 -1</clus>
<clus scale="   73.845">  1  6  2 -1</clus>
<clus scale="  100.765">  2  3  1 -1</clus>
<clus scale="  100.765">  2  3  1 -1</clus>
</clustering>
</event>
<event>
 6    0  0.1631680E+002  0.8530547E+02  0.7546771E-02  0.1314636E+00
         21   -1    0    0  503  502  0.00000000000E+00  0.00000000000E+00  0.10551809547E+03  0.10551809547E+03  0.00000000000E+00 0.  1.
          2   -1    0    0  504    0 -0.00000000000E+00 -0.00000000000E+00 -0.75145834439E+03  0.75145834439E+03  0.00000000000E+00 0.  1.
         21    1    1    2  503  505 -0.12419631980E+02 -0.81506442947E+02  0.58176123776E+02  0.10090594075E+03  0.00000000000E+00 0.  1.
         21    1    1    2  504  502  0.12336791751E+02  0.31525746483E+02 -0.33188091224E+03  0.33360307108E+03  0.00000000000E+00 0.  1.
         21    1    1    2  505  501  0.42806457996E+02  0.96954416981E+02 -0.11038203000E+03  0.15302530629E+03  0.00000000000E+00 0.  1.
          2    1    1    2  501    0 -0.42723617767E+02 -0.46973720518E+02 -0.26185343044E+03  0.26944212174E+03  0.00000000000E+00 0.  1.
<scales pt_clust_3="85.30547" pt_clust_4="33.85364" pt_clust_5="14000.00000" pt_clust_6="44.10567"></scales>
<clustering>
<clus scale="   33.854">  2  4  1 -1</clus>
<clus scale="   44.106">  2  6  1 -1</clus>
<clus scale="   85.305">  1  3  2 -1</clus>
<clus scale="   85.305">  1  3  2 -1</clus>
</clustering>
</event>
<event>
 6    0  0.1631680E+002  0.8388118E+02  0.7546771E-02  0.1318385E+00
         21   -1    0    0  504  502  0.00000000000E+00  0.00000000000E+00  0.47660100121E+02  0.47660100121E+02  0.00000000000E+00 0. -1.
          2   -1    0    0  503    0 -0.00000000000E+00 -0.00000000000E+00 -0.17653730971E+04  0.17653730971E+04  0.00000000000E+00 0. -1.
         21    1    1    2  503  505  0.70847862181E+02  0.31652759665E+02 -0.16250002704E+03  0.18007658248E+03  0.00000000000E+00 0. -1.
         21    1    1    2  504  501 -0.75885784023E+02  0.20178005033E+02 -0.58662603415E+03  0.59185801341E+03  0.00000000000E+00 0. -1.
         21    1    1    2  505  502 -0.62787310516E+02  0.12102738165E+02  0.39881371345E+01  0.64067369782E+02  0.00000000000E+00 0. -1.
          2    1    1    2  501    0  0.67825232358E+02 -0.63933502863E+02 -0.97257507297E+03  0.97703123159E+03  0.00000000000E+00 0. -1.
<scales pt_clust_3="49.79057" pt_clust_4="83.88118" pt_clust_5="63.94312" pt_clust_6="14000.00000"></scales>
<clustering>
<clus scale="   63.943">  1  5  2 -1</clus>
<clus scale="   49.791">  1  3  2 -1</clus>
<clus scale="   83.881">  1  4  2 -1</clus>
<clus scale="   63.943">  1  3  2 -1</clus>
</clustering>
</event>
<event>
 6    0  0.1631680E+002  0.8404094E+02  0.7546771E-02  0.1317960E+00
          2   -1    0    0  503    0 -0.00000000000E+00  0.00000000000E+00  0.10358324385E+04  0.10358324385E+04  0.00000000000E+00 0. -1.
         21   -1    0    0  505  502  0.00000000000E+00 -0.00000000000E+00 -0.22141382292E+03  0.22141382292E+03  0.00000000000E+00 0.  1.
         21    1    1    2  503  504 -0.34982557342E+02  0.81905038592E+01  0.22320972396E+03  0.22608282673E+03  0.00000000000E+00 0. -1.
         21    1    1    2  504  502 -0.72319768490E+02  0.51592775854E+02 -0.15660848941E+03  0.18005049955E+03  0.00000000000E+00 0.  1.
         21    1    1    2  505  501 -0.10035030946E+02 -0.39523265134E+02 -0.38350836476E+02  0.55978361814E+02  0.00000000000E+00 0.  1.
          2    1    1    2  501    0  0.11733735678E+03 -0.20260014579E+02  0.78616821751E+03  0.79513457333E+03  0.00000000000E+00 0. -1.
<scales pt_clust_3="35.92859" pt_clust_4="14000.00000" pt_clust_5="40.78648" pt_clust_6="84.04094"></scales>
<clustering>
<clus scale="   35.929">  1  3  2 -1</clus>
<clus scale="   40.786">  2  5  1 -1</clus>
<clus scale="   84.041">  1  6  2 -1</clus>
<clus scale="   40.786">  2  3  1 -1</clus>
</clustering>
</event>
<event>
 6    0  0.1631680E+002  0.1206907E+03  0.7546771E-02  0.1241962E+00
         21   -1    0    0  505  502  0.00000000000E+00  0.00000000000E+00  0.18853846446E+03  0.18853846446E+03  0.00000000000E+00 0. -1.
          2   -1    0    0  504    0 -0.00000000000E+00 -0.00000000000E+00 -0.83616828218E+03  0.83616828218E+03  0.00000000000E+00 0. -1.
         21    1    1    2  503  501 -0.72539837631E+02 -0.89641995363E+02  0.21807191229E+02  0.11735957126E+03  0.00000000000E+00 0. -1.
         21    1    1    2  504  502 -0.24213925514E+02 -0.20315958297E+02 -0.59887933956E+02  0.67717183814E+02  0.00000000000E+00 0.  1.
         21    1    1    2  505  503  0.14238908167E+03  0.19230446498E+02  0.64841541504E+02  0.15763529477E+03  0.00000000000E+00 0. -1.
          2    1    1    2  501    0 -0.45635318528E+02  0.90727507161E+02 -0.67439061649E+03  0.68199469680E+03  0.00000000000E+00 0. -1.
<scales pt_clust_3="120.69069" pt_clust_4="31.60779" pt_clust_5="14000.00000" pt_clust_6="98.93405"></scales>
<clustering>
<clus scale="   31.608">  2  4  1 -1</clus>
<clus scale="   98.934">  2  6  1 -1</clus>
<clus scale="  120.691">  2  3  1 -1</clus>
<clus scale="  120.691">  1  3  2 -1</clus>
</clustering>
</event>
<event>
 6    0  0.1631680E+002  0.1488346E+03  0.7546771E-02  0.1201912E+00
         21   -1    0    0  504  502  0.00000000000E+00  0.00000000000E+00  0.34578914448E+03  0.34578914448E+03  0.00000000000E+00 0.  1.
          1   -1    0    0  505    0 -0.00000000000E+00 -0.00000000000E+00 -0.17339132110E+04  0.17339132110E+04  0.00000000000E+00 0. -1.
         21    1    1    2  503  502 -0.35359175248E+02  0.56547148922E+01 -0.20567680834E+02  0.41294994486E+02  0.00000000000E+00 0.  1.
         21    1    1    2  504  501  0.65389525977E+02  0.15097792159E+03  0.30004585485E+03  0.34219532132E+03  0.00000000000E+00 0.  1.
         21    1    1    2  505  503  0.17409532818E+02 -0.10618652850E+03 -0.20112496639E+03  0.22810068560E+03  0.00000000000E+00 0.  1.
          1    1    1    2  501    0 -0.47439883547E+02 -0.50446107990E+02 -0.14664772741E+04  0.14681113541E+04  0.00000000000E+00 0. -1.
<scales pt_clust_3="35.80848" pt_clust_4="148.83458" pt_clust_5="14000.00000" pt_clust_6="69.29749"></scales>
<clustering>
<clus scale="   35.808">  1  3  2 -1</clus>
<clus scale="   69.297">  2  6  1 -1</clus>
<clus scale="  148.835">  1  4  2 -1</clus>
<clus scale="   35.808">  1  3  2 -1</clus>
</clustering>
</event>
<event>
 6    0  0.1631680E+002  0.9348209E+02  0.7546771E-02  0.1294632E+00
         21   -1    0    0  503  502  0.00000000000E+00  0.00000000000E+00  0.10922498444E+03  0.10922498444E+03  0.00000000000E+00 0. -1.
          3   -1    0    0  504    0 -0.00000000000E+00 -0.00000000000E+00 -0.14962768174E+04  0.14962768174E+04  0.00000000000E+00 0. -1.
         21    1    1    2  503  501  0.13078995735E+01 -0.35119335719E+02  0.93389645651E+02  0.99783286463E+02  0.00000000000E+00 0. -1.
         21    1    1    2  504  505  0.35413543125E+02  0.12370503063E+02 -0.67815453202E+03  0.67919122321E+03  0.00000000000E+00 0. -1.
         21    1    1    2  505  502 -0.20823515088E+02  0.10886419756E+03 -0.42569244652E+03  0.43988531609E+03  0.00000000000E+00 0. -1.
          3    1    1    2  501    0 -0.15897927610E+02 -0.86115364899E+02 -0.37659450009E+03  0.38664197609E+03  0.00000000000E+00 0. -1.
<scales pt_clust_3="35.14368" pt_clust_4="37.11320" pt_clust_5="14000.00000" pt_clust_6="93.48209"></scales>
<clustering>
<clus scale="   35.144">  1  3  2 -1</clus>
<clus scale="   37.113">  2  4  1 -1</clus>
<clus scale="   93.482">  2  6  1 -1</clus>
<clus scale="   35.144">  1  3  2 -1</clus>
</clustering>
</event>
<event>
 6    0  0.1631680E+002  0.1021352E+03  0.7546771E-02  0.1275869E+00
          1   -1    0    0  505    0 -0.00000000000E+00  0.00000000000E+00  0.24362753141E+04  0.24362753141E+04  0.00000000000E+00 0.  1.
         21   -1    0    0  501  502  0.00000000000E+00 -0.00000000000E+00 -0.48401890077E+02  0.48401890077E+02  0.00000000000E+00 0.  1.
         21    1    1    2  503  502 -0.96673241668E+02  0.10525155917E+03  0.12246219155E+03  0.18820359912E+03  0.00000000000E+00 0.  1.
         21    1    1    2  504  503  0.34375444477E+02 -0.79699740874E+02  0.99288509997E+03  0.99667173213E+03  0.00000000000E+00 0.  1.
         21    1    1    2  505  504 -0.22127542808E+02 -0.24940980762E+02  0.11529065419E+04  0.11533885620E+04  0.00000000000E+00 0.  1.
          1    1    1    2  501    0  0.84425340000E+02 -0.61083753511E+00  0.11961959068E+03  0.14641331098E+03  0.00000000000E+00 0.  1.
<scales pt_clust_3="102.13523" pt_clust_4="14000.00000" pt_clust_5="33.34188" pt_clust_6="82.19364"></scales>
<clustering>
<clus scale="   33.342">  1  5  2 -1</clus>
<clus scale="   82.194">  2  6  1 -1</clus>
<clus scale="  102.135">  2  3  1 -1</clus>
<clus scale="   82.194">  2  3  1 -1</clus>
</clustering>
</event>
<event>
 6    0  0.1631680E+002  0.8228762E+02  0.7546771E-02  0.1322682E+00
          1   -1    0    0  503    0 -0.00000000000E+00  0.00000000000E+00  0.11433265644E+03  0.11433265644E+03  0.00000000000E+00 0.  1.
         21   -1    0    0  505  502  0.00000000000E+00 -0.00000000000E+00 -0.39423730396E+03  0.39423730396E+03  0.00000000000E+00 0.  1.
         21    1    1    2  503  504 -0.46741584855E+02 -0.10891725739E+02  0.27457723682E+02  0.55293146358E+02  0.00000000000E+00 0.  1.
         21    1    1    2  504  502 -0.10431241575E+03  0.28102186608E+02 -0.16163417035E+03  0.19441300882E+03  0.00000000000E+00 0.  1.
         21    1    1    2  505  501  0.68161266436E+02 -0.18365517334E+02 -0.15987343985E+03  0.17476489132E+03  0.00000000000E+00 0. -1.
          1    1    1    2  501    0  0.82892734171E+02  0.11550564655E+01  0.14145239000E+02  0.84098913906E+02  0.00000000000E+00 0.  1.
<scales pt_clust_3="47.99381" pt_clust_4="82.28762" pt_clust_5="14000.00000" pt_clust_6="51.79147"></scales>
<clustering>
<clus scale="   47.994">  1  3  2 -1</clus>
<clus scale="   51.791">  1  6  2 -1</clus>
<clus scale="   82.288">  1  4  2 -1</clus>
<clus scale="   82.288">  2  3  1 -1</clus>
</clustering>
</event>
<event>
 6    0  0.1631680E+002  0.2853548E+03  0.7546771E-02  0.1092800E+00
         21   -1    0    0  504  502  0.00000000000E+00  0.00000000000E+00  0.10335057885E+04  0.10335057885E+04  0.00000000000E+00 0.  1.
         -3   -1    0    0    0  501 -0.00000000000E+00 -0.00000000000E+00 -0.18800795043E+03  0.18800795043E+03  0.00000000000E+00 0.  1.
         21    1    1    2  503  502  0.30868545928E+03 -0.14815861717E+03  0.38357802983E+03  0.51416903212E+03  0.00000000000E+00 0.  1.
         21    1    1    2  504  501 -0.13027026164E+03 -0.10938369633E+02  0.42102138292E+03  0.44085030778E+03  0.00000000000E+00 0.  1.
         21    1    1    2  505  503 -0.94576677214E+02  0.25897621892E+02  0.47522581012E+02  0.10896710696E+03  0.00000000000E+00 0.  1.
         -3    1    1    2    0  505 -0.83838520426E+02  0.13319936492E+03 -0.66241556661E+01  0.15752729211E+03  0.00000000000E+00 0.  1.
<scales pt_clust_3="263.10572" pt_clust_4="130.72868" pt_clust_5="87.19375" pt_clust_6="87.19375"></scales>
<clustering>
<clus scale="   87.194">  5  6 -1 -1</clus>
<clus scale="  130.729">  1  4  2 -1</clus>
<clus scale="  263.106">  1  3  2 -1</clus>
<clus scale="  130.729">  1  3  2 -1</clus>
</clustering>
</event>
<event>
 6    0  0.1631680E+002  0.7874771E+02  0.7546771E-02  0.1332643E+00
         21   -1    0    0  505  502  0.00000000000E+00  0.00000000000E+00  0.55011987508E+03  0.55011987508E+03  0.00000000000E+00 0.  1.
         -4   -1    0    0    0  501 -0.00000000000E+00 -0.00000000000E+00 -0.38457773193E+03  0.38457773193E+03  0.00000000000E+00 0. -1.
         21    1    1    2  503  504 -0.40198790017E+02  0.35381385200E+02  0.17308218769E+02  0.56279299698E+02  0.00000000000E+00 0. -1.
         21    1    1    2  504  501 -0.41670548710E+02  0.44875208063E+02 -0.85778924001E+02  0.10539564854E+03  0.00000000000E+00 0.  1.
         21    1    1    2  505  503 -0.37247604423E+02 -0.17650976553E+01  0.48387302943E+03  0.48530774588E+03  0.00000000000E+00 0.  1.
         -4    1    1    2    0  502  0.11911694315E+03 -0.78491495608E+02 -0.24986018104E+03  0.28771491289E+03  0.00000000000E+00 0. -1.
<scales pt_clust_3="78.74771" pt_clust_4="64.97923" pt_clust_5="37.28940" pt_clust_6="14000.00000"></scales>
<clustering>
<clus scale="   37.289">  1  5  2 -1</clus>
<clus scale="   64.979">  2  4  1 -1</clus>
<clus scale="   78.748">  1  3  2 -1</clus>
<clus scale="   37.289">  1  3  2 -1</clus>
</clustering>
</event>
<event>
 6    0  0.1631680E+002  0.9779646E+02  0.7546771E-02  0.1284999E+00
          1   -1    0    0  504    0 -0.00000000000E+00  0.00000000000E+00  0.99566752822E+03  0.99566752822E+03  0.00000000000E+00 0.  1.
         21   -1    0    0  501  502  0.00000000000E+00 -0.00000000000E+00 -0.87825138208E+02  0.87825138208E+02  0.00000000000E+00 0.  1.
         21    1    1    2  503  502 -0.29695561349E+02 -0.13041087472E+02 -0.43480242058E+02  0.54244149691E+02  0.00000000000E+00 0.  1.
         21    1    1    2  504  505 -0.94342388911E+01 -0.83786384906E+02  0.50165308749E+03  0.50868947635E+03  0.00000000000E+00 0.  1.
         21    1    1    2  505  503 -0.13964519065E+02 -0.35356986326E+02 -0.10012598851E+02  0.39311275870E+02  0.00000000000E+00 0. -1.
          1    1    1    2  501    0  0.53094319305E+02  0.13218445870E+03  0.45968214343E+03  0.48124776452E+03  0.00000000000E+00 0.  1.
<scales pt_clust_3="32.43295" pt_clust_4="14000.00000" pt_clust_5="54.54553" pt_clust_6="97.79646"></scales>
<clustering>
<clus scale="   32.433">  2  3  1 -1</clus>
<clus scale="   54.546">  2  5  1 -1</clus>
<clus scale="   97.796">  2  6  1 -1</clus>
<clus scale="   32.433">  2  3  1 -1</clus>
</clustering>
</event>
<event>
 6    0  0.1631680E+002  0.1336148E+03  0.7546771E-02  0.1222188E+00
         21   -1    0    0  504  502  0.00000000000E+00  0.00000000000E+00  0.29467433505E+03  0.29467433505E+03  0.00000000000E+00 0.  1.
         -2   -1    0    0    0  501 -0.00000000000E+00 -0.00000000000E+00 -0.14183835947E+03  0.14183835947E+03  0.00000000000E+00 0.  1.
         21    1    1    2  503  502  0.48706948213E+02  0.74834246602E+02  0.18449156145E+03  0.20496260029E+03  0.00000000000E+00 0.  1.
         21    1    1    2  504  501  0.60745417739E+02 -0.14201061801E+02  0.39433728640E+02  0.73801726856E+02  0.00000000000E+00 0. -1.
         21    1    1    2  505  503 -0.58779426982E+02  0.35392875286E+01 -0.25963112147E+02  0.64355503144E+02  0.00000000000E+00 0.  1.
         -2    1    1    2    0  505 -0.50672938970E+02 -0.64172472330E+02 -0.45126202372E+02  0.93392864231E+02  0.00000000000E+00 0.  1.
<scales pt_clust_3="116.95410" pt_clust_4="62.38330" pt_clust_5="54.83106" pt_clust_6="54.83106"></scales>
<clustering>
<clus scale="   54.831">  5  6 -1 -1</clus>
<clus scale="   62.383">  1  4  2 -1</clus>
<clus scale="  116.954">  1  3  2 -1</clus>
<clus scale="   62.383">  1  3  2 -1</clus>
</clustering>
</event>
<event>
 6    0  0.1631680E+002  0.6954738E+02  0.7546771E-02  0.1361639E+00
         -1   -1    0    0    0  501 -0.00000000000E+00  0.00000000000E+00  0.54680541085E+03  0.54680541085E+03  0.00000000000E+00 0. -1.
         21   -1    0    0  505  502  0.00000000000E+00 -0.00000000000E+00 -0.75880838443E+03  0.75880838443E+03  0.00000000000E+00 0. -1.
         21    1    1    2  503  501  0.18150990974E+02  0.33174953310E+02  0.66205821434E+02  0.76244650908E+02  0.00000000000E+00 0. -1.
         21    1    1    2  504  503 -0.60961690656E+02  0.32023908744E+02  0.66489697561E+02  0.95722193564E+02  0.00000000000E+00 0. -1.
         21    1    1    2  505  504 -0.35064490918E+02 -0.60228921792E+02 -0.73364602212E+03  0.73694879559E+03  0.00000000000E+00 0. -1.
         -1    1    1    2    0  502  0.77875190600E+02 -0.49699402624E+01  0.38894752954E+03  0.39669815522E+03  0.00000000000E+00 0. -1.
<scales pt_clust_3="37.81582" pt_clust_4="69.05360" pt_clust_5="69.54738" pt_clust_6="14000.00000"></scales>
<clustering>
<clus scale="   37.816">  1  3  2 -1</clus>
<clus scale="   69.054">  1  4  2 -1</clus>
<clus scale="   69.547">  2  5  1 -1</clus>
<clus scale="   69.547">  2  3  1 -1</clus>
</clustering>
</event>
<event>
 6    0  0.1631680E+002  0.9685069E+02  0.7546771E-02  0.1287061E+00
         21   -1    0    0  505  502  0.00000000000E+00  0.00000000000E+00  0.40220754794E+02  0.40220754794E+02  0.00000000000E+00 0.  1.
         -1   -1    0    0    0  501 -0.00000000000E+00 -0.00000000000E+00 -0.14103953463E+04  0.14103953463E+04  0.00000000000E+00 0. -1.
         21    1    1    2  503  501  0.43156105896E+02 -0.90900686668E+01 -0.15925197699E+03  0.16524609223E+03  0.00000000000E+00 0. -1.
         21    1    1    2  504  503 -0.16026218784E+02  0.74098980184E+02 -0.37109876441E+03  0.37876350339E+03  0.00000000000E+00 0. -1.
         21    1    1    2  505  504 -0.17177077341E+02  0.57866749572E+02 -0.26667283251E+01  0.60421222530E+02  0.00000000000E+00 0.  1.
         -1    1    1    2    0  502 -0.99528097710E+01 -0.12287566109E+03 -0.83715712174E+03  0.84618528289E+03  0.00000000000E+00 0. -1.
<scales pt_clust_3="44.10305" pt_clust_4="96.85069" pt_clust_5="59.83977" pt_clust_6="14000.00000"></scales>
<clustering>
<clus scale="   44.103">  2  3  1 -1</clus>
<clus scale="   59.840">  1  5  2 -1</clus>
<clus scale="   96.851">  2  4  1 -1</clus>
<clus scale="   59.840">  1  3  2 -1</clus>
</clustering>
</event>
<event>
 6    0  0.1631680E+002  0.7310318E+02  0.7546771E-02  0.1349848E+00
          2   -1    0    0  503    0 -0.00000000000E+00  0.00000000000E+00  0.30022178065E+04  0.30022178065E+04  0.00000000000E+00 0. -1.
         21   -1    0    0  504  502  0.00000000000E+00 -0.00000000000E+00 -0.43466382683E+03  0.43466382683E+03  0.00000000000E+00 0. -1.
         21    1    1    2  503  505  0.35442931247E+02 -0.39691390874E+01  0.92237890377E+02  0.98892789735E+02  0.00000000000E+00 0.  1.
         21    1    1    2  504  501  0.32753840307E+02 -0.92983745403E+02 -0.17023767711E+03  0.19672228565E+03  0.00000000000E+00 0.  1.
         21    1    1    2  505  502 -0.39910546174E+02  0.52271677317E+02 -0.24324755196E+03  0.25198125224E+03  0.00000000000E+00 0. -1.
          2    1    1    2  501    0 -0.28286225379E+02  0.44681207174E+02  0.28888013184E+04  0.28892853057E+04  0.00000000000E+00 0. -1.
<scales pt_clust_3="35.66448" pt_clust_4="14000.00000" pt_clust_5="73.10318" pt_clust_6="41.32338"></scales>
<clustering>
<clus scale="   35.664">  1  3  2 -1</clus>
<clus scale="   41.323">  1  6  2 -1</clus>
<clus scale="   73.103">  2  5  1 -1</clus>
<clus scale="   73.103">  2  3  1 -1</clus>
</clustering>
</event>
<event>
 6    0  0.1631680E+002  0.1315936E+03  0.7546771E-02  0.1225110E+00
         21   -1    0    0  504  502  0.00000000000E+00  0.00000000000E+00  0.68918825418E+03  0.68918825418E+03  0.00000000000E+00 0.  1.
          3   -1    0    0  503    0 -0.00000000000E+00 -0.00000000000E+00 -0.64588869061E+03  0.64588869061E+03  0.00000000000E+00 0.  1.
         21    1    1    2  503  505  0.63806704667E+02  0.92209645494E+02 -0.17782688814E+02  0.11353474492E+03  0.00000000000E+00 0.  1.
         21    1    1    2  504  501 -0.32925074804E+02 -0.27222616382E+02  0.51100525828E+01  0.43026085471E+02  0.00000000000E+00 0.  1.
         21    1    1    2  505  502  0.26460631381E+02  0.57387764404E+02  0.60744621226E+03  0.61072450524E+03  0.00000000000E+00 0.  1.
          3    1    1    2  501    0 -0.57342261244E+02 -0.12237479352E+03 -0.55147401245E+03  0.56779160915E+03  0.00000000000E+00 0.  1.
<scales pt_clust_3="14000.00000" pt_clust_4="42.72156" pt_clust_5="32.66773" pt_clust_6="131.59361"></scales>
<clustering>
<clus scale="   42.722">  1  4  2 -1</clus>
<clus scale="   32.668">  1  5  2 -1</clus>
<clus scale="  131.594">  2  6  1 -1</clus>
<clus scale="   42.722">  1  3  2 -1</clus>
</clustering>
</event>
<event>
 6    0  0.1631680E+002  0.1082764E+03  0.7546771E-02  0.1263795E+00
          1   -1    0    0  503    0 -0.00000000000E+00  0.00000000000E+00  0.22030264661E+04  0.22030264661E+04  0.00000000000E+00 0. -1.
         21   -1    0    0  505  502  0.00000000000E+00 -0.00000000000E+00 -0.17507941552E+03  0.17507941552E+03  0.00000000000E+00 0. -1.
         21    1    1    2  503  502 -0.56108493289E+02 -0.10365525909E+03 -0.10919229933E+03  0.16067213196E+03  0.00000000000E+00 0. -1.
         21    1    1    2  504  501  0.10913429197E+03 -0.31298418501E+01  0.46475203288E+03  0.47740396067E+03  0.00000000000E+00 0. -1.
         21    1    1    2  505  504  0.29269111278E+02  0.26337973697E+02 -0.19703790663E+02  0.44029638880E+02  0.00000000000E+00 0. -1.
          1    1    1    2  501    0 -0.82294909960E+02  0.80447127241E+02  0.16920911076E+04  0.16960001501E+04  0.00000000000E+00 0. -1.
<scales pt_clust_3="83.84405" pt_clust_4="108.27640" pt_clust_5="39.37473" pt_clust_6="14000.00000"></scales>
<clustering>
<clus scale="   39.375">  2  5  1 -1</clus>
<clus scale="   83.844">  2  3  1 -1</clus>
<clus scale="  108.276">  2  4  1 -1</clus>
<clus scale="   39.375">  2  3  1 -1</clus>
</clustering>
</event>
<event>
 6    0  0.1631680E+002  0.1256996E+03  0.7546771E-02  0.1233980E+00
         21   -1    0    0  501  502  0.00000000000E+00  0.00000000000E+00  0.63279381177E+03  0.63279381177E+03  0.00000000000E+00 0. -1.
          3   -1    0    0  503    0 -0.00000000000E+00 -0.00000000000E+00 -0.76142302129E+02  0.76142302129E+02  0.00000000000E+00 0. -1.
         21    1    1    2  503  504 -0.20136894195E+01 -0.36364602028E+02 -0.20581390557E+02  0.41833394113E+02  0.00000000000E+00 0. -1.
         21    1    1    2  504  505  0.48336099704E+01 -0.76565217757E+02  0.29730785930E+02  0.82277068418E+02  0.00000000000E+00 0. -1.
         21    1    1    2  505  502  0.41419337816E+02 -0.68891068305E+01  0.32948522997E+03  0.33214987296E+03  0.00000000000E+00 0. -1.
          3    1    1    2  501    0 -0.44239258366E+02  0.11981892662E+03  0.21801688430E+03  0.25267577841E+03  0.00000000000E+00 0. -1.
<scales pt_clust_3="34.85181" pt_clust_4="34.85181" pt_clust_5="41.98835" pt_clust_6="115.07298"></scales>
<clustering>
<clus scale="   34.852">  3  4 -1 -1</clus>
<clus scale="   41.988">  1  5  2 -1</clus>
<clus scale="  115.073">  1  6  2 -1</clus>
<clus scale="   41.988">  1  3  2 -1</clus>
</clustering>
</event>
<event>
 6    0  0.1631680E+002  0.9121768E+02  0.7546771E-02  0.1299929E+00
         21   -1    0    0  504  502  0.00000000000E+00  0.00000000000E+00  0.16249671044E+04  0.16249671044E+04  0.00000000000E+00 0.  1.
         -4   -1    0    0    0  501 -0.00000000000E+00 -0.00000000000E+00 -0.41192625441E+03  0.41192625441E+03  0.00000000000E+00 0.  1.
         21    1    1    2  503  505 -0.28289705012E+02  0.54845888842E+02 -0.12104318317E+03  0.13586696112E+03  0.00000000000E+00 0.  1.
         21    1    1    2  504  503 -0.41547515816E+02 -0.81562341443E+02  0.15796331946E+04  0.15822830471E+04  0.00000000000E+00 0.  1.
         21    1    1    2  505  501 -0.27412369020E+02  0.43422911823E+02  0.28829614840E+01  0.51432467502E+02  0.00000000000E+00 0.  1.
         -4    1    1    2    0  502  0.97249589848E+02 -0.16706459222E+02 -0.24843212294E+03  0.26731088308E+03  0.00000000000E+00 0.  1.
<scales pt_clust_3="78.67797" pt_clust_4="91.21768" pt_clust_5="51.35160" pt_clust_6="14000.00000"></scales>
<clustering>
<clus scale="   51.352">  2  5  1 -1</clus>
<clus scale="   78.678">  2  3  1 -1</clus>
<clus scale="   91.218">  1  4  2 -1</clus>
<clus scale="   91.218">  1  3  2 -1</clus>
</clustering>
</event>
<event>
 6    0  0.1631680E+002  0.1265861E+03  0.7546771E-02  0.1232611E+00
         21   -1    0    0  505  502  0.00000000000E+00  0.00000000000E+00  0.76122918551E+02  0.76122918551E+02  0.00000000000E+00 0.  1.
          2   -1    0    0  504    0 -0.00000000000E+00 -0.00000000000E+00 -0.16181177448E+04  0.16181177448E+04  0.00000000000E+00 0. -1.
         21    1    1    2  503  502  0.68912431259E+02  0.26741789885E+01  0.74743856870E+00  0.68968348391E+02  0.00000000000E+00 0. -1.
         21    1    1    2  504  503  0.80231887668E+02  0.54136732936E+02 -0.47888481343E+03  0.48856791359E+03  0.00000000000E+00 0.  1.
         21    1    1    2  505  501 -0.18996478957E+02  0.46497429607E+02  0.90231814093E+01  0.51032293458E+02  0.00000000000E+00 0.  1.
          2    1    1    2  501    0 -0.13014783997E+03 -0.10330834153E+03 -0.10728806328E+04  0.10856721079E+04  0.00000000000E+00 0. -1.
<scales pt_clust_3="66.38492" pt_clust_4="126.58615" pt_clust_5="50.22825" pt_clust_6="14000.00000"></scales>
<clustering>
<clus scale="   50.228">  1  5  2 -1</clus>
<clus scale="   66.385">  1  3  2 -1</clus>
<clus scale="  126.586">  2  4  1 -1</clus>
<clus scale="   50.228">  1  3  2 -1</clus>
</clustering>
</event>
<event>
 6    0  0.1631680E+002  0.8933406E+02  0.7546771E-02  0.1304472E+00
          2   -1    0    0  505    0 -0.00000000000E+00  0.00000000000E+00  0.88272209530E+03  0.88272209530E+03  0.00000000000E+00 0.  1.
         21   -1    0    0  504  502  0.00000000000E+00 -0.00000000000E+00 -0.18642376151E+03  0.18642376151E+03  0.00000000000E+00 0. -1.
         21    1    1    2  503  502 -0.10157049614E+01 -0.67708842324E+02 -0.14022568090E+03  0.15572013540E+03  0.00000000000E+00 0. -1.
         21    1    1    2  504  501 -0.74431865555E+02  0.62892556663E+01  0.11535477796E+02  0.75582568062E+02  0.00000000000E+00 0.  1.
         21    1    1    2  505  503  0.65316331890E+02 -0.14014764801E+02  0.47498046317E+03  0.47965516492E+03  0.00000000000E+00 0.  1.
          2    1    1    2  501    0  0.10131238626E+02  0.75434351459E+02  0.35000807373E+03  0.35818798843E+03  0.00000000000E+00 0.  1.
<scales pt_clust_3="14000.00000" pt_clust_4="67.58339" pt_clust_5="66.80297" pt_clust_6="89.33406"></scales>
<clustering>
<clus scale="   66.803">  1  5  2 -1</clus>
<clus scale="   67.583">  2  4  1 -1</clus>
<clus scale="   89.334">  1  6  2 -1</clus>
<clus scale="   67.583">  2  3  1 -1</clus>
</clustering>
</event>
<event>
 6    0  0.1631680E+002  0.3727896E+03  0.7546771E-02  0.1053631E+00
         21   -1    0    0  501  502  0.00000000000E+00  0.00000000000E+00  0.11517069788E+04  0.11517069788E+04  0.00000000000E+00 0.  1.
          1   -1    0    0  503    0 -0.00000000000E+00 -0.00000000000E+00 -0.10807770019E+04  0.10807770019E+04  0.00000000000E+00 0.  1.
         21    1    1    2  503  505  0.53214260439E+02  0.15963365472E+01 -0.37852854395E+03  0.38225405739E+03  0.00000000000E+00 0. -1.
         21    1    1    2  504  502 -0.49221812128E+02  0.27407019455E+02  0.34953721826E+03  0.35404829961E+03  0.00000000000E+00 0. -1.
         21    1    1    2  505  504 -0.28498432654E+03  0.90024304340E+02  0.73398836711E+03  0.79250196517E+03  0.00000000000E+00 0.  1.
          1    1    1    2  501    0  0.28099187823E+03 -0.11902766034E+03 -0.63406706453E+03  0.70367965856E+03  0.00000000000E+00 0.  1.
<scales pt_clust_3="53.23820" pt_clust_4="53.40996" pt_clust_5="53.40996" pt_clust_6="352.00300"></scales>
<clustering>
<clus scale="   53.238">  2  3  1 -1</clus>
<clus scale="   53.410">  4  5 -1 -1</clus>
<clus scale="  352.003">  2  6  1 -1</clus>
<clus scale="  372.790">  1  3  2 -1</clus>
</clustering>
</event>
<event>
 6    0  0.1631680E+002  0.1229407E+03  0.7546771E-02  0.1238323E+00
          2   -1    0    0  502    0 -0.00000000000E+00  0.00000000000E+00  0.10639976899E+04  0.10639976899E+04  0.00000000000E+00 0. -1.
         21   -1    0    0  504  502  0.00000000000E+00 -0.00000000000E+00 -0.92999367667E+02  0.92999367667E+02  0.00000000000E+00 0. -1.
         21    1    1    2  503  501  0.16320223216E+03 -0.22561776883E+00  0.24724502122E+03  0.29625178481E+03  0.00000000000E+00 0. -1.
         21    1    1    2  504  505 -0.31886070679E+02  0.10550415160E+02 -0.33316307991E+02  0.47307601309E+02  0.00000000000E+00 0. -1.
         21    1    1    2  505  503 -0.22599948241E+02  0.33847310630E+02 -0.62278026063E+01  0.41172607674E+02  0.00000000000E+00 0. -1.
          2    1    1    2  501    0 -0.10871621324E+03 -0.44172108022E+02  0.76329741160E+03  0.77226506376E+03  0.00000000000E+00 0. -1.
<scales pt_clust_3="14000.00000" pt_clust_4="33.06876" pt_clust_5="79.15182" pt_clust_6="122.94067"></scales>
<clustering>
<clus scale="   33.069">  4  5 -1 -1</clus>
<clus scale="   79.152">  2  4  1 -1</clus>
<clus scale="  122.941">  1  6  2 -1</clus>
<clus scale="   79.152">  2  3  1 -1</clus>
</clustering>
</event>
<event>
 6    0  0.1631680E+002  0.8151094E+02  0.7546771E-02  0.1324817E+00
         21   -1    0    0  505  502  0.00000000000E+00  0.00000000000E+00  0.10110836606E+03  0.10110836606E+03  0.00000000000E+00 0. -1.
          2   -1    0    0  503    0 -0.00000000000E+00 -0.00000000000E+00 -0.22827029562E+04  0.22827029562E+04  0.00000000000E+00 0.  1.
         21    1    1    2  503  504 -0.16839823619E+02  0.37954475632E+02 -0.36819960420E+03  0.37053349432E+03  0.00000000000E+00 0. -1.
         21    1    1    2  504  502 -0.94162345884E+02  0.31841850130E+02 -0.23948834803E+03  0.25929735757E+03  0.00000000000E+00 0. -1.
         21    1    1    2  505  501  0.35833928269E+02  0.12247413907E+02  0.84105994837E+02  0.92238212960E+02  0.00000000000E+00 0. -1.
          2    1    1    2  501    0  0.75168241234E+02 -0.82043739669E+02 -0.16580126328E+04  0.16617422575E+04  0.00000000000E+00 0.  1.
<scales pt_clust_3="41.36166" pt_clust_4="14000.00000" pt_clust_5="37.86911" pt_clust_6="81.51094"></scales>
<clustering>
<clus scale="   37.869">  1  5  2 -1</clus>
<clus scale="   41.362">  2  3  1 -1</clus>
<clus scale="   81.511">  2  6  1 -1</clus>
<clus scale="   37.869">  1  3  2 -1</clus>
</clustering>
</event>
<event>
 6    0  0.1631680E+002  0.2001784E+03  0.7546771E-02  0.1149589E+00
         21   -1    0    0  503  502  0.00000000000E+00  0.00000000000E+00  0.73657030475E+03  0.73657030475E+03  0.00000000000E+00 0. -1.
          3   -1    0    0  504    0 -0.00000000000E+00 -0.00000000000E+00 -0.67658937879E+03  0.67658937879E+03  0.00000000000E+00 0.  1.
         21    1    1    2  503  505 -0.26263782332E+02  0.44522534741E+02  0.22681082754E+03  0.23262672643E+03  0.00000000000E+00 0. -1.
         21    1    1    2  504  502  0.74928100669E+02 -0.17430680179E+02 -0.80707505900E+02  0.11149775957E+03  0.00000000000E+00 0.  1.
         21    1    1    2  505  501 -0.10675379690E+03 -0.19490156960E+03  0.45129383831E+03  0.50303988260E+03  0.00000000000E+00 0. -1.
          3    1    1    2  501    0  0.58089478561E+02  0.16780971503E+03 -0.53741623399E+03  0.56599531494E+03  0.00000000000E+00 0.  1.
<scales pt_clust_3="51.69180" pt_clust_4="75.85397" pt_clust_5="14000.00000" pt_clust_6="200.17844"></scales>
<clustering>
<clus scale="   51.692">  1  3  2 -1</clus>
<clus scale="   75.854">  2  4  1 -1</clus>
<clus scale="  200.178">  2  6  1 -1</clus>
<clus scale="   51.692">  1  3  2 -1</clus>
</clustering>
</event>
<event>
 6    0  0.1631680E+002  0.2492708E+03  0.7546771E-02  0.1113767E+00
         -2   -1    0    0    0  501 -0.00000000000E+00  0.00000000000E+00  0.30851575167E+03  0.30851575167E+03  0.00000000000E+00 0. -1.
         21   -1    0    0  503  502  0.00000000000E+00 -0.00000000000E+00 -0.34305606203E+03  0.34305606203E+03  0.00000000000E+00 0.  1.
         21    1    1    2  503  504  0.32459958574E+02 -0.18866558183E+02 -0.38689203120E+02  0.53911504953E+02  0.00000000000E+00 0.  1.
         21    1    1    2  504  501  0.24105668516E+02 -0.54180375207E+02  0.58544065442E+02  0.83330690089E+02  0.00000000000E+00 0. -1.
         21    1    1    2  505  502 -0.12938033156E+03 -0.19417564149E+03 -0.42043691616E+02  0.23708884822E+03  0.00000000000E+00 0.  1.
         -2    1    1    2    0  505  0.72814704473E+02  0.26722257488E+03 -0.12351481070E+02  0.27724077045E+03  0.00000000000E+00 0. -1.
<scales pt_clust_3="37.54459" pt_clust_4="60.57879" pt_clust_5="249.27082" pt_clust_6="14000.00000"></scales>
<clustering>
<clus scale="   37.545">  2  3  1 -1</clus>
<clus scale="   60.579">  1  4  2 -1</clus>
<clus scale="  249.271">  2  5  1 -1</clus>
<clus scale="   37.545">  2  3  1 -1</clus>
</clustering>
</event>
<event>
 6    0  0.1631680E+002  0.1847792E+03  0.7546771E-02  0.1163256E+00
          1   -1    0    0  505    0 -0.00000000000E+00  0.00000000000E+00  0.13043762961E+04  0.13043762961E+04  0.00000000000E+00 0. -1.
         21   -1    0    0  503  502  0.00000000000E+00 -0.00000000000E+00 -0.49009360196E+03  0.49009360196E+03  0.00000000000E+00 0. -1.
         21    1    1    2  503  504  0.21191711619E+02 -0.28223984790E+02 -0.17991246247E+03  0.18334169223E+03  0.00000000000E+00 0. -1.
         21    1    1    2  504  501  0.17398321972E+03  0.18577967341E+03  0.12769414152E+03  0.28476313240E+03  0.00000000000E+00 0. -1.
         21    1    1    2  505  502 -0.47005316197E+02 -0.57489672653E+02 -0.21640835160E+03  0.22879496685E+03  0.00000000000E+00 0. -1.
          1    1    1    2  501    0 -0.14816961515E+03 -0.10006601597E+03  0.10829093666E+04  0.10975701065E+04  0.00000000000E+00 0. -1.
<scales pt_clust_3="35.29422" pt_clust_4="184.77921" pt_clust_5="84.06802" pt_clust_6="14000.00000"></scales>
<clustering>
<clus scale="   35.294">  2  3  1 -1</clus>
<clus scale="   84.068">  2  5  1 -1</clus>
<clus scale="  184.779">  2  4  1 -1</clus>
<clus scale="   35.294">  2  3  1 -1</clus>
</clustering>
</event>
<event>
 6    0  0.1631680E+002  0.1714547E+03  0.7546771E-02  0.1176339E+00
         21   -1    0    0  501  502  0.00000000000E+00  0.00000000000E+00  0.37132360979E+03  0.37132360979E+03  0.00000000000E+00 0. -1.
          1   -1    0    0  504    0 -0.00000000000E+00 -0.00000000000E+00 -0.30977851309E+03  0.30977851309E+03  0.00000000000E+00 0. -1.
         21    1    1    2  503  505 -0.11567601916E+03 -0.14888268827E+03 -0.14126500365E+03  0.23559031715E+03  0.00000000000E+00 0. -1.
         21    1    1    2  504  503  0.41207660100E+01  0.33850201628E+02 -0.48360573722E+02  0.59173997275E+02  0.00000000000E+00 0. -1.
         21    1    1    2  505  502 -0.31414034163E+02  0.72091517078E+01  0.19647456950E+03  0.19910065262E+03  0.00000000000E+00 0.  1.
          1    1    1    2  501    0  0.14296928731E+03  0.10782333493E+03  0.54696104571E+02  0.18723715584E+03  0.00000000000E+00 0. -1.
<scales pt_clust_3="171.45470" pt_clust_4="34.21937" pt_clust_5="32.23063" pt_clust_6="14000.00000"></scales>
<clustering>
<clus scale="   32.231">  1  5  2 -1</clus>
<clus scale="   34.219">  2  4  1 -1</clus>
<clus scale="  171.455">  2  3  1 -1</clus>
<clus scale="   32.231">  1  3  2 -1</clus>
</clustering>
</event>
<event>
 6    0  0.1631680E+002  0.9780693E+02  0.7546771E-02  0.1284976E+00
          1   -1    0    0  503    0 -0.00000000000E+00  0.00000000000E+00  0.11704409901E+04  0.11704409901E+04  0.00000000000E+00 0. -1.
         21   -1    0    0  505  502  0.00000000000E+00 -0.00000000000E+00 -0.10528988414E+03  0.10528988414E+03  0.00000000000E+00 0.  1.
         21    1    1    2  503  504  0.22222371992E+02  0.82533802460E+02  0.47103530014E+03  0.47872739252E+03  0.00000000000E+00 0. -1.
         21    1    1    2  504  502  0.65536493673E+02 -0.80469280174E+02 -0.19151426262E+02  0.10553252666E+03  0.00000000000E+00 0.  1.
         21    1    1    2  505  501  0.30546651500E+02  0.52616906316E+02 -0.36369863415E+01  0.60949687593E+02  0.00000000000E+00 0.  1.
          1    1    1    2  501    0 -0.11830551716E+03 -0.54681428601E+02  0.61690421838E+03  0.63052126743E+03  0.00000000000E+00 0. -1.
<scales pt_clust_3="88.57248" pt_clust_4="97.80693" pt_clust_5="60.84108" pt_clust_6="14000.00000"></scales>
<clustering>
<clus scale="   60.841">  2  5  1 -1</clus>
<clus scale="   88.572">  1  3  2 -1</clus>
<clus scale="   97.807">  2  4  1 -1</clus>
<clus scale="   60.841">  2  3  1 -1</clus>
</clustering>
</event>
<event>
 6    0  0.1631680E+002  0.7781504E+02  0.7546771E-02  0.1335369E+00
         -2   -1    0    0    0  501 -0.00000000000E+00  0.00000000000E+00  0.11887499778E+03  0.11887499778E+03  0.00000000000E+00 0. -1.
         21   -1    0    0  503  502  0.00000000000E+00 -0.00000000000E+00 -0.59766691639E+03  0.59766691639E+03  0.00000000000E+00 0. -1.
         21    1    1    2  503  504 -0.11264612360E+02 -0.77175624002E+02 -0.25490701777E+03  0.26657185925E+03  0.00000000000E+00 0. -1.
         21    1    1    2  504  501 -0.78827562954E+01 -0.43369916766E+02 -0.38132467080E+02  0.58285268917E+02  0.00000000000E+00 0.  1.
         21    1    1    2  505  502 -0.43852319319E+02  0.75894891942E+02 -0.26614926254E+03  0.28021151026E+03  0.00000000000E+00 0. -1.
         -2    1    1    2    0  505  0.62999687975E+02  0.44650648826E+02  0.80396828785E+02  0.11147327574E+03  0.00000000000E+00 0. -1.
<scales pt_clust_3="77.81504" pt_clust_4="44.08047" pt_clust_5="14000.00000" pt_clust_6="56.41410"></scales>
<clustering>
<clus scale="   44.080">  1  4  2 -1</clus>
<clus scale="   56.414">  1  6  2 -1</clus>
<clus scale="   77.815">  2  3  1 -1</clus>
<clus scale="   77.815">  2  3  1 -1</clus>
</clustering>
</event>
<event>
 6    0  0.1631680E+002  0.9821375E+02  0.7546771E-02  0.1284098E+00
          1   -1    0    0  504    0 -0.00000000000E+00  0.00000000000E+00  0.13353404630E+04  0.13353404630E+04  0.00000000000E+00 0. -1.
         21   -1    0    0  505  502  0.00000000000E+00 -0.00000000000E+00 -0.10241521865E+03  0.10241521865E+03  0.00000000000E+00 0.  1.
         21    1    1    2  503  502 -0.52986218745E+02 -0.15204445548E+03  0.15093415568E+03  0.22069475564E+03  0.00000000000E+00 0.  1.
         21    1    1    2  504  503 -0.58841381727E+02  0.15853419318E+02  0.22117114149E+03  0.22941297464E+03  0.00000000000E+00 0.  1.
         21    1    1    2  505  501  0.50408535219E+02  0.62879464073E+02 -0.34189581027E+02  0.87542988730E+02  0.00000000000E+00 0.  1.
          1    1    1    2  501    0  0.61419065253E+02  0.73311572086E+02  0.89500952817E+03  0.90010496260E+03  0.00000000000E+00 0. -1.
<scales pt_clust_3="14000.00000" pt_clust_4="60.93963" pt_clust_5="80.01464" pt_clust_6="98.21375"></scales>
<clustering>
<clus scale="   60.940">  1  4  2 -1</clus>
<clus scale="   80.015">  2  5  1 -1</clus>
<clus scale="   98.214">  1  6  2 -1</clus>
<clus scale="   80.015">  2  3  1 -1</clus>
</clustering>
</event>
<event>
 6    0  0.1631680E+002  0.2615486E+03  0.7546771E-02  0.1106216E+00
         21   -1    0    0  503  502  0.00000000000E+00  0.00000000000E+00  0.55168401177E+03  0.55168401177E+03  0.00000000000E+00 0. -1.
          2   -1    0    0  504    0 -0.00000000000E+00 -0.00000000000E+00 -0.10747508612E+04  0.10747508612E+04  0.00000000000E+00 0.  1.
         21    1    1    2  503  501  0.11057268202E+03 -0.77906578172E+02  0.13973328399E+02  0.13598164155E+03  0.00000000000E+00 0. -1.
         21    1    1    2  504  505  0.21366446908E+03  0.37142932487E+02  0.39748281848E+03  0.45279652579E+03  0.00000000000E+00 0. -1.
         21    1    1    2  505  502 -0.62984142266E+02  0.34739656126E+01  0.35403573335E+01  0.63179148017E+02  0.00000000000E+00 0.  1.
          2    1    1    2  501    0 -0.26125300883E+03  0.37289680072E+02 -0.93806335366E+03  0.97447755764E+03  0.00000000000E+00 0.  1.
<scales pt_clust_3="127.61616" pt_clust_4="14000.00000" pt_clust_5="63.07987" pt_clust_6="261.54865"></scales>
<clustering>
<clus scale="   63.080">  1  5  2 -1</clus>
<clus scale="  127.616">  1  3  2 -1</clus>
<clus scale="  261.549">  2  6  1 -1</clus>
<clus scale="   63.080">  1  3  2 -1</clus>
</clustering>
</event>
<event>
 6    0  0.1631680E+002  0.1683964E+03  0.7546771E-02  0.1179531E+00
          2   -1    0    0  505    0 -0.00000000000E+00  0.00000000000E+00  0.45472056310E+03  0.45472056310E+03  0.00000000000E+00 0.  1.
         21   -1    0    0  503  502  0.00000000000E+00 -0.00000000000E+00 -0.10090046012E+04  0.10090046012E+04  0.00000000000E+00 0. -1.
         21    1    1    2  503  504 -0.78284113901E+02 -0.16222326842E+02 -0.58387476450E+03  0.58932275283E+03  0.00000000000E+00 0. -1.
         21    1    1    2  504  501  0.21724722981E+03  0.26961094621E+02  0.12233897520E+03  0.25077895513E+03  0.00000000000E+00 0. -1.
         21    1    1    2  505  502 -0.10759533196E+01  0.56877925838E+02 -0.33335956259E+03  0.33817873099E+03  0.00000000000E+00 0. -1.
          2    1    1    2  501    0 -0.13788716259E+03 -0.67616693616E+02  0.24061131383E+03  0.28544472531E+03  0.00000000000E+00 0.  1.
<scales pt_clust_3="85.94976" pt_clust_4="14000.00000" pt_clust_5="56.88810" pt_clust_6="168.39639"></scales>
<clustering>
<clus scale="   56.888">  2  5  1 -1</clus>
<clus scale="   85.950">  2  3  1 -1</clus>
<clus scale="  168.396">  1  6  2 -1</clus>
<clus scale="   56.888">  2  3  1 -1</clus>
</clustering>
</event>
<event>
 6    0  0.1631680E+002  0.1133321E+03  0.7546771E-02  0.1254521E+00
         21   -1    0    0  505  502  0.00000000000E+00  0.00000000000E+00  0.10967180709E+03  0.10967180709E+03  0.00000000000E+00 0. -1.
         -3   -1    0    0    0  501 -0.00000000000E+00 -0.00000000000E+00 -0.11163204136E+04  0.11163204136E+04  0.00000000000E+00 0. -1.
         21    1    1    2  503  501  0.91761456412E+01  0.69890027303E+02 -0.33255116936E+03  0.33993984439E+03  0.00000000000E+00 0.  1.
         21    1    1    2  504  503  0.46467260533E+02  0.32752666112E+02  0.34383692410E+02  0.66439308716E+02  0.00000000000E+00 0. -1.
         21    1    1    2  505  504  0.52132280126E+02 -0.19881711705E+02  0.33641607234E+02  0.65152243466E+02  0.00000000000E+00 0. -1.
         -3    1    1    2    0  502 -0.10777568630E+03 -0.82760981710E+02 -0.74212273679E+03  0.75446082411E+03  0.00000000000E+00 0. -1.
<scales pt_clust_3="70.48984" pt_clust_4="52.43432" pt_clust_5="52.43432" pt_clust_6="100.21381"></scales>
<clustering>
<clus scale="   52.434">  4  5 -1 -1</clus>
<clus scale="   70.490">  2  3  1 -1</clus>
<clus scale="  100.214">  2  6  1 -1</clus>
<clus scale="  113.332">  1  3  2 -1</clus>
</clustering>
</event>
<event>
 6    0  0.1631680E+002  0.8393282E+02  0.7546771E-02  0.1318247E+00
         21   -1    0    0  501  502  0.00000000000E+00  0.00000000000E+00  0.51850989777E+02  0.51850989777E+02  0.00000000000E+00 0.  1.
          1   -1    0    0  505    0 -0.00000000000E+00 -0.00000000000E+00 -0.26920087097E+04  0.26920087097E+04  0.00000000000E+00 0. -1.
         21    1    1    2  503  502 -0.33463813185E+02  0.19915054630E+02  0.28384339097E+02  0.48188244414E+02  0.00000000000E+00 0.  1.
         21    1    1    2  504  503 -0.48713399470E+02 -0.22349771223E+02 -0.83528782961E+02  0.99244975412E+02  0.00000000000E+00 0. -1.
         21    1    1    2  505  504 -0.46163511758E+02 -0.58985279518E+02 -0.15338424618E+04  0.15356702219E+04  0.00000000000E+00 0. -1.
          1    1    1    2  501    0  0.12834072441E+03  0.61419996111E+02 -0.10511708143E+04  0.10607562578E+04  0.00000000000E+00 0. -1.
<scales pt_clust_3="38.94145" pt_clust_4="68.95225" pt_clust_5="14000.00000" pt_clust_6="83.93282"></scales>
<clustering>
<clus scale="   38.941">  1  3  2 -1</clus>
<clus scale="   68.952">  1  4  2 -1</clus>
<clus scale="   83.933">  1  6  2 -1</clus>
<clus scale="   38.941">  1  3  2 -1</clus>
</clustering>
</event>
<event>
 6    0  0.1631680E+002  0.8798574E+02  0.7546771E-02  0.1307804E+00
         21   -1    0    0  504  502  0.00000000000E+00  0.00000000000E+00  0.43803725895E+02  0.43803725895E+02  0.00000000000E+00 0. -1.
          2   -1    0    0  505    0 -0.00000000000E+00 -0.00000000000E+00 -0.19997066970E+04  0.19997066970E+04  0.00000000000E+00 0. -1.
         21    1    1    2  503  502  0.37696376605E+02 -0.79937318266E+02 -0.43587000831E+03  0.44473998674E+03  0.00000000000E+00 0.  1.
         21    1    1    2  504  501  0.34722405431E+02  0.34721409018E+02  0.16966510993E+02  0.51952710982E+02  0.00000000000E+00 0. -1.
         21    1    1    2  505  503 -0.47082852593E+02 -0.53966401847E+02 -0.64409928395E+03  0.64806871173E+03  0.00000000000E+00 0. -1.
          2    1    1    2  501    0 -0.25335929442E+02  0.99182311095E+02 -0.89290018983E+03  0.89874901343E+03  0.00000000000E+00 0. -1.
<scales pt_clust_3="87.98574" pt_clust_4="49.10419" pt_clust_5="61.21658" pt_clust_6="14000.00000"></scales>
<clustering>
<clus scale="   49.104">  1  4  2 -1</clus>
<clus scale="   61.217">  2  5  1 -1</clus>
<clus scale="   87.986">  1  3  2 -1</clus>
<clus scale="   49.104">  1  3  2 -1</clus>
</clustering>
</event>
<event>
 6    0  0.1631680E+002  0.1762622E+03  0.7546771E-02  0.1171470E+00
         21   -1    0    0  505  502  0.00000000000E+00  0.00000000000E+00  0.45680352467E+03  0.45680352467E+03  0.00000000000E+00 0.  1.
         -2   -1    0    0    0  501 -0.00000000000E+00 -0.00000000000E+00 -0.41005004190E+03  0.41005004190E+03  0.00000000000E+00 0.  1.
         21    1    1    2  503  501  0.97449501075E+01  0.30277618804E+02 -0.90747244348E+02  0.96160078046E+02  0.00000000000E+00 0.  1.
         21    1    1    2  504  503  0.18720459219E+03 -0.83295275653E+02  0.33178687391E+03  0.38995665398E+03  0.00000000000E+00 0.  1.
         21    1    1    2  505  504 -0.18073619920E+02  0.43152036314E+02  0.55982302416E+02  0.72957331084E+02  0.00000000000E+00 0. -1.
         -2    1    1    2    0  502 -0.17887592238E+03  0.98656205353E+01 -0.25026844921E+03  0.30777950346E+03  0.00000000000E+00 0.  1.
<scales pt_clust_3="31.80720" pt_clust_4="176.26220" pt_clust_5="47.43512" pt_clust_6="14000.00000"></scales>
<clustering>
<clus scale="   31.807">  2  3  1 -1</clus>
<clus scale="   47.435">  1  5  2 -1</clus>
<clus scale="  176.262">  1  4  2 -1</clus>
<clus scale="   47.435">  1  3  2 -1</clus>
</clustering>
</event>
<event>
 6    0  0.1631680E+002  0.1366685E+03  0.7546771E-02  0.1217883E+00
          2   -1    0    0  504    0 -0.00000000000E+00  0.00000000000E+00  0.27122488132E+04  0.27122488132E+04  0.00000000000E+00 0.  1.
         21   -1    0    0  503  502  0.00000000000E+00 -0.00000000000E+00 -0.43464819952E+02  0.43464819952E+02  0.00000000000E+00 0.  1.
         21    1    1    2  503  505  0.25508628500E+02  0.39521175874E+02  0.78493306935E+01  0.47688840023E+02  0.00000000000E+00 0.  1.
         21    1    1    2  504  502  0.84050330770E+02  0.26958586573E+02  0.50865570271E+03  0.51625753979E+03  0.00000000000E+00 0.  1.
         21    1    1    2  505  501  0.55122360318E+02  0.80440605466E+02  0.16051853427E+03  0.18781737262E+03  0.00000000000E+00 0.  1.
          2    1    1    2  501    0 -0.16468131959E+03 -0.14692036791E+03  0.19917604256E+04  0.20039498807E+04  0.00000000000E+00 0.  1.
<scales pt_clust_3="47.03843" pt_clust_4="94.26079" pt_clust_5="136.66854" pt_clust_6="14000.00000"></scales>
<clustering>
<clus scale="   47.038">  2  3  1 -1</clus>
<clus scale="   94.261">  1  4  2 -1</clus>
<clus scale="  136.669">  2  5  1 -1</clus>
<clus scale="   47.038">  2  3  1 -1</clus>
</clustering>
</event>
<event>
 6    0  0.1631680E+002  0.6494225E+02  0.7546771E-02  0.1378189E+00
          2   -1    0    0  503    0 -0.00000000000E+00  0.00000000000E+00  0.19206044604E+04  0.19206044604E+04  0.00000000000E+00 0.  1.
         21   -1    0    0  504  502  0.00000000000E+00 -0.00000000000E+00 -0.59059313005E+02  0.59059313005E+02  0.00000000000E+00 0. -1.
         21    1    1    2  503  505  0.23189125770E+02  0.34760018645E+02  0.26766120721E+03  0.27090314929E+03  0.00000000000E+00 0. -1.
         21    1    1    2  504  501 -0.30868618678E+02  0.47998473571E+02  0.65835972376E+02  0.87126920885E+02  0.00000000000E+00 0. -1.
         21    1    1    2  505  502  0.74681096948E+02 -0.27485104249E+01 -0.14022656658E+02  0.76035882652E+02  0.00000000000E+00 0. -1.
          2    1    1    2  501    0 -0.67001604041E+02 -0.80009981791E+02  0.15420706245E+04  0.15455978206E+04  0.00000000000E+00 0.  1.
<scales pt_clust_3="41.78510" pt_clust_4="57.86805" pt_clust_5="14000.00000" pt_clust_6="64.94225"></scales>
<clustering>
<clus scale="   41.785">  1  3  2 -1</clus>
<clus scale="   57.868">  2  4  1 -1</clus>
<clus scale="   64.942">  1  6  2 -1</clus>
<clus scale="   57.868">  2  3  1 -1</clus>
</clustering>
</event>
<event>
 6    0  0.1631680E+002  0.1279357E+03  0.7546771E-02  0.1230551E+00
          1   -1    0    0  504    0 -0.00000000000E+00  0.00000000000E+00  0.51914773769E+03  0.51914773769E+03  0.00000000000E+00 0.  1.
         21   -1    0    0  503  502  0.00000000000E+00 -0.00000000000E+00 -0.23551650216E+03  0.23551650216E+03  0.00000000000E+00 0. -1.
         21    1    1    2  503  501  0.27769631917E+02 -0.13200384366E+03  0.39215601445E+02  0.14047786514E+03  0.00000000000E+00 0.  1.
         21    1    1    2  504  505  0.83462979456E+01  0.60983825556E+02  0.23411267391E+03  0.24206906402E+03  0.00000000000E+00 0. -1.
         21    1    1    2  505  502  0.61121642124E+02  0.11813646113E+03 -0.13600494825E+03  0.19023518216E+03  0.00000000000E+00 0. -1.
          1    1    1    2  501    0 -0.97237571987E+02 -0.47116443023E+02  0.14630790843E+03  0.18188212853E+03  0.00000000000E+00 0.  1.
<scales pt_clust_3="14000.00000" pt_clust_4="61.55232" pt_clust_5="127.93566" pt_clust_6="93.07911"></scales>
<clustering>
<clus scale="   61.552">  1  4  2 -1</clus>
<clus scale="   93.079">  1  6  2 -1</clus>
<clus scale="  127.936">  2  5  1 -1</clus>
<clus scale="  127.936">  2  3  1 -1</clus>
</clustering>
</event>
<event>
 6    0  0.1631680E+002  0.1317412E+03  0.7546771E-02  0.1224895E+00
          2   -1    0    0  503    0 -0.00000000000E+00  0.00000000000E+00  0.19604950268E+04  0.19604950268E+04  0.00000000000E+00 0. -1.
         21   -1    0    0  504  502  0.00000000000E+00 -0.00000000000E+00 -0.67848035227E+02  0.67848035227E+02  0.00000000000E+00 0. -1.
         21    1    1    2  503  502 -0.79340578291E+02  0.12630766063E+03  0.94912074365E+02  0.17679608128E+03  0.00000000000E+00 0. -1.
         21    1    1    2  504  505  0.74499475634E+02 -0.87441787891E+02  0.11276526356E+03  0.16097280145E+03  0.00000000000E+00 0. -1.
         21    1    1    2  505  501 -0.24709823134E+02 -0.75742719130E+02  0.70924272836E+03  0.71370356773E+03  0.00000000000E+00 0. -1.
          2    1    1    2  501    0  0.29550925791E+02  0.36876846395E+02  0.97572692526E+03  0.97687061154E+03  0.00000000000E+00 0. -1.
<scales pt_clust_3="131.74121" pt_clust_4="14000.00000" pt_clust_5="49.19855" pt_clust_6="47.25631"></scales>
<clustering>
<clus scale="   47.256">  1  6  2 -1</clus>
<clus scale="   49.199">  1  5  2 -1</clus>
<clus scale="  131.741">  2  3  1 -1</clus>
<clus scale="  131.741">  2  3  1 -1</clus>
</clustering>
</event>
<event>
 6    0  0.1631680E+002  0.1847268E+03  0.7546771E-02  0.1163305E+00
         21   -1    0    0  501  502  0.00000000000E+00  0.00000000000E+00  0.25217089925E+03  0.25217089925E+03  0.00000000000E+00 0.  1.
          1   -1    0    0  505    0 -0.00000000000E+00 -0.00000000000E+00 -0.12677423875E+04  0.12677423875E+04  0.00000000000E+00 0.  1.
         21    1    1    2  503  502  0.12314350845E+02  0.39921760457E+02  0.89463902570E+02  0.98737936264E+02  0.00000000000E+00 0.  1.
         21    1    1    2  504  503 -0.27321237746E+02  0.13139691732E+03  0.11582667035E+03  0.17727779748E+03  0.00000000000E+00 0.  1.
         21    1    1    2  505  504 -0.41107052468E+02  0.42436713208E+01 -0.10365809456E+03  0.11159211028E+03  0.00000000000E+00 0.  1.
          1    1    1    2  501    0  0.56113939368E+02 -0.17556234910E+03 -0.11172039666E+04  0.11323054427E+04  0.00000000000E+00 0.  1.
<scales pt_clust_3="37.28242" pt_clust_4="37.28242" pt_clust_5="41.32552" pt_clust_6="172.21734"></scales>
<clustering>
<clus scale="   37.282">  3  4 -1 -1</clus>
<clus scale="   41.326">  2  5  1 -1</clus>
<clus scale="  172.217">  2  6  1 -1</clus>
<clus scale="  184.727">  1  3  2 -1</clus>
</clustering>
</event>
<event>
 6    0  0.1631680E+002  0.6668080E+02  0.7546771E-02  0.1371758E+00
         21   -1    0    0  505  502  0.00000000000E+00  0.00000000000E+00  0.17848265599E+04  0.17848265599E+04  0.00000000000E+00 0. -1.
         -4   -1    0    0    0  501 -0.00000000000E+00 -0.00000000000E+00 -0.73202153840E+02  0.73202153840E+02  0.00000000000E+00 0.  1.
         21    1    1    2  503  501  0.35779163738E+02 -0.36711765823E+02  0.29337834356E+02  0.59064463363E+02  0.00000000000E+00 0. -1.
         21    1    1    2  504  503  0.31313436994E+02 -0.74245300212E+02  0.33425720308E+03  0.34383247920E+03  0.00000000000E+00 0. -1.
         21    1    1    2  505  504  0.25720898825E+02  0.62705775146E+02  0.13488204781E+04  0.13505222179E+04  0.00000000000E+00 0. -1.
         -4    1    1    2    0  502 -0.92813499558E+02  0.48251290888E+02 -0.79110953626E+00  0.10460955323E+03  0.00000000000E+00 0.  1.
<scales pt_clust_3="51.26307" pt_clust_4="66.68080" pt_clust_5="14000.00000" pt_clust_6="62.34560"></scales>
<clustering>
<clus scale="   51.263">  2  3  1 -1</clus>
<clus scale="   62.346">  2  6  1 -1</clus>
<clus scale="   66.681">  2  4  1 -1</clus>
<clus scale="   66.681">  1  3  2 -1</clus>
</clustering>
</event>
<event>
 6    0  0.1631680E+002  0.8636715E+02  0.7546771E-02  0.1311896E+00
         21   -1    0    0  503  502  0.00000000000E+00  0.00000000000E+00  0.40440932026E+03  0.40440932026E+03  0.00000000000E+00 0. -1.
          2   -1    0    0  504    0 -0.00000000000E+00 -0.00000000000E+00 -0.12842675149E+04  0.12842675149E+04  0.00000000000E+00 0.  1.
         21    1    1    2  503  501  0.66469183187E+02 -0.38644111180E+02  0.13074267555E+03  0.15167454253E+03  0.00000000000E+00 0. -1.
         21    1    1    2  504  505 -0.15739926141E+02 -0.64310713882E+02 -0.51980065677E+02  0.84175652197E+02  0.00000000000E+00 0. -1.
         21    1    1    2  505  502 -0.10476001817E+03 -0.83919913945E+01  0.23257535510E+03  0.25521830406E+03  0.00000000000E+00 0. -1.
          2    1    1    2  501    0  0.54030761128E+02  0.11134681646E+03 -0.11911961596E+04  0.11976083363E+04  0.00000000000E+00 0.  1.
<scales pt_clust_3="86.36715" pt_clust_4="66.20886" pt_clust_5="14000.00000" pt_clust_6="61.72490"></scales>
<clustering>
<clus scale="   66.209">  2  4  1 -1</clus>
<clus scale="   61.725">  2  6  1 -1</clus>
<clus scale="   86.367">  1  3  2 -1</clus>
<clus scale="   86.367">  1  3  2 -1</clus>
</clustering>
</event>
<event>
 6    0  0.1631680E+002  0.1008028E+03  0.7546771E-02  0.1278617E+00
          2   -1    0    0  503    0 -0.00000000000E+00  0.00000000000E+00  0.16439355696E+04  0.16439355696E+04  0.00000000000E+00 0. -1.
         21   -1    0    0  505  502  0.00000000000E+00 -0.00000000000E+00 -0.76614624308E+02  0.76614624308E+02  0.00000000000E+00 0. -1.
         21    1    1    2  503  504 -0.18762056293E+02  0.25372539547E+02  0.29412852423E+03  0.29581644525E+03  0.00000000000E+00 0.  1.
         21    1    1    2  504  502  0.52435361072E+02 -0.35596099851E+02  0.21738174242E+03  0.22643182495E+03  0.00000000000E+00 0. -1.
         21    1    1    2  505  501 -0.76732269816E+02 -0.66311410427E+02 -0.32468138572E+02  0.10648579439E+03  0.00000000000E+00 0. -1.
          2    1    1    2  501    0  0.43058965038E+02  0.76534970731E+02  0.10882788172E+04  0.10918161293E+04  0.00000000000E+00 0. -1.
<scales pt_clust_3="31.55599" pt_clust_4="58.50368" pt_clust_5="100.80284" pt_clust_6="14000.00000"></scales>
<clustering>
<clus scale="   31.556">  1  3  2 -1</clus>
<clus scale="   58.504">  1  4  2 -1</clus>
<clus scale="  100.803">  2  5  1 -1</clus>
<clus scale="  100.803">  2  3  1 -1</clus>
</clustering>
</event>
<event>
 6    0  0.1631680E+002  0.1342232E+03  0.7546771E-02  0.1221320E+00
          2   -1    0    0  504    0 -0.00000000000E+00  0.00000000000E+00  0.45566348466E+03  0.45566348466E+03  0.00000000000E+00 0.  1.
         21   -1    0    0  501  502  0.00000000000E+00 -0.00000000000E+00 -0.41284755112E+03  0.41284755112E+03  0.00000000000E+00 0. -1.
         21    1    1    2  503  505 -0.12687448894E+03  0.12294137967E+03 -0.31452526362E+03  0.36074625463E+03  0.00000000000E+00 0. -1.
         21    1    1    2  504  503  0.24951251114E+02 -0.74619806713E+02  0.34704180055E+03  0.35584925435E+03  0.00000000000E+00 0.  1.
         21    1    1    2  505  502  0.11235809102E+02 -0.33203914486E+02 -0.34901871581E+02  0.49465988146E+02  0.00000000000E+00 0.  1.
          2    1    1    2  501    0  0.90687428722E+02 -0.15117658469E+02  0.45201268190E+02  0.10244953866E+03  0.00000000000E+00 0.  1.
<scales pt_clust_3="134.22323" pt_clust_4="79.09733" pt_clust_5="35.05344" pt_clust_6="14000.00000"></scales>
<clustering>
<clus scale="   35.053">  2  5  1 -1</clus>
<clus scale="   79.097">  1  4  2 -1</clus>
<clus scale="  134.223">  2  3  1 -1</clus>
<clus scale="   35.053">  2  3  1 -1</clus>
</clustering>
</event>
<event>
 6    0  0.1631680E+002  0.1474959E+03  0.7546771E-02  0.1203584E+00
         21   -1    0    0  501  502  0.00000000000E+00  0.00000000000E+00  0.96763593888E+03  0.96763593888E+03  0.00000000000E+00 0.  1.
          2   -1    0    0  503    0 -0.00000000000E+00 -0.00000000000E+00 -0.10471599436E+04  0.10471599436E+04  0.00000000000E+00 0.  1.
         21    1    1    2  503  505  0.46935084365E+02 -0.21445792888E+01 -0.14701367465E+03  0.15433898373E+03  0.00000000000E+00 0.  1.
         21    1    1    2  504  502  0.20195423473E+02  0.27269499655E+02  0.92828785733E+03  0.92890786777E+03  0.00000000000E+00 0.  1.
         21    1    1    2  505  504 -0.12640896472E+03 -0.12961008481E+03 -0.24780802380E+03  0.30689870822E+03  0.00000000000E+00 0.  1.
          2    1    1    2  501    0  0.59278456882E+02  0.10448516445E+03 -0.61299016361E+03  0.62465032276E+03  0.00000000000E+00 0.  1.
<scales pt_clust_3="48.83163" pt_clust_4="33.93348" pt_clust_5="147.49589" pt_clust_6="14000.00000"></scales>
<clustering>
<clus scale="   33.933">  1  4  2 -1</clus>
<clus scale="   48.832">  2  3  1 -1</clus>
<clus scale="  147.496">  1  5  2 -1</clus>
<clus scale="   33.933">  1  3  2 -1</clus>
</clustering>
</event>
<event>
 6    0  0.1631680E+002  0.1021637E+03  0.7546771E-02  0.1275811E+00
          1   -1    0    0  505    0 -0.00000000000E+00  0.00000000000E+00  0.26644986682E+03  0.26644986682E+03  0.00000000000E+00 0.  1.
         21   -1    0    0  503  502  0.00000000000E+00 -0.00000000000E+00 -0.22884410323E+04  0.22884410323E+04  0.00000000000E+00 0. -1.
         21    1    1    2  503  501 -0.52659734283E+01 -0.14134024378E+03 -0.16970782171E+03  0.22091975860E+03  0.00000000000E+00 0.  1.
         21    1    1    2  504  502  0.58563556639E+01  0.10012599350E+03 -0.20637225651E+04  0.20661583524E+04  0.00000000000E+00 0. -1.
         21    1    1    2  505  504  0.41205009535E+02 -0.44922424596E+02  0.12390276053E+03  0.13808610035E+03  0.00000000000E+00 0.  1.
          1    1    1    2  501    0 -0.41795391770E+02  0.86136674874E+02  0.87536460843E+02  0.12972668773E+03  0.00000000000E+00 0.  1.
<scales pt_clust_3="102.16371" pt_clust_4="14000.00000" pt_clust_5="60.95799" pt_clust_6="50.86834"></scales>
<clustering>
<clus scale="   60.958">  1  5  2 -1</clus>
<clus scale="   50.868">  1  6  2 -1</clus>
<clus scale="  102.164">  1  3  2 -1</clus>
<clus scale="  102.164">  2  3  1 -1</clus>
</clustering>
</event>
<event>
 6    0  0.1631680E+002  0.1339713E+03  0.7546771E-02  0.1221679E+00
         -2   -1    0    0    0  501 -0.00000000000E+00  0.00000000000E+00  0.49692174271E+03  0.49692174271E+03  0.00000000000E+00 0.  1.
         21   -1    0    0  504  502  0.00000000000E+00 -0.00000000000E+00 -0.14114120823E+03  0.14114120823E+03  0.00000000000E+00 0. -1.
         21    1    1    2  503  502 -0.62203037587E+02 -0.19413348832E+02 -0.43681669664E+01  0.65308321680E+02  0.00000000000E+00 0. -1.
         21    1    1    2  504  505 -0.56685308711E+02  0.98726659454E+02 -0.54719924344E+02  0.12631091651E+03  0.00000000000E+00 0. -1.
         21    1    1    2  505  501  0.29532918021E+02  0.14151870443E+02  0.12162254058E+03  0.12595440072E+03  0.00000000000E+00 0.  1.
         -2    1    1    2    0  503  0.89355428277E+02 -0.93465181065E+02  0.29324608520E+03  0.32048931202E+03  0.00000000000E+00 0.  1.
<scales pt_clust_3="62.51682" pt_clust_4="14000.00000" pt_clust_5="32.74857" pt_clust_6="133.97127"></scales>
<clustering>
<clus scale="   32.749">  1  5  2 -1</clus>
<clus scale="   62.517">  2  3  1 -1</clus>
<clus scale="  133.971">  1  6  2 -1</clus>
<clus scale="   62.517">  2  3  1 -1</clus>
</clustering>
</event>
<event>
 6    0  0.1631680E+002  0.9901182E+02  0.7546771E-02  0.1282388E+00
          2   -1    0    0  503    0 -0.00000000000E+00  0.00000000000E+00  0.33727987878E+03  0.33727987878E+03  0.00000000000E+00 0.  1.
         21   -1    0    0  505  502  0.00000000000E+00 -0.00000000000E+00 -0.39049593896E+03  0.39049593896E+03  0.00000000000E+00 0.  1.
         21    1    1    2  503  504 -0.45515011434E+02 -0.32061287140E+02  0.11254718967E+02  0.56799745580E+02  0.00000000000E+00 0.  1.
         21    1    1    2  504  502 -0.71003022506E+02  0.13173111460E+03 -0.96150483556E+02  0.17787476281E+03  0.00000000000E+00 0.  1.
         21    1    1    2  505  501  0.67075689375E+02 -0.59298053655E+02 -0.21785396136E+03  0.23553291862E+03  0.00000000000E+00 0.  1.
          2    1    1    2  501    0  0.49442344564E+02 -0.40371773801E+02  0.24953366577E+03  0.25756839074E+03  0.00000000000E+00 0.  1.
<scales pt_clust_3="55.67353" pt_clust_4="14000.00000" pt_clust_5="99.01182" pt_clust_6="68.13661"></scales>
<clustering>
<clus scale="   55.674">  1  3  2 -1</clus>
<clus scale="   68.137">  1  6  2 -1</clus>
<clus scale="   99.012">  2  5  1 -1</clus>
<clus scale="   99.012">  2  3  1 -1</clus>
</clustering>
</event>
<event>
 6    0  0.1631680E+002  0.7940472E+02  0.7546771E-02  0.1330749E+00
         21   -1    0    0  505  502  0.00000000000E+00  0.00000000000E+00  0.58886448517E+02  0.58886448517E+02  0.00000000000E+00 0. -1.
          2   -1    0    0  503    0 -0.00000000000E+00 -0.00000000000E+00 -0.28595468527E+04  0.28595468527E+04  0.00000000000E+00 0.  1.
         21    1    1    2  503  504 -0.10424886047E+02  0.33159663051E+02 -0.96763597105E+03  0.96826009624E+03  0.00000000000E+00 0.  1.
         21    1    1    2  504  502  0.25120378732E+02 -0.45941605620E+02 -0.11774967118E+03  0.12886679021E+03  0.00000000000E+00 0. -1.
         21    1    1    2  505  501  0.51223234758E+02  0.68549828881E+02  0.16693687145E+02  0.87187028904E+02  0.00000000000E+00 0. -1.
          2    1    1    2  501    0 -0.65918727444E+02 -0.55767886313E+02 -0.17319684491E+04  0.17341193859E+04  0.00000000000E+00 0.  1.
<scales pt_clust_3="34.75977" pt_clust_4="50.14023" pt_clust_5="14000.00000" pt_clust_6="79.40472"></scales>
<clustering>
<clus scale="   34.760">  2  3  1 -1</clus>
<clus scale="   50.140">  1  4  2 -1</clus>
<clus scale="   79.405">  2  6  1 -1</clus>
<clus scale="   50.140">  1  3  2 -1</clus>
</clustering>
</event>
<event>
 6    0  0.1631680E+002  0.1052868E+03  0.7546771E-02  0.1269555E+00
          2   -1    0    0  504    0 -0.00000000000E+00  0.00000000000E+00  0.70349955674E+03  0.70349955674E+03  0.00000000000E+00 0. -1.
         21   -1    0    0  505  502  0.00000000000E+00 -0.00000000000E+00 -0.20413482253E+03  0.20413482253E+03  0.00000000000E+00 0. -1.
         21    1    1    2  503  502  0.80384493806E+02 -0.60878111301E+01 -0.16352649428E+03  0.18231742270E+03  0.00000000000E+00 0. -1.
         21    1    1    2  504  503 -0.78889406441E+01  0.29886324453E+02  0.25556427073E+03  0.25742673569E+03  0.00000000000E+00 0. -1.
         21    1    1    2  505  501  0.25123998177E+02  0.21952946908E+02 -0.11592797343E+02  0.35320533866E+02  0.00000000000E+00 0.  1.
          2    1    1    2  501    0 -0.97619551339E+02 -0.45751460231E+02  0.41891975510E+03  0.43256968702E+03  0.00000000000E+00 0. -1.
<scales pt_clust_3="14000.00000" pt_clust_4="30.90999" pt_clust_5="33.73612" pt_clust_6="105.28685"></scales>
<clustering>
<clus scale="   30.910">  1  4  2 -1</clus>
<clus scale="   33.736">  2  5  1 -1</clus>
<clus scale="  105.287">  1  6  2 -1</clus>
<clus scale="   33.736">  2  3  1 -1</clus>
</clustering>
</event>
<event>
 6    0  0.1631680E+002  0.7478343E+02  0.7546771E-02  0.1344543E+00
          2   -1    0    0  503    0 -0.00000000000E+00  0.00000000000E+00  0.74239003608E+03  0.74239003608E+03  0.00000000000E+00 0. -1.
         21   -1    0    0  501  502  0.00000000000E+00 -0.00000000000E+00 -0.29243013198E+03  0.29243013198E+03  0.00000000000E+00 0. -1.
         21    1    1    2  503  504 -0.33773859661E+02 -0.10328068310E+02  0.91622745180E+02  0.98194042720E+02  0.00000000000E+00 0. -1.
         21    1    1    2  504  505  0.51591245797E+02  0.77907669021E+02  0.14376890420E+03  0.17146649629E+03  0.00000000000E+00 0.  1.
         21    1    1    2  505  502 -0.59321728819E+02 -0.44820625608E+02 -0.26909915242E+03  0.27918149978E+03  0.00000000000E+00 0. -1.
          2    1    1    2  501    0  0.41504342684E+02 -0.22758975103E+02  0.48366740713E+03  0.48597812927E+03  0.00000000000E+00 0. -1.
<scales pt_clust_3="35.31774" pt_clust_4="74.78343" pt_clust_5="14000.00000" pt_clust_6="34.53575"></scales>
<clustering>
<clus scale="   35.318">  1  3  2 -1</clus>
<clus scale="   34.536">  1  6  2 -1</clus>
<clus scale="   74.783">  1  4  2 -1</clus>
<clus scale="   74.783">  2  3  1 -1</clus>
</clustering>
</event>
<event>
 6    0  0.1631680E+002  0.1386952E+03  0.7546771E-02  0.1215095E+00
         21   -1    0    0  501  502  0.00000000000E+00  0.00000000000E+00  0.32211791185E+03  0.32211791185E+03  0.00000000000E+00 0.  1.
          2   -1    0    0  505    0 -0.00000000000E+00 -0.00000000000E+00 -0.96313796193E+03  0.96313796193E+03  0.00000000000E+00 0.  1.
         21    1    1    2  503  502  0.19287150310E+02 -0.34368073304E+02  0.11224005378E+03  0.11895792660E+03  0.00000000000E+00 0.  1.
         21    1    1    2  504  503  0.11258748058E+03  0.80160160784E+02  0.17090237825E+03  0.21979357372E+03  0.00000000000E+00 0.  1.
         21    1    1    2  505  504 -0.27335500086E+02  0.25264157778E+02 -0.45449707571E+02  0.58746771413E+02  0.00000000000E+00 0. -1.
          2    1    1    2  501    0 -0.10453913080E+03 -0.71056245258E+02 -0.87871277453E+03  0.88775760205E+03  0.00000000000E+00 0.  1.
<scales pt_clust_3="39.27960" pt_clust_4="14000.00000" pt_clust_5="37.22240" pt_clust_6="138.69522"></scales>
<clustering>
<clus scale="   37.222">  2  5  1 -1</clus>
<clus scale="   39.280">  1  3  2 -1</clus>
<clus scale="  138.695">  2  6  1 -1</clus>
<clus scale="   39.280">  1  3  2 -1</clus>
</clustering>
</event>
<event>
 6    0  0.1631680E+002  0.9784960E+02  0.7546771E-02  0.1284884E+00
         21   -1    0    0  505  502  0.00000000000E+00  0.00000000000E+00  0.10857519476E+04  0.10857519476E+04  0.00000000000E+00 0. -1.
          2   -1    0    0  504    0 -0.00000000000E+00 -0.00000000000E+00 -0.34506813970E+03  0.34506813970E+03  0.00000000000E+00 0.  1.
         21    1    1    2  503  501  0.13422514908E+03 -0.56971742304E+02  0.10150575476E+03  0.17766707156E+03  0.00000000000E+00 0. -1.
         21    1    1    2  504  502 -0.98602496404E+01 -0.50066820106E+02  0.58276125632E+01  0.51360218717E+02  0.00000000000E+00 0. -1.
         21    1    1    2  505  503 -0.47162888677E+02  0.49630451213E+02  0.90810449113E+03  0.91068177019E+03  0.00000000000E+00 0. -1.
          2    1    1    2  501    0 -0.77202010762E+02  0.57408111197E+02 -0.27475405051E+03  0.29111102688E+03  0.00000000000E+00 0.  1.
<scales pt_clust_3="97.84960" pt_clust_4="51.02853" pt_clust_5="68.34771" pt_clust_6="14000.00000"></scales>
<clustering>
<clus scale="   51.029">  2  4  1 -1</clus>
<clus scale="   68.348">  1  5  2 -1</clus>
<clus scale="   97.850">  1  3  2 -1</clus>
<clus scale="   68.348">  1  3  2 -1</clus>
</clustering>
</event>
<event>
 6    0  0.1631680E+002  0.1127553E+03  0.7546771E-02  0.1255551E+00
         21   -1    0    0  505  502  0.00000000000E+00  0.00000000000E+00  0.62000081466E+02  0.62000081466E+02  0.00000000000E+00 0.  1.
          2   -1    0    0  503    0 -0.00000000000E+00 -0.00000000000E+00 -0.93478244986E+03  0.93478244986E+03  0.00000000000E+00 0. -1.
         21    1    1    2  503  504 -0.23630250412E+02 -0.24075998218E+02 -0.96612430582E+02  0.10233281081E+03  0.00000000000E+00 0.  1.
         21    1    1    2  504  502  0.83196286955E+02 -0.85512271022E+02 -0.35229031875E+02  0.12439877550E+03  0.00000000000E+00 0.  1.
         21    1    1    2  505  501 -0.21713405685E+02  0.10616344926E+03 -0.19742946602E+03  0.22521221991E+03  0.00000000000E+00 0.  1.
          2    1    1    2  501    0 -0.37852630858E+02  0.34248199762E+01 -0.54351143992E+03  0.54483872511E+03  0.00000000000E+00 0. -1.
<scales pt_clust_3="33.73488" pt_clust_4="14000.00000" pt_clust_5="112.75534" pt_clust_6="54.64007"></scales>
<clustering>
<clus scale="   33.735">  2  3  1 -1</clus>
<clus scale="   54.640">  2  6  1 -1</clus>
<clus scale="  112.755">  2  5  1 -1</clus>
<clus scale="  112.755">  1  3  2 -1</clus>
</clustering>
</event>
<event>
 6    0  0.1631680E+002  0.3056800E+03  0.7546771E-02  0.1082435E+00
          1   -1    0    0  505    0 -0.00000000000E+00  0.00000000000E+00  0.24820833254E+04  0.24820833254E+04  0.00000000000E+00 0.  1.
         21   -1    0    0  501  502  0.00000000000E+00 -0.00000000000E+00 -0.11829492079E+03  0.11829492079E+03  0.00000000000E+00 0.  1.
         21    1    1    2  503  504  0.59190362941E+02  0.15637158916E+02 -0.18488931624E+01  0.61248985379E+02  0.00000000000E+00 0.  1.
         21    1    1    2  504  502  0.69886328815E+00  0.38765397150E+02 -0.32842006506E+02  0.50811827535E+02  0.00000000000E+00 0.  1.
         21    1    1    2  505  503  0.25106926533E+03  0.53046115826E+02  0.50489065806E+03  0.56636052386E+03  0.00000000000E+00 0.  1.
          1    1    1    2  501    0 -0.31095849155E+03 -0.10744867189E+03  0.18935886462E+04  0.19219569094E+04  0.00000000000E+00 0.  1.
<scales pt_clust_3="67.36637" pt_clust_4="38.77170" pt_clust_5="14000.00000" pt_clust_6="305.67996"></scales>
<clustering>
<clus scale="   38.772">  2  4  1 -1</clus>
<clus scale="   67.366">  2  3  1 -1</clus>
<clus scale="  305.680">  1  6  2 -1</clus>
<clus scale="   38.772">  2  3  1 -1</clus>
</clustering>
</event>
<event>
 6    0  0.1631680E+002  0.8024510E+02  0.7546771E-02  0.1328357E+00
         -2   -1    0    0    0  501 -0.00000000000E+00  0.00000000000E+00  0.16751992393E+03  0.16751992393E+03  0.00000000000E+00 0.  1.
         21   -1    0    0  504  502  0.00000000000E+00 -0.00000000000E+00 -0.15642372079E+04  0.15642372079E+04  0.00000000000E+00 0.  1.
         21    1    1    2  503  502 -0.29530265616E+02  0.32510593206E+02 -0.43043007188E+03  0.43266502289E+03  0.00000000000E+00 0. -1.
         21    1    1    2  504  505 -0.31202448787E+02 -0.83941755023E+02 -0.10628704740E+04  0.10666365151E+04  0.00000000000E+00 0.  1.
         21    1    1    2  505  501  0.17714376282E+01 -0.55435597567E+02 -0.24406847102E+02  0.60596515200E+02  0.00000000000E+00 0. -1.
         -2    1    1    2    0  503  0.58961276775E+02  0.10686675938E+03  0.12099010897E+03  0.17185907858E+03  0.00000000000E+00 0.  1.
<scales pt_clust_3="43.92010" pt_clust_4="80.24510" pt_clust_5="54.21977" pt_clust_6="14000.00000"></scales>
<clustering>
<clus scale="   43.920">  2  3  1 -1</clus>
<clus scale="   54.220">  1  5  2 -1</clus>
<clus scale="   80.245">  2  4  1 -1</clus>
<clus scale="   43.920">  2  3  1 -1</clus>
</clustering>
</event>
<event>
 6    0  0.1631680E+002  0.3553748E+03  0.7546771E-02  0.1060430E+00
          2   -1    0    0  504    0 -0.00000000000E+00  0.00000000000E+00  0.46384194964E+04  0.46384194964E+04  0.00000000000E+00 0.  1.
         21   -1    0    0  501  502  0.00000000000E+00 -0.00000000000E+00 -0.98421204167E+02  0.98421204167E+02  0.00000000000E+00 0.  1.
         21    1    1    2  503  502  0.38334241964E+02  0.48062208981E+02 -0.14948085283E+02  0.63268754474E+02  0.00000000000E+00 0. -1.
         21    1    1    2  504  505  0.29188353656E+03 -0.31610650822E+02  0.17657654056E+04  0.17900063407E+04  0.00000000000E+00 0.  1.
         21    1    1    2  505  503  0.12734016524E+03  0.13291317982E+02  0.12063048639E+03  0.17590875778E+03  0.00000000000E+00 0.  1.
          2    1    1    2  501    0 -0.45755794376E+03 -0.29742876141E+02  0.26685504855E+04  0.27076568476E+04  0.00000000000E+00 0.  1.
<scales pt_clust_3="61.47756" pt_clust_4="14000.00000" pt_clust_5="149.52485" pt_clust_6="355.37477"></scales>
<clustering>
<clus scale="   61.478">  2  3  1 -1</clus>
<clus scale="  149.525">  2  5  1 -1</clus>
<clus scale="  355.375">  2  6  1 -1</clus>
<clus scale="   61.478">  2  3  1 -1</clus>
</clustering>
</event>
<event>
 6    0  0.1631680E+002  0.8794081E+02  0.7546771E-02  0.1307916E+00
          2   -1    0    0  504    0 -0.00000000000E+00  0.00000000000E+00  0.61344564005E+03  0.61344564005E+03  0.00000000000E+00 0. -1.
         21   -1    0    0  501  502  0.00000000000E+00 -0.00000000000E+00 -0.58804957573E+03  0.58804957573E+03  0.00000000000E+00 0. -1.
         21    1    1    2  503  502 -0.13798814416E+02  0.10143996549E+03 -0.47765201814E+03  0.48849966664E+03  0.00000000000E+00 0. -1.
         21    1    1    2  504  505  0.32059235973E+02  0.93530975760E+01  0.99053778352E+02  0.10453193795E+03  0.00000000000E+00 0. -1.
         21    1    1    2  505  503  0.20705408653E+02 -0.59221805340E+02 -0.90303535312E+02  0.10995755847E+03  0.00000000000E+00 0.  1.
          2    1    1    2  501    0 -0.38965830210E+02 -0.51571257728E+02  0.49429783942E+03  0.49850605272E+03  0.00000000000E+00 0. -1.
<scales pt_clust_3="14000.00000" pt_clust_4="33.39573" pt_clust_5="87.94081" pt_clust_6="43.21810"></scales>
<clustering>
<clus scale="   33.396">  1  4  2 -1</clus>
<clus scale="   43.218">  1  6  2 -1</clus>
<clus scale="   87.941">  1  5  2 -1</clus>
<clus scale="   87.941">  2  3  1 -1</clus>
</clustering>
</event>
<event>
 6    0  0.1631680E+002  0.1069416E+03  0.7546771E-02  0.1266341E+00
         21   -1    0    0  501  502  0.00000000000E+00  0.00000000000E+00  0.18793775620E+03  0.18793775620E+03  0.00000000000E+00 0. -1.
          1   -1    0    0  505    0 -0.00000000000E+00 -0.00000000000E+00 -0.53254008447E+03  0.53254008447E+03  0.00000000000E+00 0.  1.
         21    1    1    2  503  504 -0.72003391287E+02  0.51083378419E+02 -0.52148640057E+02  0.10253526499E+03  0.00000000000E+00 0. -1.
         21    1    1    2  504  502  0.66344375547E+02 -0.91221234741E+02  0.13802386469E+03  0.17825116285E+03  0.00000000000E+00 0. -1.
         21    1    1    2  505  503 -0.36365635370E+02  0.11010473968E+02 -0.16293862432E+03  0.16731014694E+03  0.00000000000E+00 0.  1.
          1    1    1    2  501    0  0.42024651110E+02  0.29127382354E+02 -0.26753892857E+03  0.27238126589E+03  0.00000000000E+00 0.  1.
<scales pt_clust_3="14000.00000" pt_clust_4="106.94160" pt_clust_5="37.99592" pt_clust_6="40.24141"></scales>
<clustering>
<clus scale="   37.996">  2  5  1 -1</clus>
<clus scale="   40.241">  2  6  1 -1</clus>
<clus scale="  106.942">  1  4  2 -1</clus>
<clus scale="  106.942">  1  3  2 -1</clus>
</clustering>
</event>
<event>
 6    0  0.1631680E+002  0.1372992E+03  0.7546771E-02  0.1217010E+00
          2   -1    0    0  504    0 -0.00000000000E+00  0.00000000000E+00  0.24244455144E+04  0.24244455144E+04  0.00000000000E+00 0.  1.
         21   -1    0    0  503  502  0.00000000000E+00 -0.00000000000E+00 -0.24808366141E+02  0.24808366141E+02  0.00000000000E+00 0.  1.
         21    1    1    2  503  505 -0.58482721914E+02  0.58788051981E+02  0.15139031310E+03  0.17261312441E+03  0.00000000000E+00 0.  1.
         21    1    1    2  504  502  0.58924389860E+02 -0.13537141989E+03  0.45691776577E+03  0.48017845611E+03  0.00000000000E+00 0.  1.
         21    1    1    2  505  501 -0.29147732624E+02  0.21999485474E+02  0.16625284712E+03  0.17021626495E+03  0.00000000000E+00 0.  1.
          2    1    1    2  501    0  0.28706064677E+02  0.54583882437E+02  0.16250762222E+04  0.16262460350E+04  0.00000000000E+00 0.  1.
<scales pt_clust_3="32.70675" pt_clust_4="128.14833" pt_clust_5="32.70675" pt_clust_6="61.67202"></scales>
<clustering>
<clus scale="   32.707">  3  5 -1 -1</clus>
<clus scale="   61.672">  1  6  2 -1</clus>
<clus scale="  128.148">  1  4  2 -1</clus>
<clus scale="  137.299">  2  3  1 -1</clus>
</clustering>
</event>
<event>
 6    0  0.1631680E+002  0.1422394E+03  0.7546771E-02  0.1210347E+00
          2   -1    0    0  503    0 -0.00000000000E+00  0.00000000000E+00  0.20435286296E+04  0.20435286296E+04  0.00000000000E+00 0.  1.
         21   -1    0    0  504  502  0.00000000000E+00 -0.00000000000E+00 -0.64539950235E+02  0.64539950235E+02  0.00000000000E+00 0. -1.
         21    1    1    2  503  505  0.11770507609E+03  0.25650011066E+02  0.69273428916E+03  0.70313100016E+03  0.00000000000E+00 0. -1.
         21    1    1    2  504  501  0.94582604213E+02  0.42636857456E+02  0.93491442091E+02  0.13965822703E+03  0.00000000000E+00 0. -1.
         21    1    1    2  505  502 -0.83621504372E+02  0.10844500106E+03  0.16452193621E+03  0.21405686568E+03  0.00000000000E+00 0. -1.
          2    1    1    2  501    0 -0.12866617593E+03 -0.17673186958E+03  0.10282410119E+04  0.10512224869E+04  0.00000000000E+00 0.  1.
<scales pt_clust_3="133.22117" pt_clust_4="103.74859" pt_clust_5="142.23944" pt_clust_6="14000.00000"></scales>
<clustering>
<clus scale="  103.749">  2  4  1 -1</clus>
<clus scale="  133.221">  1  3  2 -1</clus>
<clus scale="  142.239">  2  5  1 -1</clus>
<clus scale="  103.749">  2  3  1 -1</clus>
</clustering>
</event>
<event>
 6    0  0.1631680E+002  0.1556034E+03  0.7546771E-02  0.1193752E+00
          2   -1    0    0  503    0 -0.00000000000E+00  0.00000000000E+00  0.25536725774E+04  0.25536725774E+04  0.00000000000E+00 0.  1.
         21   -1    0    0  504  502  0.00000000000E+00 -0.00000000000E+00 -0.10275911347E+03  0.10275911347E+03  0.00000000000E+00 0. -1.
         21    1    1    2  503  502 -0.71604642958E+02 -0.75238156975E+02  0.25176981091E+03  0.27235279114E+03  0.00000000000E+00 0.  1.
         21    1    1    2  504  505  0.26447577739E+00 -0.75895713661E+02 -0.50192483845E+02  0.90991838832E+02  0.00000000000E+00 0. -1.
         21    1    1    2  505  501 -0.84454444089E+02  0.69962980965E+02  0.14688794809E+03  0.18331241400E+03  0.00000000000E+00 0.  1.
          2    1    1    2  501    0  0.15579461127E+03  0.81170889670E+02  0.21024481887E+04  0.21097746469E+04  0.00000000000E+00 0.  1.
<scales pt_clust_3="155.60337" pt_clust_4="75.89617" pt_clust_5="88.52049" pt_clust_6="14000.00000"></scales>
<clustering>
<clus scale="   75.896">  2  4  1 -1</clus>
<clus scale="   88.520">  2  5  1 -1</clus>
<clus scale="  155.603">  2  3  1 -1</clus>
<clus scale="   75.896">  2  3  1 -1</clus>
</clustering>
</event>
<event>
 6    0  0.1631680E+002  0.7416890E+02  0.7546771E-02  0.1346464E+00
          2   -1    0    0  504    0 -0.00000000000E+00  0.00000000000E+00  0.12098064503E+04  0.12098064503E+04  0.00000000000E+00 0. -1.
         21   -1    0    0  503  502  0.00000000000E+00 -0.00000000000E+00 -0.47333794253E+02  0.47333794253E+02  0.00000000000E+00 0. -1.
         21    1    1    2  503  501 -0.49555759373E+02  0.45426748862E+02 -0.38612309119E+01  0.67337002482E+02  0.00000000000E+00 0. -1.
         21    1    1    2  504  505 -0.25481859346E+02 -0.58883837765E+02  0.52103825685E+03  0.52497380564E+03  0.00000000000E+00 0. -1.
         21    1    1    2  505  502 -0.23065344784E+02 -0.27212964806E+02  0.58634218387E+02  0.68633280188E+02  0.00000000000E+00 0. -1.
          2    1    1    2  501    0  0.98102963502E+02  0.40670053709E+02  0.58666141174E+03  0.59619615626E+03  0.00000000000E+00 0. -1.
<scales pt_clust_3="14000.00000" pt_clust_4="65.74941" pt_clust_5="35.67290" pt_clust_6="74.16890"></scales>
<clustering>
<clus scale="   35.673">  2  5  1 -1</clus>
<clus scale="   65.749">  1  4  2 -1</clus>
<clus scale="   74.169">  1  6  2 -1</clus>
<clus scale="   35.673">  2  3  1 -1</clus>
</clustering>
</event>
<event>
 6    0  0.1631680E+002  0.1529167E+03  0.7546771E-02  0.1196934E+00
          4   -1    0    0  505    0 -0.00000000000E+00  0.00000000000E+00  0.44232691883E+03  0.44232691883E+03  0.00000000000E+00 0.  1.
         21   -1    0    0  504  502  0.00000000000E+00 -0.00000000000E+00 -0.45895403717E+03  0.45895403717E+03  0.00000000000E+00 0.  1.
         21    1    1    2  503  502  0.75275691407E+02  0.12082877242E+03 -0.15529540700E+03  0.21067198531E+03  0.00000000000E+00 0. -1.
         21    1    1    2  504  501 -0.32770503426E+02  0.30565618742E+02 -0.25531605176E+03  0.25921892143E+03  0.00000000000E+00 0.  1.
         21    1    1    2  505  503 -0.22604284504E+02 -0.22446290215E+02  0.26521843043E+02  0.41451149329E+02  0.00000000000E+00 0. -1.
          4    1    1    2  501    0 -0.19900903477E+02 -0.12894810095E+03  0.36746249738E+03  0.38993889993E+03  0.00000000000E+00 0.  1.
<scales pt_clust_3="14000.00000" pt_clust_4="44.81862" pt_clust_5="31.85576" pt_clust_6="152.91675"></scales>
<clustering>
<clus scale="   31.856">  1  5  2 -1</clus>
<clus scale="   44.819">  2  4  1 -1</clus>
<clus scale="  152.917">  1  6  2 -1</clus>
<clus scale="   44.819">  2  3  1 -1</clus>
</clustering>
</event>
<event>
 6    0  0.1631680E+002  0.8281546E+02  0.7546771E-02  0.1321246E+00
         -4   -1    0    0    0  501 -0.00000000000E+00  0.00000000000E+00  0.92537090020E+02  0.92537090020E+02  0.00000000000E+00 0.  1.
         21   -1    0    0  504  502  0.00000000000E+00 -0.00000000000E+00 -0.37511714649E+03  0.37511714649E+03  0.00000000000E+00 0. -1.
         21    1    1    2  503  501  0.29807403712E+02 -0.31858832851E+02  0.39740799243E+02  0.59015232535E+02  0.00000000000E+00 0.  1.
         21    1    1    2  504  503  0.89682262763E+02 -0.16297959358E+02 -0.20776267746E+03  0.22687851789E+03  0.00000000000E+00 0. -1.
         21    1    1    2  505  502 -0.70738433982E+02  0.14606222666E+02 -0.95188021295E+02  0.11949069914E+03  0.00000000000E+00 0.  1.
         -4    1    1    2    0  505 -0.48751232493E+02  0.33550569543E+02 -0.19370156962E+02  0.62269786952E+02  0.00000000000E+00 0.  1.
<scales pt_clust_3="43.62874" pt_clust_4="82.81546" pt_clust_5="14000.00000" pt_clust_6="38.28338"></scales>
<clustering>
<clus scale="   43.629">  1  3  2 -1</clus>
<clus scale="   38.283">  1  6  2 -1</clus>
<clus scale="   82.815">  2  4  1 -1</clus>
<clus scale="   82.815">  2  3  1 -1</clus>
</clustering>
</event>
<event>
 6    0  0.1631680E+002  0.1802120E+03  0.7546771E-02  0.1167598E+00
         21   -1    0    0  504  502  0.00000000000E+00  0.00000000000E+00  0.29627754405E+03  0.29627754405E+03  0.00000000000E+00 0. -1.
          1   -1    0    0  503    0 -0.00000000000E+00 -0.00000000000E+00 -0.16246836263E+04  0.16246836263E+04  0.00000000000E+00 0.  1.
         21    1    1    2  503  505  0.16476602728E+01 -0.38360384844E+02 -0.32023868659E+03  0.32253224692E+03  0.00000000000E+00 0. -1.
         21    1    1    2  504  501 -0.72733728297E+02  0.11292728413E+02  0.18789287922E+03  0.20179557727E+03  0.00000000000E+00 0. -1.
         21    1    1    2  505  502 -0.14213802320E+02 -0.16884751516E+03  0.11954436830E+02  0.16986590038E+03  0.00000000000E+00 0. -1.
          1    1    1    2  501    0  0.85299870345E+02  0.19591517159E+03 -0.12080147117E+04  0.12267674457E+04  0.00000000000E+00 0.  1.
<scales pt_clust_3="38.39575" pt_clust_4="73.56537" pt_clust_5="14000.00000" pt_clust_6="180.21203"></scales>
<clustering>
<clus scale="   38.396">  2  3  1 -1</clus>
<clus scale="   73.565">  1  4  2 -1</clus>
<clus scale="  180.212">  2  6  1 -1</clus>
<clus scale="   73.565">  1  3  2 -1</clus>
</clustering>
</event>
<event>
 6    0  0.1631680E+002  0.1018036E+03  0.7546771E-02  0.1276548E+00
         21   -1    0    0  504  502  0.00000000000E+00  0.00000000000E+00  0.31133901204E+02  0.31133901204E+02  0.00000000000E+00 0. -1.
          2   -1    0    0  503    0 -0.00000000000E+00 -0.00000000000E+00 -0.14041747508E+04  0.14041747508E+04  0.00000000000E+00 0. -1.
         21    1    1    2  503  502 -0.10511459828E+02  0.39262840266E+02 -0.11293858583E+03  0.12002993620E+03  0.00000000000E+00 0. -1.
         21    1    1    2  504  505  0.58194059906E+02 -0.61040361544E+02 -0.86466154784E+02  0.12078439580E+03  0.00000000000E+00 0. -1.
         21    1    1    2  505  501  0.66286126086E+02 -0.12757577034E+02 -0.15685579770E+03  0.17076401130E+03  0.00000000000E+00 0. -1.
          2    1    1    2  501    0 -0.11396872617E+03  0.34535098312E+02 -0.10167803113E+04  0.10237303087E+04  0.00000000000E+00 0. -1.
<scales pt_clust_3="40.64556" pt_clust_4="63.31971" pt_clust_5="101.80360" pt_clust_6="14000.00000"></scales>
<clustering>
<clus scale="   40.646">  1  3  2 -1</clus>
<clus scale="   63.320">  1  4  2 -1</clus>
<clus scale="  101.804">  1  5  2 -1</clus>
<clus scale="   40.646">  1  3  2 -1</clus>
</clustering>
</event>
<event>
 6    0  0.1631680E+002  0.1715058E+03  0.7546771E-02  0.1176287E+00
          2   -1    0    0  505    0 -0.00000000000E+00  0.00000000000E+00  0.63747566331E+03  0.63747566331E+03  0.00000000000E+00 0. -1.
         21   -1    0    0  503  502  0.00000000000E+00 -0.00000000000E+00 -0.11133471529E+04  0.11133471529E+04  0.00000000000E+00 0. -1.
         21    1    1    2  503  501 -0.15545871965E+03 -0.49413647147E+02 -0.63291382786E+03  0.65359699780E+03  0.00000000000E+00 0. -1.
         21    1    1    2  504  502  0.66384467461E+01 -0.45179503430E+02 -0.41041406162E+03  0.41294667753E+03  0.00000000000E+00 0. -1.
         21    1    1    2  505  504  0.16823301394E+03 -0.13703074299E+02  0.84142044815E+02  0.18860011911E+03  0.00000000000E+00 0. -1.
          2    1    1    2  501    0 -0.19412741032E+02  0.10829622487E+03  0.48331435506E+03  0.49567902179E+03  0.00000000000E+00 0. -1.
<scales pt_clust_3="171.50584" pt_clust_4="45.66461" pt_clust_5="14000.00000" pt_clust_6="109.62025"></scales>
<clustering>
<clus scale="   45.665">  2  4  1 -1</clus>
<clus scale="  109.620">  1  6  2 -1</clus>
<clus scale="  171.506">  2  3  1 -1</clus>
<clus scale="   45.665">  2  3  1 -1</clus>
</clustering>
</event>
<event>
 6    0  0.1631680E+002  0.1190057E+03  0.7546771E-02  0.1244746E+00
         -4   -1    0    0    0  501 -0.00000000000E+00  0.00000000000E+00  0.13764710863E+03  0.13764710863E+03  0.00000000000E+00 0.  1.
         21   -1    0    0  503  502  0.00000000000E+00 -0.00000000000E+00 -0.46366297238E+03  0.46366297238E+03  0.00000000000E+00 0.  1.
         21    1    1    2  503  504 -0.79728739937E+02  0.79859208538E+02 -0.26830043758E+03  0.29106578288E+03  0.00000000000E+00 0.  1.
         21    1    1    2  504  501 -0.48577086943E+02  0.99761654184E+01 -0.12076562400E+02  0.51040186243E+02  0.00000000000E+00 0.  1.
         21    1    1    2  505  502  0.60782336724E+02  0.37531951667E+02 -0.83763960102E+02  0.11008878628E+03  0.00000000000E+00 0.  1.
         -4    1    1    2    0  505  0.67523490156E+02 -0.12736732562E+03  0.38125096331E+02  0.14911532560E+03  0.00000000000E+00 0.  1.
<scales pt_clust_3="14000.00000" pt_clust_4="49.59090" pt_clust_5="67.52246" pt_clust_6="119.00573"></scales>
<clustering>
<clus scale="   49.591">  1  4  2 -1</clus>
<clus scale="   67.522">  2  5  1 -1</clus>
<clus scale="  119.006">  1  6  2 -1</clus>
<clus scale="   67.522">  2  3  1 -1</clus>
</clustering>
</event>
<event>
 6    0  0.1631680E+002  0.5932791E+02  0.7546771E-02  0.1400674E+00
         -2   -1    0    0    0  501 -0.00000000000E+00  0.00000000000E+00  0.17947122565E+03  0.17947122565E+03  0.00000000000E+00 0. -1.
         21   -1    0    0  505  502  0.00000000000E+00 -0.00000000000E+00 -0.16137798996E+04  0.16137798996E+04  0.00000000000E+00 0. -1.
         21    1    1    2  503  502  0.31372620806E+01 -0.54886899953E+02 -0.14503422021E+04  0.14513837940E+04  0.00000000000E+00 0. -1.
         21    1    1    2  504  503 -0.97588135431E+02  0.20249784707E+02 -0.93769900334E+01  0.10010707218E+03  0.00000000000E+00 0. -1.
         21    1    1    2  505  501  0.48515319152E+02  0.32884524802E+02 -0.95698790753E+02  0.11222025983E+03  0.00000000000E+00 0. -1.
         -2    1    1    2    0  504  0.45935554199E+02  0.17525904445E+01  0.12110930892E+03  0.12953999930E+03  0.00000000000E+00 0. -1.
<scales pt_clust_3="54.98665" pt_clust_4="14000.00000" pt_clust_5="59.32791" pt_clust_6="45.96898"></scales>
<clustering>
<clus scale="   45.969">  1  6  2 -1</clus>
<clus scale="   54.987">  2  3  1 -1</clus>
<clus scale="   59.328">  2  5  1 -1</clus>
<clus scale="   54.987">  2  3  1 -1</clus>
</clustering>
</event>
<event>
 6    0  0.1631680E+002  0.1652020E+03  0.7546771E-02  0.1182946E+00
         21   -1    0    0  504  502  0.00000000000E+00  0.00000000000E+00  0.10367692442E+03  0.10367692442E+03  0.00000000000E+00 0. -1.
          2   -1    0    0  505    0 -0.00000000000E+00 -0.00000000000E+00 -0.19912270260E+04  0.19912270260E+04  0.00000000000E+00 0. -1.
         21    1    1    2  503  502  0.15525287680E+03  0.14040621484E+03 -0.27754924948E+02  0.21115799009E+03  0.00000000000E+00 0. -1.
         21    1    1    2  504  501 -0.10459349862E+02 -0.35524873719E+02 -0.60142424124E+02  0.70629496896E+02  0.00000000000E+00 0.  1.
         21    1    1    2  505  503 -0.72828738418E+02 -0.25020210317E+02 -0.12875995494E+04  0.12899002425E+04  0.00000000000E+00 0. -1.
          2    1    1    2  501    0 -0.71964788522E+02 -0.79861130804E+02 -0.51205320311E+03  0.52321622091E+03  0.00000000000E+00 0. -1.
<scales pt_clust_3="14000.00000" pt_clust_4="37.03262" pt_clust_5="77.25803" pt_clust_6="165.20199"></scales>
<clustering>
<clus scale="   37.033">  1  4  2 -1</clus>
<clus scale="   77.258">  2  5  1 -1</clus>
<clus scale="  165.202">  2  6  1 -1</clus>
<clus scale="   37.033">  1  3  2 -1</clus>
</clustering>
</event>
<event>
 6    0  0.1631680E+002  0.9420305E+02  0.7546771E-02  0.1292981E+00
         21   -1    0    0  505  502  0.00000000000E+00  0.00000000000E+00  0.53468957143E+03  0.53468957143E+03  0.00000000000E+00 0.  1.
         -4   -1    0    0    0  501 -0.00000000000E+00 -0.00000000000E+00 -0.13414525521E+03  0.13414525521E+03  0.00000000000E+00 0.  1.
         21    1    1    2  503  501 -0.26769500730E+02  0.33268361120E+02  0.15481151125E+02  0.45420876930E+02  0.00000000000E+00 0.  1.
         21    1    1    2  504  502  0.72450893106E+02  0.61404949502E+02  0.44863916579E+03  0.45858129140E+03  0.00000000000E+00 0.  1.
         21    1    1    2  505  503 -0.77782558292E+02 -0.39457950845E+02 -0.27353065766E+02  0.91407037290E+02  0.00000000000E+00 0. -1.
         -4    1    1    2    0  504  0.32101165916E+02 -0.55215359777E+02 -0.36222934933E+02  0.73425621030E+02  0.00000000000E+00 0.  1.
<scales pt_clust_3="42.70117" pt_clust_4="94.20305" pt_clust_5="14000.00000" pt_clust_6="44.54640"></scales>
<clustering>
<clus scale="   42.701">  2  3  1 -1</clus>
<clus scale="   44.546">  2  6  1 -1</clus>
<clus scale="   94.203">  1  4  2 -1</clus>
<clus scale="   94.203">  1  3  2 -1</clus>
</clustering>
</event>
<event>
 6    0  0.1631680E+002  0.1472106E+03  0.7546771E-02  0.1203943E+00
         21   -1    0    0  501  502  0.00000000000E+00  0.00000000000E+00  0.93071408715E+02  0.93071408715E+02  0.00000000000E+00 0.  1.
          1   -1    0    0  505    0 -0.00000000000E+00 -0.00000000000E+00 -0.10954243336E+04  0.10954243336E+04  0.00000000000E+00 0.  1.
         21    1    1    2  503  504 -0.36805694810E+02  0.73788145615E+02 -0.15735047663E+03  0.17764718433E+03  0.00000000000E+00 0.  1.
         21    1    1    2  504  502 -0.46180810449E+02 -0.32178760845E+02  0.61829821598E+02  0.83612599183E+02  0.00000000000E+00 0.  1.
         21    1    1    2  505  503 -0.44705388981E+02  0.21946317059E+02 -0.19543492701E+03  0.20168049814E+03  0.00000000000E+00 0.  1.
          1    1    1    2  501    0  0.12769189424E+03 -0.63555701829E+02 -0.71139734287E+03  0.72555546068E+03  0.00000000000E+00 0.  1.
<scales pt_clust_3="46.77652" pt_clust_4="56.28623" pt_clust_5="46.77652" pt_clust_6="134.34340"></scales>
<clustering>
<clus scale="   46.777">  3  5 -1 -1</clus>
<clus scale="   56.286">  1  4  2 -1</clus>
<clus scale="  134.343">  2  6  1 -1</clus>
<clus scale="   56.286">  1  3  2 -1</clus>
</clustering>
</event>
<event>
 6    0  0.1631680E+002  0.1007526E+03  0.7546771E-02  0.1278721E+00
         21   -1    0    0  501  502  0.00000000000E+00  0.00000000000E+00  0.12659584769E+04  0.12659584769E+04  0.00000000000E+00 0.  1.
          2   -1    0    0  505    0 -0.00000000000E+00 -0.00000000000E+00 -0.43277634367E+02  0.43277634367E+02  0.00000000000E+00 0.  1.
         21    1    1    2  503  504  0.42467562434E+02 -0.10092168431E+03  0.27345925502E+03  0.29456517849E+03  0.00000000000E+00 0.  1.
         21    1    1    2  504  502  0.30266424484E+02 -0.81270741538E+01  0.79740254146E+03  0.79801811941E+03  0.00000000000E+00 0.  1.
         21    1    1    2  505  503 -0.64593530891E+02  0.24668085472E+02  0.58422986379E+02  0.90521179905E+02  0.00000000000E+00 0.  1.
          2    1    1    2  501    0 -0.81404560270E+01  0.84380672988E+02  0.93396059697E+02  0.12613163348E+03  0.00000000000E+00 0.  1.
<scales pt_clust_3="100.75261" pt_clust_4="31.33857" pt_clust_5="64.18757" pt_clust_6="14000.00000"></scales>
<clustering>
<clus scale="   31.339">  1  4  2 -1</clus>
<clus scale="   64.188">  2  5  1 -1</clus>
<clus scale="  100.753">  1  3  2 -1</clus>
<clus scale="   31.339">  1  3  2 -1</clus>
</clustering>
</event>
<event>
 6    0  0.1631680E+002  0.1803375E+03  0.7546771E-02  0.1167477E+00
         21   -1    0    0  505  502  0.00000000000E+00  0.00000000000E+00  0.10240574185E+03  0.10240574185E+03  0.00000000000E+00 0. -1.
          1   -1    0    0  503    0 -0.00000000000E+00 -0.00000000000E+00 -0.21737020246E+04  0.21737020246E+04  0.00000000000E+00 0. -1.
         21    1    1    2  503  504 -0.31131792027E+02  0.30063891247E+02 -0.24376582769E+02  0.49671358138E+02  0.00000000000E+00 0. -1.
         21    1    1    2  504  502 -0.32490911690E+02  0.11907595335E+03 -0.40857388583E+01  0.12349670145E+03  0.00000000000E+00 0. -1.
         21    1    1    2  505  501 -0.96510155933E+02 -0.78545742607E+02 -0.12238275408E+03  0.17453132205E+03  0.00000000000E+00 0.  1.
          1    1    1    2  501    0  0.16013285965E+03 -0.70594101988E+02 -0.19204512070E+04  0.19284083848E+04  0.00000000000E+00 0. -1.
<scales pt_clust_3="31.81378" pt_clust_4="31.81378" pt_clust_5="124.43329" pt_clust_6="172.14848"></scales>
<clustering>
<clus scale="   31.814">  3  4 -1 -1</clus>
<clus scale="  124.433">  1  5  2 -1</clus>
<clus scale="  172.148">  2  6  1 -1</clus>
<clus scale="  124.433">  1  3  2 -1</clus>
</clustering>
</event>
<event>
 6    0  0.1631680E+002  0.2920334E+03  0.7546771E-02  0.1089292E+00
          2   -1    0    0  504    0 -0.00000000000E+00  0.00000000000E+00  0.22852381437E+04  0.22852381437E+04  0.00000000000E+00 0.  1.
         21   -1    0    0  505  502  0.00000000000E+00 -0.00000000000E+00 -0.19396795601E+03  0.19396795601E+03  0.00000000000E+00 0. -1.
         21    1    1    2  503  501  0.32140877077E+03  0.15933173212E+02  0.18197296486E+03  0.36969125480E+03  0.00000000000E+00 0. -1.
         21    1    1    2  504  502 -0.64906503475E+02 -0.27259553603E+02  0.30736758358E+03  0.31532644813E+03  0.00000000000E+00 0.  1.
         21    1    1    2  505  503 -0.26374403794E+03 -0.73580023598E+02  0.10254999665E+03  0.29238919138E+03  0.00000000000E+00 0. -1.
          2    1    1    2  501    0  0.72417706520E+01  0.84906403988E+02  0.14993796426E+04  0.15017992054E+04  0.00000000000E+00 0.  1.
<scales pt_clust_3="14000.00000" pt_clust_4="70.39842" pt_clust_5="292.03343" pt_clust_6="76.75941"></scales>
<clustering>
<clus scale="   70.398">  1  4  2 -1</clus>
<clus scale="   76.759">  1  6  2 -1</clus>
<clus scale="  292.033">  2  5  1 -1</clus>
<clus scale="  292.033">  2  3  1 -1</clus>
</clustering>
</event>
<event>
 6    0  0.1631680E+002  0.7779595E+02  0.7546771E-02  0.1335425E+00
         21   -1    0    0  501  502  0.00000000000E+00  0.00000000000E+00  0.20631686120E+03  0.20631686120E+03  0.00000000000E+00 0.  1.
          2   -1    0    0  505    0 -0.00000000000E+00 -0.00000000000E+00 -0.71475397384E+03  0.71475397384E+03  0.00000000000E+00 0.  1.
         21    1    1    2  503  504  0.65167643290E+02  0.11103780956E+02 -0.14574577975E+03  0.16003733314E+03  0.00000000000E+00 0.  1.
         21    1    1    2  504  502  0.75227096424E+02  0.16849169494E+02  0.17544355705E+03  0.19163364073E+03  0.00000000000E+00 0.  1.
         21    1    1    2  505  503 -0.25490712150E+02  0.21635450795E+02 -0.26446746624E+02  0.42629796434E+02  0.00000000000E+00 0. -1.
          2    1    1    2  501    0 -0.11490402757E+03 -0.49588401245E+02 -0.51168814332E+03  0.52677006474E+03  0.00000000000E+00 0.  1.
<scales pt_clust_3="61.54533" pt_clust_4="77.79595" pt_clust_5="33.43455" pt_clust_6="14000.00000"></scales>
<clustering>
<clus scale="   33.435">  2  5  1 -1</clus>
<clus scale="   61.545">  2  3  1 -1</clus>
<clus scale="   77.796">  1  4  2 -1</clus>
<clus scale="   77.796">  1  3  2 -1</clus>
</clustering>
</event>
<event>
 6    0  0.1631680E+002  0.1127342E+03  0.7546771E-02  0.1255589E+00
         21   -1    0    0  505  502  0.00000000000E+00  0.00000000000E+00  0.19893682272E+03  0.19893682272E+03  0.00000000000E+00 0. -1.
          1   -1    0    0  504    0 -0.00000000000E+00 -0.00000000000E+00 -0.10456811204E+04  0.10456811204E+04  0.00000000000E+00 0. -1.
         21    1    1    2  503  502  0.61277933404E+02 -0.25001391383E+02  0.74366266438E+02  0.99550973262E+02  0.00000000000E+00 0. -1.
         21    1    1    2  504  503 -0.27465905929E+02  0.26741315305E+02 -0.39825442785E+03  0.40009506775E+03  0.00000000000E+00 0. -1.
         21    1    1    2  505  501 -0.14307324061E+03 -0.49407973164E+02  0.50336738554E+02  0.15951453614E+03  0.00000000000E+00 0. -1.
          1    1    1    2  501    0  0.10926121314E+03  0.47668049242E+02 -0.57319287483E+03  0.58545736598E+03  0.00000000000E+00 0. -1.
<scales pt_clust_3="65.49049" pt_clust_4="38.33372" pt_clust_5="112.73419" pt_clust_6="14000.00000"></scales>
<clustering>
<clus scale="   38.334">  2  4  1 -1</clus>
<clus scale="   65.490">  1  3  2 -1</clus>
<clus scale="  112.734">  1  5  2 -1</clus>
<clus scale="   65.490">  1  3  2 -1</clus>
</clustering>
</event>
<event>
 6    0  0.1631680E+002  0.1575820E+03  0.7546771E-02  0.1191454E+00
         21   -1    0    0  503  502  0.00000000000E+00  0.00000000000E+00  0.90557418702E+02  0.90557418702E+02  0.00000000000E+00 0. -1.
          2   -1    0    0  504    0 -0.00000000000E+00 -0.00000000000E+00 -0.13321665995E+04  0.13321665995E+04  0.00000000000E+00 0. -1.
         21    1    1    2  503  505 -0.16306933066E+02  0.25912431180E+02 -0.49981936668E+02  0.58613685678E+02  0.00000000000E+00 0. -1.
         21    1    1    2  504  502  0.37904726365E+02  0.24424437851E+01  0.13434521313E+02  0.40289206686E+02  0.00000000000E+00 0. -1.
         21    1    1    2  505  501 -0.90948188507E+02  0.11475306671E+03 -0.45391328369E+02  0.15329778865E+03  0.00000000000E+00 0. -1.
          2    1    1    2  501    0  0.69350395209E+02 -0.14310794168E+03 -0.11596704370E+04  0.11705233372E+04  0.00000000000E+00 0. -1.
<scales pt_clust_3="30.61650" pt_clust_4="34.46811" pt_clust_5="14000.00000" pt_clust_6="157.58197"></scales>
<clustering>
<clus scale="   30.617">  1  3  2 -1</clus>
<clus scale="   34.468">  1  4  2 -1</clus>
<clus scale="  157.582">  2  6  1 -1</clus>
<clus scale="   30.617">  1  3  2 -1</clus>
</clustering>
</event>
<event>
 6    0  0.1631680E+002  0.1765461E+03  0.7546771E-02  0.1171188E+00
          2   -1    0    0  503    0 -0.00000000000E+00  0.00000000000E+00  0.31135933198E+04  0.31135933198E+04  0.00000000000E+00 0. -1.
         21   -1    0    0  505  502  0.00000000000E+00 -0.00000000000E+00 -0.69357042194E+02  0.69357042194E+02  0.00000000000E+00 0.  1.
         21    1    1    2  503  504 -0.46521265510E+02  0.14520931211E+02  0.32025211131E+03  0.32393903807E+03  0.00000000000E+00 0.  1.
         21    1    1    2  504  502  0.34601132753E+02 -0.43282271000E+02  0.82537031808E+02  0.99413052414E+02  0.00000000000E+00 0. -1.
         21    1    1    2  505  501 -0.19836019683E+03  0.80492725559E+02  0.15635775401E+03  0.26509167055E+03  0.00000000000E+00 0.  1.
          2    1    1    2  501    0  0.21028032959E+03 -0.51731385770E+02  0.24850893805E+04  0.24945066010E+04  0.00000000000E+00 0. -1.
<scales pt_clust_3="48.73485" pt_clust_4="54.10389" pt_clust_5="176.54611" pt_clust_6="14000.00000"></scales>
<clustering>
<clus scale="   48.735">  1  3  2 -1</clus>
<clus scale="   54.104">  2  4  1 -1</clus>
<clus scale="  176.546">  2  5  1 -1</clus>
<clus scale="   54.104">  2  3  1 -1</clus>
</clustering>
</event>
<event>
 6    0  0.1631680E+002  0.9952786E+02  0.7546771E-02  0.1281292E+00
         21   -1    0    0  503  502  0.00000000000E+00  0.00000000000E+00  0.32446243328E+02  0.32446243328E+02  0.00000000000E+00 0. -1.
          1   -1    0    0  504    0 -0.00000000000E+00 -0.00000000000E+00 -0.15379593974E+04  0.15379593974E+04  0.00000000000E+00 0. -1.
         21    1    1    2  503  501  0.12484269172E+02 -0.85600025092E+02 -0.10750336699E+03  0.13798621376E+03  0.00000000000E+00 0. -1.
         21    1    1    2  504  505  0.16209784884E+02  0.33320915413E+02 -0.69449990147E+03  0.69548770922E+03  0.00000000000E+00 0. -1.
         21    1    1    2  505  502  0.75769283703E+02  0.83389473161E+01 -0.11747029587E+03  0.14003496994E+03  0.00000000000E+00 0. -1.
          1    1    1    2  501    0 -0.10446333776E+03  0.43940162362E+02 -0.58603958976E+03  0.59689674783E+03  0.00000000000E+00 0. -1.
<scales pt_clust_3="99.52786" pt_clust_4="37.05456" pt_clust_5="79.38904" pt_clust_6="14000.00000"></scales>
<clustering>
<clus scale="   37.055">  2  4  1 -1</clus>
<clus scale="   79.389">  1  5  2 -1</clus>
<clus scale="   99.528">  1  3  2 -1</clus>
<clus scale="   79.389">  1  3  2 -1</clus>
</clustering>
</event>
<event>
 6    0  0.1631680E+002  0.6552198E+02  0.7546771E-02  0.1376019E+00
          1   -1    0    0  504    0 -0.00000000000E+00  0.00000000000E+00  0.44783142449E+03  0.44783142449E+03  0.00000000000E+00 0.  1.
         21   -1    0    0  505  502  0.00000000000E+00 -0.00000000000E+00 -0.58416653821E+03  0.58416653821E+03  0.00000000000E+00 0. -1.
         21    1    1    2  503  502  0.61225878876E+02  0.30615418895E+02 -0.36837799161E+03  0.37468420946E+03  0.00000000000E+00 0. -1.
         21    1    1    2  504  503  0.61792866540E+02  0.66796209622E+01  0.14480025795E+03  0.15757566562E+03  0.00000000000E+00 0.  1.
         21    1    1    2  505  501  0.33717228889E+01 -0.34749634057E+02 -0.19097853417E+03  0.19414351933E+03  0.00000000000E+00 0.  1.
          1    1    1    2  501    0 -0.12639046830E+03 -0.25454057997E+01  0.27822115411E+03  0.30559456828E+03  0.00000000000E+00 0.  1.
<scales pt_clust_3="14000.00000" pt_clust_4="62.14921" pt_clust_5="34.91283" pt_clust_6="65.52198"></scales>
<clustering>
<clus scale="   34.913">  2  5  1 -1</clus>
<clus scale="   62.149">  1  4  2 -1</clus>
<clus scale="   65.522">  1  6  2 -1</clus>
<clus scale="   34.913">  2  3  1 -1</clus>
</clustering>
</event>
<event>
 6    0  0.1631680E+002  0.2536981E+03  0.7546771E-02  0.1110990E+00
         21   -1    0    0  505  502  0.00000000000E+00  0.00000000000E+00  0.75509134305E+03  0.75509134305E+03  0.00000000000E+00 0. -1.
          2   -1    0    0  503    0 -0.00000000000E+00 -0.00000000000E+00 -0.23338482928E+04  0.23338482928E+04  0.00000000000E+00 0. -1.
         21    1    1    2  503  504  0.49180089840E+02 -0.22359672982E+02 -0.19325207622E+03  0.20066140928E+03  0.00000000000E+00 0. -1.
         21    1    1    2  504  502 -0.67783284252E+02  0.24662330869E+03  0.70446026328E+03  0.74945439658E+03  0.00000000000E+00 0. -1.
         21    1    1    2  505  501 -0.94046861946E+02 -0.22408426303E+03 -0.64156727780E+03  0.68605185017E+03  0.00000000000E+00 0.  1.
          2    1    1    2  501    0  0.11265005636E+03 -0.17937268373E+00 -0.14483978590E+04  0.14527719799E+04  0.00000000000E+00 0. -1.
<scales pt_clust_3="54.02440" pt_clust_4="14000.00000" pt_clust_5="253.69813" pt_clust_6="146.84028"></scales>
<clustering>
<clus scale="   54.024">  2  3  1 -1</clus>
<clus scale="  146.840">  2  6  1 -1</clus>
<clus scale="  253.698">  2  5  1 -1</clus>
<clus scale="  253.698">  1  3  2 -1</clus>
</clustering>
</event>
<event>
 6    0  0.1631680E+002  0.1451067E+03  0.7546771E-02  0.1206618E+00
         21   -1    0    0  504  502  0.00000000000E+00  0.00000000000E+00  0.28562840493E+03  0.28562840493E+03  0.00000000000E+00 0.  1.
          2   -1    0    0  505    0 -0.00000000000E+00 -0.00000000000E+00 -0.33367868120E+04  0.33367868120E+04  0.00000000000E+00 0. -1.
         21    1    1    2  503  502  0.47016448879E+02  0.83774928713E+02 -0.57132619517E+03  0.57934653397E+03  0.00000000000E+00 0. -1.
         21    1    1    2  504  501 -0.88882012484E+01 -0.14679736458E+03  0.26104201418E+03  0.29961875699E+03  0.00000000000E+00 0.  1.
         21    1    1    2  505  503  0.23228102635E+02  0.46395794481E+02 -0.91549246450E+03  0.91696159519E+03  0.00000000000E+00 0. -1.
          2    1    1    2  501    0 -0.61356350265E+02  0.16626641383E+02 -0.18253817616E+04  0.18264883308E+04  0.00000000000E+00 0. -1.
<scales pt_clust_3="145.10672" pt_clust_4="14000.00000" pt_clust_5="51.88559" pt_clust_6="67.72441"></scales>
<clustering>
<clus scale="   51.886">  2  5  1 -1</clus>
<clus scale="   67.724">  2  6  1 -1</clus>
<clus scale="  145.107">  2  3  1 -1</clus>
<clus scale="  145.107">  1  3  2 -1</clus>
</clustering>
</event>
<event>
 6    0  0.2657444E+002  0.1135775E+03  0.7546771E-02  0.1254085E+00
          2   -1    0    0  504    0 -0.00000000000E+00  0.00000000000E+00  0.13263182001E+04  0.13263182001E+04  0.00000000000E+00 0.  1.
         21   -1    0    0  505  502  0.00000000000E+00 -0.00000000000E+00 -0.77687103740E+03  0.77687103740E+03  0.00000000000E+00 0.  1.
         21    1    1    2  503  502  0.77457068558E+02 -0.71042668376E+02 -0.70686571665E+03  0.71463683055E+03  0.00000000000E+00 0.  1.
         21    1    1    2  504  503 -0.60399666237E+02  0.17940675371E+02  0.75319356649E+02  0.98198742356E+02  0.00000000000E+00 0.  1.
         21    1    1    2  505  501 -0.25354535302E+02 -0.30680663081E+02 -0.45798145210E+02  0.60676401114E+02  0.00000000000E+00 0.  1.
          2    1    1    2  501    0  0.82971329815E+01  0.83782656085E+02  0.12267916679E+04  0.12296772635E+04  0.00000000000E+00 0.  1.
<scales pt_clust_3="14000.00000" pt_clust_4="63.25661" pt_clust_5="39.80145" pt_clust_6="113.57747"></scales>
<clustering>
<clus scale="   39.801">  2  5  1 -1</clus>
<clus scale="   63.257">  1  4  2 -1</clus>
<clus scale="  113.577">  1  6  2 -1</clus>
<clus scale="   39.801">  2  3  1 -1</clus>
</clustering>
</event>
<event>
 6    0  0.1631680E+002  0.2597534E+03  0.7546771E-02  0.1107292E+00
         -1   -1    0    0    0  501 -0.00000000000E+00  0.00000000000E+00  0.32206583868E+03  0.32206583868E+03  0.00000000000E+00 0. -1.
         21   -1    0    0  504  502  0.00000000000E+00 -0.00000000000E+00 -0.29772533595E+04  0.29772533595E+04  0.00000000000E+00 0.  1.
         21    1    1    2  503  502 -0.76561966014E+02 -0.23506116977E+02 -0.14799933492E+04  0.14821587586E+04  0.00000000000E+00 0.  1.
         21    1    1    2  504  505  0.17070122009E+02  0.34425365778E+02 -0.12537306545E+04  0.12543193569E+04  0.00000000000E+00 0.  1.
         21    1    1    2  505  501 -0.23639355578E+02  0.24445866483E+03 -0.70729292838E+02  0.25558069334E+03  0.00000000000E+00 0.  1.
         -1    1    1    2    0  503  0.83131199583E+02 -0.25537791363E+03  0.14926577567E+03  0.30726038941E+03  0.00000000000E+00 0. -1.
<scales pt_clust_3="62.18867" pt_clust_4="38.42519" pt_clust_5="14000.00000" pt_clust_6="259.75336"></scales>
<clustering>
<clus scale="   38.425">  2  4  1 -1</clus>
<clus scale="   62.189">  2  3  1 -1</clus>
<clus scale="  259.753">  1  6  2 -1</clus>
<clus scale="   38.425">  2  3  1 -1</clus>
</clustering>
</event>
<event>
 6    0  0.1631680E+002  0.9668854E+02  0.7546771E-02  0.1287418E+00
         21   -1    0    0  505  502  0.00000000000E+00  0.00000000000E+00  0.85585311603E+03  0.85585311603E+03  0.00000000000E+00 0.  1.
         -2   -1    0    0    0  501 -0.00000000000E+00 -0.00000000000E+00 -0.40626497412E+03  0.40626497412E+03  0.00000000000E+00 0.  1.
         21    1    1    2  503  501  0.13694610616E+02 -0.30247652918E+02 -0.42432378584E+02  0.53879213239E+02  0.00000000000E+00 0.  1.
         21    1    1    2  504  503  0.40104850923E+01  0.94951717469E+02  0.55076994857E+03  0.55890915978E+03  0.00000000000E+00 0.  1.
         21    1    1    2  505  504  0.45545167179E+02 -0.11199155657E+02  0.28852397330E+03  0.29231124937E+03  0.00000000000E+00 0.  1.
         -2    1    1    2    0  502 -0.63250262888E+02 -0.53504908894E+02 -0.34727340136E+03  0.35701846777E+03  0.00000000000E+00 0.  1.
<scales pt_clust_3="33.20336" pt_clust_4="14000.00000" pt_clust_5="47.01056" pt_clust_6="96.68854"></scales>
<clustering>
<clus scale="   33.203">  2  3  1 -1</clus>
<clus scale="   47.011">  1  5  2 -1</clus>
<clus scale="   96.689">  2  6  1 -1</clus>
<clus scale="   47.011">  1  3  2 -1</clus>
</clustering>
</event>
<event>
 6    0  0.1631680E+002  0.1566793E+03  0.7546771E-02  0.1192498E+00
         21   -1    0    0  505  502  0.00000000000E+00  0.00000000000E+00  0.85987222247E+02  0.85987222247E+02  0.00000000000E+00 0. -1.
          2   -1    0    0  504    0 -0.00000000000E+00 -0.00000000000E+00 -0.16293299608E+04  0.16293299608E+04  0.00000000000E+00 0.  1.
         21    1    1    2  503  502  0.10294286319E+02  0.68869598149E+02 -0.19414716146E+01  0.69661777124E+02  0.00000000000E+00 0. -1.
         21    1    1    2  504  503  0.12328975625E+03 -0.10444296827E+03 -0.11779383369E+03  0.19996020822E+03  0.00000000000E+00 0. -1.
         21    1    1    2  505  501 -0.23652342921E+01 -0.49289115796E+02 -0.87295484190E+02  0.10027718000E+03  0.00000000000E+00 0.  1.
          2    1    1    2  501    0 -0.13121880827E+03  0.84862485915E+02 -0.13363119491E+04  0.13454180177E+04  0.00000000000E+00 0.  1.
<scales pt_clust_3="48.76813" pt_clust_4="156.67933" pt_clust_5="49.34583" pt_clust_6="14000.00000"></scales>
<clustering>
<clus scale="   49.346">  1  5  2 -1</clus>
<clus scale="   48.768">  1  3  2 -1</clus>
<clus scale="  156.679">  1  4  2 -1</clus>
<clus scale="   49.346">  1  3  2 -1</clus>
</clustering>
</event>
<event>
 6    0  0.1631680E+002  0.8891028E+02  0.7546771E-02  0.1305512E+00
         21   -1    0    0  501  502  0.00000000000E+00  0.00000000000E+00  0.24726374618E+03  0.24726374618E+03  0.00000000000E+00 0.  1.
          2   -1    0    0  504    0 -0.00000000000E+00 -0.00000000000E+00 -0.17887299328E+03  0.17887299328E+03  0.00000000000E+00 0.  1.
         21    1    1    2  503  505 -0.58355487039E+02  0.73190772953E+02  0.98339059684E+02  0.13576753210E+03  0.00000000000E+00 0.  1.
         21    1    1    2  504  503  0.36952578616E+02 -0.16274324766E+02 -0.10808167665E+03  0.11537762149E+03  0.00000000000E+00 0.  1.
         21    1    1    2  505  502  0.44637236157E+02  0.37613462256E+02  0.38290538351E+02  0.69809889857E+02  0.00000000000E+00 0.  1.
          2    1    1    2  501    0 -0.23234327735E+02 -0.94529910443E+02  0.39842831510E+02  0.10518169601E+03  0.00000000000E+00 0.  1.
<scales pt_clust_3="88.91028" pt_clust_4="40.37755" pt_clust_5="63.11918" pt_clust_6="14000.00000"></scales>
<clustering>
<clus scale="   40.378">  2  4  1 -1</clus>
<clus scale="   63.119">  1  5  2 -1</clus>
<clus scale="   88.910">  1  3  2 -1</clus>
<clus scale="   63.119">  1  3  2 -1</clus>
</clustering>
</event>
<event>
 6    0  0.1631680E+002  0.1872089E+03  0.7546771E-02  0.1161003E+00
         21   -1    0    0  505  502  0.00000000000E+00  0.00000000000E+00  0.18695620686E+03  0.18695620686E+03  0.00000000000E+00 0.  1.
          2   -1    0    0  503    0 -0.00000000000E+00 -0.00000000000E+00 -0.77901538306E+03  0.77901538306E+03  0.00000000000E+00 0. -1.
         21    1    1    2  503  502 -0.10603445308E+02  0.39480147486E+02  0.74610424023E+02  0.85075439881E+02  0.00000000000E+00 0.  1.
         21    1    1    2  504  501  0.67233477782E+02  0.26531034904E+02 -0.28883468833E+02  0.77836309776E+02  0.00000000000E+00 0.  1.
         21    1    1    2  505  504  0.98448268349E+02  0.16218777494E+02  0.36545021856E+02  0.10625746518E+03  0.00000000000E+00 0.  1.
          2    1    1    2  501    0 -0.15507830082E+03 -0.82229959883E+02 -0.67433115324E+03  0.69680237508E+03  0.00000000000E+00 0. -1.
<scales pt_clust_3="40.87927" pt_clust_4="57.79022" pt_clust_5="57.79022" pt_clust_6="174.62340"></scales>
<clustering>
<clus scale="   40.879">  1  3  2 -1</clus>
<clus scale="   57.790">  4  5 -1 -1</clus>
<clus scale="  174.623">  2  6  1 -1</clus>
<clus scale="   40.879">  1  3  2 -1</clus>
</clustering>
</event>
<event>
 6    0  0.1631680E+002  0.9188395E+02  0.7546771E-02  0.1298353E+00
         21   -1    0    0  505  502  0.00000000000E+00  0.00000000000E+00  0.50945682557E+03  0.50945682557E+03  0.00000000000E+00 0. -1.
          2   -1    0    0  503    0 -0.00000000000E+00 -0.00000000000E+00 -0.10255426427E+04  0.10255426427E+04  0.00000000000E+00 0.  1.
         21    1    1    2  503  504  0.25352937830E+02 -0.21986510734E+02 -0.20469520704E+03  0.20742783298E+03  0.00000000000E+00 0.  1.
         21    1    1    2  504  502 -0.52762399194E+02 -0.79801394365E+02 -0.17662826080E+03  0.20087228735E+03  0.00000000000E+00 0.  1.
         21    1    1    2  505  501  0.73083430957E+02  0.55743735651E+02  0.49001686867E+03  0.49856301861E+03  0.00000000000E+00 0. -1.
          2    1    1    2  501    0 -0.45673969592E+02  0.46044169448E+02 -0.62477921796E+03  0.62813632934E+03  0.00000000000E+00 0.  1.
<scales pt_clust_3="33.55858" pt_clust_4="91.88395" pt_clust_5="14000.00000" pt_clust_6="39.32020"></scales>
<clustering>
<clus scale="   33.559">  2  3  1 -1</clus>
<clus scale="   39.320">  2  6  1 -1</clus>
<clus scale="   91.884">  2  4  1 -1</clus>
<clus scale="   91.884">  1  3  2 -1</clus>
</clustering>
</event>
<event>
 6    0  0.1631680E+002  0.7943056E+02  0.7546771E-02  0.1330675E+00
         -3   -1    0    0    0  501 -0.00000000000E+00  0.00000000000E+00  0.32993174372E+03  0.32993174372E+03  0.00000000000E+00 0.  1.
         21   -1    0    0  505  502  0.00000000000E+00 -0.00000000000E+00 -0.95702135914E+03  0.95702135914E+03  0.00000000000E+00 0. -1.
         21    1    1    2  503  502 -0.83984020409E+02  0.64270924361E+02 -0.74693407041E+03  0.75438357149E+03  0.00000000000E+00 0. -1.
         21    1    1    2  504  501 -0.27847770913E+02 -0.19481344175E+02 -0.90691187040E+01  0.35174849392E+02  0.00000000000E+00 0. -1.
         21    1    1    2  505  504  0.10136360852E+02 -0.38331486912E+02 -0.17365699698E+03  0.17812580190E+03  0.00000000000E+00 0. -1.
         -3    1    1    2    0  503  0.10169543047E+03 -0.64580932746E+01  0.30257057067E+03  0.31926888008E+03  0.00000000000E+00 0.  1.
<scales pt_clust_3="79.43056" pt_clust_4="33.98560" pt_clust_5="39.73231" pt_clust_6="14000.00000"></scales>
<clustering>
<clus scale="   33.986">  1  4  2 -1</clus>
<clus scale="   39.732">  2  5  1 -1</clus>
<clus scale="   79.431">  2  3  1 -1</clus>
<clus scale="   39.732">  2  3  1 -1</clus>
</clustering>
</event>
<event>
 6    0  0.1631680E+002  0.1665428E+03  0.7546771E-02  0.1181502E+00
          2   -1    0    0  504    0 -0.00000000000E+00  0.00000000000E+00  0.12470633590E+04  0.12470633590E+04  0.00000000000E+00 0.  1.
         21   -1    0    0  505  502  0.00000000000E+00 -0.00000000000E+00 -0.18301499985E+03  0.18301499985E+03  0.00000000000E+00 0. -1.
         21    1    1    2  503  502  0.10084441084E+03  0.62905014105E+02 -0.64441576330E+02  0.13520115664E+03  0.00000000000E+00 0. -1.
         21    1    1    2  504  503 -0.51026710436E+02  0.69453154784E+01  0.12834300452E+03  0.13828915140E+03  0.00000000000E+00 0. -1.
         21    1    1    2  505  501  0.38370585040E+02 -0.17173163991E+03  0.31683820480E+02  0.17879575617E+03  0.00000000000E+00 0. -1.
          2    1    1    2  501    0 -0.88188285444E+02  0.10188131033E+03  0.96846311047E+03  0.97779229463E+03  0.00000000000E+00 0.  1.
<scales pt_clust_3="117.60163" pt_clust_4="51.49721" pt_clust_5="166.54284" pt_clust_6="14000.00000"></scales>
<clustering>
<clus scale="   51.497">  1  4  2 -1</clus>
<clus scale="  117.602">  2  3  1 -1</clus>
<clus scale="  166.543">  2  5  1 -1</clus>
<clus scale="  117.602">  2  3  1 -1</clus>
</clustering>
</event>
<event>
 6    0  0.1631680E+002  0.5578884E+03  0.7546771E-02  0.9996844E-01
         21   -1    0    0  505  502  0.00000000000E+00  0.00000000000E+00  0.31713181629E+03  0.31713181629E+03  0.00000000000E+00 0. -1.
          2   -1    0    0  503    0 -0.00000000000E+00 -0.00000000000E+00 -0.25570040755E+04  0.25570040755E+04  0.00000000000E+00 0. -1.
         21    1    1    2  503  504  0.37572630717E+03 -0.34635067825E+03 -0.77991148299E+03  0.93241137462E+03  0.00000000000E+00 0. -1.
         21    1    1    2  504  502  0.45787797207E+02 -0.71381045374E+02  0.52618632231E+02  0.99802286896E+02  0.00000000000E+00 0. -1.
         21    1    1    2  505  501 -0.50952318588E+02 -0.44983319052E+02  0.10165198859E+03  0.12228149716E+03  0.00000000000E+00 0. -1.
          2    1    1    2  501    0 -0.37056178579E+03  0.46271504268E+03 -0.16142313970E+04  0.17196407331E+04  0.00000000000E+00 0. -1.
<scales pt_clust_3="14000.00000" pt_clust_4="92.09482" pt_clust_5="67.96792" pt_clust_6="557.88836"></scales>
<clustering>
<clus scale="   67.968">  1  5  2 -1</clus>
<clus scale="   92.095">  1  4  2 -1</clus>
<clus scale="  557.888">  2  6  1 -1</clus>
<clus scale="   67.968">  1  3  2 -1</clus>
</clustering>
</event>
<event>
 6    0  0.1631680E+002  0.1221073E+03  0.7546771E-02  0.1239661E+00
         21   -1    0    0  505  502  0.00000000000E+00  0.00000000000E+00  0.31508851353E+03  0.31508851353E+03  0.00000000000E+00 0. -1.
          2   -1    0    0  504    0 -0.00000000000E+00 -0.00000000000E+00 -0.71562260478E+03  0.71562260478E+03  0.00000000000E+00 0. -1.
         21    1    1    2  503  501  0.30979097534E+01 -0.15920655651E+03  0.16455958223E+03  0.22898947745E+03  0.00000000000E+00 0. -1.
         21    1    1    2  504  502  0.20696012213E+02  0.35580143985E+02 -0.68663385585E+02  0.80055806082E+02  0.00000000000E+00 0.  1.
         21    1    1    2  505  503  0.49631192218E+01  0.37682709753E+02  0.10592157804E+03  0.11253443855E+03  0.00000000000E+00 0. -1.
          2    1    1    2  501    0 -0.28757041188E+02  0.85943702770E+02 -0.60235186594E+03  0.60913139622E+03  0.00000000000E+00 0. -1.
<scales pt_clust_3="122.10730" pt_clust_4="42.13384" pt_clust_5="38.00815" pt_clust_6="14000.00000"></scales>
<clustering>
<clus scale="   38.008">  1  5  2 -1</clus>
<clus scale="   42.134">  2  4  1 -1</clus>
<clus scale="  122.107">  1  3  2 -1</clus>
<clus scale="   38.008">  1  3  2 -1</clus>
</clustering>
</event>
<event>
 6    0  0.1631680E+002  0.1216291E+03  0.7546771E-02  0.1240434E+00
          2   -1    0    0  503    0 -0.00000000000E+00  0.00000000000E+00  0.85899492119E+03  0.85899492119E+03  0.00000000000E+00 0.  1.
         21   -1    0    0  504  502  0.00000000000E+00 -0.00000000000E+00 -0.99952024717E+02  0.99952024717E+02  0.00000000000E+00 0.  1.
         21    1    1    2  503  505 -0.13158285439E+03  0.47601015176E+02  0.37476804330E+03  0.40003873624E+03  0.00000000000E+00 0.  1.
         21    1    1    2  504  501  0.35376096075E+02  0.17389544500E+01  0.11579338794E+02  0.37263564282E+02  0.00000000000E+00 0.  1.
         21    1    1    2  505  502 -0.18287560565E+02 -0.56689809915E+02 -0.53629532231E+02  0.80151707075E+02  0.00000000000E+00 0.  1.
          2    1    1    2  501    0  0.11449431888E+03  0.73498402895E+01  0.42632504661E+03  0.44149293831E+03  0.00000000000E+00 0.  1.
<scales pt_clust_3="14000.00000" pt_clust_4="35.41881" pt_clust_5="56.06180" pt_clust_6="121.62908"></scales>
<clustering>
<clus scale="   35.419">  2  4  1 -1</clus>
<clus scale="   56.062">  2  5  1 -1</clus>
<clus scale="  121.629">  1  6  2 -1</clus>
<clus scale="   35.419">  2  3  1 -1</clus>
</clustering>
</event>
<event>
 6    0  0.1631680E+002  0.1151525E+03  0.7546771E-02  0.1251315E+00
          2   -1    0    0  505    0 -0.00000000000E+00  0.00000000000E+00  0.17807725359E+04  0.17807725359E+04  0.00000000000E+00 0. -1.
         21   -1    0    0  503  502  0.00000000000E+00 -0.00000000000E+00 -0.35953591401E+03  0.35953591401E+03  0.00000000000E+00 0.  1.
         21    1    1    2  503  501 -0.10380441531E+03  0.50647108932E+02 -0.34182273130E+03  0.36080918214E+03  0.00000000000E+00 0.  1.
         21    1    1    2  504  502  0.36311879022E+02 -0.38658984117E+02  0.12346764711E+03  0.13437756321E+03  0.00000000000E+00 0.  1.
         21    1    1    2  505  504  0.19667067206E+02  0.24702556755E+02  0.11267532186E+03  0.11701597326E+03  0.00000000000E+00 0. -1.
          2    1    1    2  501    0  0.47825469086E+02 -0.36690681570E+02  0.15269163842E+04  0.15281057313E+04  0.00000000000E+00 0. -1.
<scales pt_clust_3="115.15251" pt_clust_4="52.74245" pt_clust_5="31.57546" pt_clust_6="14000.00000"></scales>
<clustering>
<clus scale="   31.575">  1  5  2 -1</clus>
<clus scale="   52.742">  1  4  2 -1</clus>
<clus scale="  115.153">  2  3  1 -1</clus>
<clus scale="  115.153">  2  3  1 -1</clus>
</clustering>
</event>
<event>
 6    0  0.1631680E+002  0.7015365E+02  0.7546771E-02  0.1359571E+00
          1   -1    0    0  505    0 -0.00000000000E+00  0.00000000000E+00  0.24509188928E+04  0.24509188928E+04  0.00000000000E+00 0. -1.
         21   -1    0    0  504  502  0.00000000000E+00 -0.00000000000E+00 -0.93362430702E+02  0.93362430702E+02  0.00000000000E+00 0.  1.
         21    1    1    2  503  501  0.85895236306E+02  0.65760405846E+02  0.18284090255E+04  0.18316063953E+04  0.00000000000E+00 0. -1.
         21    1    1    2  504  503  0.45246911367E+02  0.24497406265E+02 -0.40983142491E+02  0.65780117592E+02  0.00000000000E+00 0. -1.
         21    1    1    2  505  502 -0.82529631086E+02 -0.78737430163E+02  0.50289407141E+02  0.12465852312E+03  0.00000000000E+00 0.  1.
          1    1    1    2  501    0 -0.48612516587E+02 -0.11520381948E+02  0.51984117190E+03  0.52223628749E+03  0.00000000000E+00 0. -1.
<scales pt_clust_3="14000.00000" pt_clust_4="51.14314" pt_clust_5="70.15365" pt_clust_6="49.95894"></scales>
<clustering>
<clus scale="   49.959">  1  6  2 -1</clus>
<clus scale="   51.143">  2  4  1 -1</clus>
<clus scale="   70.154">  2  5  1 -1</clus>
<clus scale="   51.143">  2  3  1 -1</clus>
</clustering>
</event>
<event>
 6    0  0.1631680E+002  0.9250130E+02  0.7546771E-02  0.1296905E+00
         21   -1    0    0  504  502  0.00000000000E+00  0.00000000000E+00  0.36058398903E+02  0.36058398903E+02  0.00000000000E+00 0.  1.
          2   -1    0    0  503    0 -0.00000000000E+00 -0.00000000000E+00 -0.21832413413E+04  0.21832413413E+04  0.00000000000E+00 0. -1.
         21    1    1    2  503  505  0.82449839419E+01 -0.11973973117E+03 -0.20949032960E+03  0.24143690931E+03  0.00000000000E+00 0.  1.
         21    1    1    2  504  501  0.22631001507E+01  0.44906362082E+02 -0.91466192956E+03  0.91576642675E+03  0.00000000000E+00 0. -1.
         21    1    1    2  505  502  0.17362518578E+02  0.38785982284E+02 -0.47080050198E+01  0.42754821767E+02  0.00000000000E+00 0.  1.
          2    1    1    2  501    0 -0.27870602670E+02  0.36047386805E+02 -0.10183226783E+04  0.10193415824E+04  0.00000000000E+00 0. -1.
<scales pt_clust_3="86.90357" pt_clust_4="31.48008" pt_clust_5="42.49482" pt_clust_6="31.48008"></scales>
<clustering>
<clus scale="   31.480">  4  6 -1 -1</clus>
<clus scale="   42.495">  1  5  2 -1</clus>
<clus scale="   86.904">  1  3  2 -1</clus>
<clus scale="   42.495">  1  3  2 -1</clus>
</clustering>
</event>
<event>
 6    0  0.1631680E+002  0.1605376E+03  0.7546771E-02  0.1188091E+00
         -4   -1    0    0    0  501 -0.00000000000E+00  0.00000000000E+00  0.16286162045E+03  0.16286162045E+03  0.00000000000E+00 0. -1.
         21   -1    0    0  504  502  0.00000000000E+00 -0.00000000000E+00 -0.76127719473E+03  0.76127719473E+03  0.00000000000E+00 0. -1.
         21    1    1    2  503  502  0.54439433285E+01  0.49868913182E+02 -0.16436159300E+03  0.17184667083E+03  0.00000000000E+00 0. -1.
         21    1    1    2  504  501 -0.19161161462E+03 -0.67061497127E+02 -0.37102729238E+03  0.42293440028E+03  0.00000000000E+00 0. -1.
         21    1    1    2  505  503  0.78149463123E+02  0.11101664371E+03 -0.11419686197E+03  0.17740619225E+03  0.00000000000E+00 0. -1.
         -4    1    1    2    0  505  0.10801820817E+03 -0.93824059763E+02  0.51170173079E+02  0.15195155181E+03  0.00000000000E+00 0. -1.
<scales pt_clust_3="50.16518" pt_clust_4="14000.00000" pt_clust_5="160.53763" pt_clust_6="140.69116"></scales>
<clustering>
<clus scale="   50.165">  2  3  1 -1</clus>
<clus scale="  140.691">  1  6  2 -1</clus>
<clus scale="  160.538">  1  5  2 -1</clus>
<clus scale="   50.165">  2  3  1 -1</clus>
</clustering>
</event>
<event>
 6    0  0.1631680E+002  0.8948478E+02  0.7546771E-02  0.1304104E+00
         21   -1    0    0  505  502  0.00000000000E+00  0.00000000000E+00  0.13043372372E+03  0.13043372372E+03  0.00000000000E+00 0. -1.
          2   -1    0    0  504    0 -0.00000000000E+00 -0.00000000000E+00 -0.99324845117E+03  0.99324845117E+03  0.00000000000E+00 0.  1.
         21    1    1    2  503  502  0.32926789116E+02 -0.32223128400E+01  0.85683162447E+02  0.91848576845E+02  0.00000000000E+00 0. -1.
         21    1    1    2  504  503 -0.43627471165E+02 -0.16962955799E+01 -0.10759993580E+03  0.11612054014E+03  0.00000000000E+00 0.  1.
         21    1    1    2  505  501  0.93291986081E+02 -0.28118943076E+02 -0.32912923291E+02  0.10284614794E+03  0.00000000000E+00 0. -1.
          2    1    1    2  501    0 -0.82591304032E+02  0.33037551496E+02 -0.80798503081E+03  0.81286690996E+03  0.00000000000E+00 0.  1.
<scales pt_clust_3="33.08409" pt_clust_4="40.31183" pt_clust_5="14000.00000" pt_clust_6="89.48478"></scales>
<clustering>
<clus scale="   33.084">  1  3  2 -1</clus>
<clus scale="   40.312">  1  4  2 -1</clus>
<clus scale="   89.485">  2  6  1 -1</clus>
<clus scale="   33.084">  1  3  2 -1</clus>
</clustering>
</event>
<event>
 6    0  0.1631680E+002  0.1025995E+03  0.7546771E-02  0.1274923E+00
         21   -1    0    0  501  502  0.00000000000E+00  0.00000000000E+00  0.69981629981E+02  0.69981629981E+02  0.00000000000E+00 0.  1.
          3   -1    0    0  504    0 -0.00000000000E+00 -0.00000000000E+00 -0.78157974897E+03  0.78157974897E+03  0.00000000000E+00 0. -1.
         21    1    1    2  503  502  0.50561966551E+02  0.36103096899E+02  0.25860230843E+02  0.67295598715E+02  0.00000000000E+00 0.  1.
         21    1    1    2  504  505  0.86726154899E+01  0.44930423833E+02 -0.10288894456E+03  0.11260591529E+03  0.00000000000E+00 0.  1.
         21    1    1    2  505  503  0.11405812466E+02  0.30308776226E+02 -0.10847916282E+02  0.34152478124E+02  0.00000000000E+00 0.  1.
          3    1    1    2  501    0 -0.70640394507E+02 -0.11134229696E+03 -0.62372148899E+03  0.63750738682E+03  0.00000000000E+00 0. -1.
<scales pt_clust_3="30.76472" pt_clust_4="45.75978" pt_clust_5="30.76472" pt_clust_6="93.33196"></scales>
<clustering>
<clus scale="   30.765">  3  5 -1 -1</clus>
<clus scale="   45.760">  2  4  1 -1</clus>
<clus scale="   93.332">  2  6  1 -1</clus>
<clus scale="  102.599">  1  3  2 -1</clus>
</clustering>
</event>
<event>
 6    0  0.1631680E+002  0.7696795E+02  0.7546771E-02  0.1337883E+00
          1   -1    0    0  504    0 -0.00000000000E+00  0.00000000000E+00  0.23971473339E+04  0.23971473339E+04  0.00000000000E+00 0. -1.
         21   -1    0    0  503  502  0.00000000000E+00 -0.00000000000E+00 -0.58283501412E+02  0.58283501412E+02  0.00000000000E+00 0. -1.
         21    1    1    2  503  501 -0.24762816116E+02 -0.72079526743E+02 -0.22758635185E+02  0.79539994424E+02  0.00000000000E+00 0. -1.
         21    1    1    2  504  505 -0.12981011690E+02 -0.30542688348E+02  0.43219462866E+03  0.43346690707E+03  0.00000000000E+00 0.  1.
         21    1    1    2  505  502 -0.56473971393E+02  0.55238799624E+01  0.20535171446E+03  0.21304729364E+03  0.00000000000E+00 0.  1.
          1    1    1    2  501    0  0.94217799199E+02  0.97098335128E+02  0.17240761245E+04  0.17293766402E+04  0.00000000000E+00 0. -1.
<scales pt_clust_3="14000.00000" pt_clust_4="33.18678" pt_clust_5="57.90101" pt_clust_6="76.96795"></scales>
<clustering>
<clus scale="   33.187">  1  4  2 -1</clus>
<clus scale="   57.901">  1  5  2 -1</clus>
<clus scale="   76.968">  1  6  2 -1</clus>
<clus scale="   76.968">  2  3  1 -1</clus>
</clustering>
</event>
<event>
 6    0  0.1631680E+002  0.1043010E+03  0.7546771E-02  0.1271503E+00
         21   -1    0    0  504  502  0.00000000000E+00  0.00000000000E+00  0.14514632211E+03  0.14514632211E+03  0.00000000000E+00 0. -1.
          1   -1    0    0  505    0 -0.00000000000E+00 -0.00000000000E+00 -0.28831178419E+04  0.28831178419E+04  0.00000000000E+00 0.  1.
         21    1    1    2  503  502 -0.18362020053E+02 -0.24493679102E+02 -0.20859649590E+02  0.37043610480E+02  0.00000000000E+00 0. -1.
         21    1    1    2  504  501  0.12293292667E+03  0.17375237596E+02  0.10679347691E+03  0.16376583909E+03  0.00000000000E+00 0. -1.
         21    1    1    2  505  503 -0.33402954306E+02  0.30517886779E+02 -0.42927551271E+03  0.43165329211E+03  0.00000000000E+00 0.  1.
          1    1    1    2  501    0 -0.71167952312E+02 -0.23399445273E+02 -0.23946298344E+04  0.23958014224E+04  0.00000000000E+00 0.  1.
<scales pt_clust_3="30.61216" pt_clust_4="104.30104" pt_clust_5="45.21993" pt_clust_6="14000.00000"></scales>
<clustering>
<clus scale="   30.612">  1  3  2 -1</clus>
<clus scale="   45.220">  2  5  1 -1</clus>
<clus scale="  104.301">  1  4  2 -1</clus>
<clus scale="   30.612">  1  3  2 -1</clus>
</clustering>
</event>
<event>
 6    0  0.1631680E+002  0.1464614E+03  0.7546771E-02  0.1204890E+00
         -2   -1    0    0    0  501 -0.00000000000E+00  0.00000000000E+00  0.63217241008E+02  0.63217241008E+02  0.00000000000E+00 0. -1.
         21   -1    0    0  503  502  0.00000000000E+00 -0.00000000000E+00 -0.71232589268E+03  0.71232589268E+03  0.00000000000E+00 0. -1.
         21    1    1    2  503  505  0.33930293360E+02  0.63666674212E+02 -0.22364858653E+03  0.23499659672E+03  0.00000000000E+00 0. -1.
         21    1    1    2  504  501 -0.26779344520E+02 -0.17492122712E+02 -0.41988262407E+02  0.52783726942E+02  0.00000000000E+00 0.  1.
         21    1    1    2  505  504 -0.24766403133E+02  0.69032449429E+02 -0.36187574953E+03  0.36923286947E+03  0.00000000000E+00 0. -1.
         -2    1    1    2    0  502  0.17615454292E+02 -0.11520700093E+03 -0.21596053196E+02  0.11852994055E+03  0.00000000000E+00 0. -1.
<scales pt_clust_3="65.90390" pt_clust_4="31.98605" pt_clust_5="65.90390" pt_clust_6="129.95956"></scales>
<clustering>
<clus scale="   31.986">  1  4  2 -1</clus>
<clus scale="   65.904">  3  5 -1 -1</clus>
<clus scale="  129.960">  1  6  2 -1</clus>
<clus scale="  146.461">  2  3  1 -1</clus>
</clustering>
</event>
<event>
 6    0  0.1631680E+002  0.1052329E+03  0.7546771E-02  0.1269661E+00
          2   -1    0    0  503    0 -0.00000000000E+00  0.00000000000E+00  0.51374676012E+03  0.51374676012E+03  0.00000000000E+00 0. -1.
         21   -1    0    0  501  502  0.00000000000E+00 -0.00000000000E+00 -0.35240923546E+03  0.35240923546E+03  0.00000000000E+00 0. -1.
         21    1    1    2  503  505 -0.34727662587E+02 -0.27576525480E+02  0.23427686729E+03  0.23843683829E+03  0.00000000000E+00 0. -1.
         21    1    1    2  504  502 -0.26707171751E+02  0.19776554210E+02 -0.19777748722E+03  0.20055004256E+03  0.00000000000E+00 0. -1.
         21    1    1    2  505  504 -0.41735251281E+02  0.64131354475E+02 -0.12755566166E+03  0.14874511302E+03  0.00000000000E+00 0. -1.
          2    1    1    2  501    0  0.10317008562E+03 -0.56331383205E+02  0.25239380624E+03  0.27842400171E+03  0.00000000000E+00 0. -1.
<scales pt_clust_3="44.46405" pt_clust_4="33.23229" pt_clust_5="14000.00000" pt_clust_6="105.23293"></scales>
<clustering>
<clus scale="   33.232">  2  4  1 -1</clus>
<clus scale="   44.464">  1  3  2 -1</clus>
<clus scale="  105.233">  1  6  2 -1</clus>
<clus scale="   33.232">  2  3  1 -1</clus>
</clustering>
</event>
<event>
 6    0  0.1631680E+002  0.1250914E+03  0.7546771E-02  0.1234927E+00
          2   -1    0    0  504    0 -0.00000000000E+00  0.00000000000E+00  0.25559367953E+04  0.25559367953E+04  0.00000000000E+00 0. -1.
         21   -1    0    0  505  502  0.00000000000E+00 -0.00000000000E+00 -0.17293282482E+03  0.17293282482E+03  0.00000000000E+00 0.  1.
         21    1    1    2  503  502 -0.80857885427E+02 -0.51030803906E+02 -0.14636616938E+03  0.17482904828E+03  0.00000000000E+00 0.  1.
         21    1    1    2  504  503  0.17382491553E+02  0.43084447159E+02  0.59382212740E+03  0.59563675138E+03  0.00000000000E+00 0. -1.
         21    1    1    2  505  501 -0.40071261623E+02  0.13445963677E+02  0.34581060057E+02  0.54610893254E+02  0.00000000000E+00 0. -1.
          2    1    1    2  501    0  0.10354665550E+03 -0.54996069299E+01  0.19009669524E+04  0.19037929272E+04  0.00000000000E+00 0. -1.
<scales pt_clust_3="14000.00000" pt_clust_4="46.44535" pt_clust_5="42.26701" pt_clust_6="125.09135"></scales>
<clustering>
<clus scale="   42.267">  2  5  1 -1</clus>
<clus scale="   46.445">  1  4  2 -1</clus>
<clus scale="  125.091">  1  6  2 -1</clus>
<clus scale="   42.267">  2  3  1 -1</clus>
</clustering>
</event>
<event>
 6    0  0.1631680E+002  0.1560320E+03  0.7546771E-02  0.1193251E+00
         21   -1    0    0  503  502  0.00000000000E+00  0.00000000000E+00  0.40527113527E+03  0.40527113527E+03  0.00000000000E+00 0.  1.
         -4   -1    0    0    0  501 -0.00000000000E+00 -0.00000000000E+00 -0.72679107325E+03  0.72679107325E+03  0.00000000000E+00 0.  1.
         21    1    1    2  503  501  0.19106770666E+03  0.12130144794E+03 -0.20878539443E+03  0.30791597998E+03  0.00000000000E+00 0.  1.
         21    1    1    2  504  502 -0.49134956550E+02 -0.47036370869E+02  0.31416089991E+03  0.32144009577E+03  0.00000000000E+00 0.  1.
         21    1    1    2  505  504 -0.94344812853E+02 -0.47972341355E+02 -0.41806868931E+02  0.11379852168E+03  0.00000000000E+00 0.  1.
         -4    1    1    2    0  505 -0.47587937257E+02 -0.26292735720E+02 -0.38508857454E+03  0.38890761109E+03  0.00000000000E+00 0.  1.
<scales pt_clust_3="156.03199" pt_clust_4="68.58270" pt_clust_5="14000.00000" pt_clust_6="54.36837"></scales>
<clustering>
<clus scale="   54.368">  2  6  1 -1</clus>
<clus scale="   68.583">  1  4  2 -1</clus>
<clus scale="  156.032">  2  3  1 -1</clus>
<clus scale="   68.583">  1  3  2 -1</clus>
</clustering>
</event>
<event>
 6    0  0.1631680E+002  0.1435727E+03  0.7546771E-02  0.1208601E+00
         21   -1    0    0  504  502  0.00000000000E+00  0.00000000000E+00  0.89865233925E+03  0.89865233925E+03  0.00000000000E+00 0.  1.
          2   -1    0    0  503    0 -0.00000000000E+00 -0.00000000000E+00 -0.42963596998E+03  0.42963596998E+03  0.00000000000E+00 0.  1.
         21    1    1    2  503  505  0.28635964164E+02  0.11436671452E+02 -0.40728680627E+02  0.51084648606E+02  0.00000000000E+00 0.  1.
         21    1    1    2  504  501  0.30785697266E+02  0.87058042169E+02  0.79359495248E+03  0.79894919142E+03  0.00000000000E+00 0.  1.
         21    1    1    2  505  502  0.38625216039E+02  0.39212354202E+02  0.68248899619E+02  0.87677980904E+02  0.00000000000E+00 0.  1.
          2    1    1    2  501    0 -0.98046877470E+02 -0.13770706782E+03 -0.35209880220E+03  0.39057648831E+03  0.00000000000E+00 0.  1.
<scales pt_clust_3="30.83530" pt_clust_4="143.57266" pt_clust_5="55.75693" pt_clust_6="14000.00000"></scales>
<clustering>
<clus scale="   30.835">  2  3  1 -1</clus>
<clus scale="   55.757">  1  5  2 -1</clus>
<clus scale="  143.573">  1  4  2 -1</clus>
<clus scale="   55.757">  1  3  2 -1</clus>
</clustering>
</event>
<event>
 6    0  0.1631680E+002  0.9335146E+02  0.7546771E-02  0.1294933E+00
         21   -1    0    0  501  502  0.00000000000E+00  0.00000000000E+00  0.31715695994E+02  0.31715695994E+02  0.00000000000E+00 0.  1.
          2   -1    0    0  503    0 -0.00000000000E+00 -0.00000000000E+00 -0.12863234331E+04  0.12863234331E+04  0.00000000000E+00 0.  1.
         21    1    1    2  503  504 -0.62714124252E+02 -0.17963429706E+02 -0.45410649276E+03  0.45876840885E+03  0.00000000000E+00 0.  1.
         21    1    1    2  504  505 -0.51838470312E+02 -0.31939621737E+02 -0.13789160358E+03  0.15073639500E+03  0.00000000000E+00 0.  1.
         21    1    1    2  505  502 -0.29096103519E+02 -0.18559435309E+02 -0.87688306234E+01  0.35607980418E+02  0.00000000000E+00 0.  1.
          2    1    1    2  501    0  0.14364869808E+03  0.68462486752E+02 -0.65384081011E+03  0.67292634479E+03  0.00000000000E+00 0.  1.
<scales pt_clust_3="69.46205" pt_clust_4="14000.00000" pt_clust_5="34.51139" pt_clust_6="93.35146"></scales>
<clustering>
<clus scale="   34.511">  1  5  2 -1</clus>
<clus scale="   69.462">  2  3  1 -1</clus>
<clus scale="   93.351">  2  6  1 -1</clus>
<clus scale="   34.511">  1  3  2 -1</clus>
</clustering>
</event>
<event>
 6    0  0.1631680E+002  0.9950371E+02  0.7546771E-02  0.1281343E+00
          2   -1    0    0  503    0 -0.00000000000E+00  0.00000000000E+00  0.33880286208E+03  0.33880286208E+03  0.00000000000E+00 0. -1.
         21   -1    0    0  505  502  0.00000000000E+00 -0.00000000000E+00 -0.34500864315E+03  0.34500864315E+03  0.00000000000E+00 0.  1.
         21    1    1    2  503  502  0.33269014183E+02  0.63473714324E+02 -0.25287061441E+03  0.26282938829E+03  0.00000000000E+00 0.  1.
         21    1    1    2  504  501 -0.28868721119E+02 -0.25630761529E+02  0.22046802602E+02  0.44456726157E+02  0.00000000000E+00 0.  1.
         21    1    1    2  505  504 -0.68753135720E+02 -0.83865201963E+02 -0.27839264570E+02  0.11196155779E+03  0.00000000000E+00 0.  1.
          2    1    1    2  501    0  0.64352842656E+02  0.46022249168E+02  0.25245729530E+03  0.26456383299E+03  0.00000000000E+00 0. -1.
<scales pt_clust_3="71.66408" pt_clust_4="32.20631" pt_clust_5="32.20631" pt_clust_6="83.58979"></scales>
<clustering>
<clus scale="   32.206">  4  5 -1 -1</clus>
<clus scale="   71.664">  2  3  1 -1</clus>
<clus scale="   83.590">  1  6  2 -1</clus>
<clus scale="   71.664">  2  3  1 -1</clus>
</clustering>
</event>
<event>
 6    0  0.1631680E+002  0.7440040E+02  0.7546771E-02  0.1345738E+00
         21   -1    0    0  504  502  0.00000000000E+00  0.00000000000E+00  0.11536687700E+03  0.11536687700E+03  0.00000000000E+00 0. -1.
          1   -1    0    0  503    0 -0.00000000000E+00 -0.00000000000E+00 -0.31605105888E+04  0.31605105888E+04  0.00000000000E+00 0.  1.
         21    1    1    2  503  502  0.21598649182E+02 -0.21809845307E+02  0.82321991955E+02  0.87858302728E+02  0.00000000000E+00 0. -1.
         21    1    1    2  504  505 -0.33519922297E+02  0.92993699327E+02 -0.57752747091E+02  0.11448490338E+03  0.00000000000E+00 0.  1.
         21    1    1    2  505  501 -0.25834796563E+02 -0.97060641508E+02 -0.16283769030E+04  0.16314715882E+04  0.00000000000E+00 0.  1.
          1    1    1    2  501    0  0.37756069679E+02  0.25876787488E+02 -0.14413360536E+04  0.14420626715E+04  0.00000000000E+00 0.  1.
<scales pt_clust_3="30.69480" pt_clust_4="14000.00000" pt_clust_5="74.40040" pt_clust_6="45.83984"></scales>
<clustering>
<clus scale="   30.695">  1  3  2 -1</clus>
<clus scale="   45.840">  2  6  1 -1</clus>
<clus scale="   74.400">  2  5  1 -1</clus>
<clus scale="   30.695">  1  3  2 -1</clus>
</clustering>
</event>
<event>
 6    0  0.1631680E+002  0.2231461E+03  0.7546771E-02  0.1131559E+00
         21   -1    0    0  503  502  0.00000000000E+00  0.00000000000E+00  0.41028079685E+03  0.41028079685E+03  0.00000000000E+00 0. -1.
          2   -1    0    0  504    0 -0.00000000000E+00 -0.00000000000E+00 -0.12585587163E+04  0.12585587163E+04  0.00000000000E+00 0.  1.
         21    1    1    2  503  501 -0.15914291309E+03  0.23940461083E+03  0.22181707850E+03  0.36310308562E+03  0.00000000000E+00 0. -1.
         21    1    1    2  504  505 -0.65998497124E+02  0.23837835309E+02 -0.28295044413E+03  0.29152186513E+03  0.00000000000E+00 0.  1.
         21    1    1    2  505  502  0.11975431735E+03 -0.27138218588E+02  0.54064889301E+02  0.13416628372E+03  0.00000000000E+00 0. -1.
          2    1    1    2  501    0  0.10538709286E+03 -0.23610422755E+03 -0.84120944310E+03  0.88004827866E+03  0.00000000000E+00 0.  1.
<scales pt_clust_3="223.14611" pt_clust_4="70.17153" pt_clust_5="119.92006" pt_clust_6="14000.00000"></scales>
<clustering>
<clus scale="   70.172">  2  4  1 -1</clus>
<clus scale="  119.920">  1  5  2 -1</clus>
<clus scale="  223.146">  1  3  2 -1</clus>
<clus scale="  119.920">  1  3  2 -1</clus>
</clustering>
</event>
<event>
 6    0  0.1631680E+002  0.9941253E+02  0.7546771E-02  0.1281536E+00
         21   -1    0    0  501  502  0.00000000000E+00  0.00000000000E+00  0.28219859397E+03  0.28219859397E+03  0.00000000000E+00 0.  1.
          2   -1    0    0  503    0 -0.00000000000E+00 -0.00000000000E+00 -0.14814712532E+04  0.14814712532E+04  0.00000000000E+00 0.  1.
         21    1    1    2  503  504 -0.42467043806E+02  0.30332863785E+01 -0.77327837613E+02  0.88273694302E+02  0.00000000000E+00 0.  1.
         21    1    1    2  504  505  0.10899864787E+02 -0.55226940744E+02 -0.71259292825E+02  0.90811391632E+02  0.00000000000E+00 0. -1.
         21    1    1    2  505  502 -0.85915081404E+02  0.49998092753E+02  0.25496507778E+03  0.27365745262E+03  0.00000000000E+00 0.  1.
          2    1    1    2  501    0  0.11748226042E+03  0.21955616122E+01 -0.13056506065E+04  0.13109273086E+04  0.00000000000E+00 0.  1.
<scales pt_clust_3="42.57524" pt_clust_4="55.69433" pt_clust_5="99.41253" pt_clust_6="14000.00000"></scales>
<clustering>
<clus scale="   42.575">  2  3  1 -1</clus>
<clus scale="   55.694">  2  4  1 -1</clus>
<clus scale="   99.413">  1  5  2 -1</clus>
<clus scale="   99.413">  1  3  2 -1</clus>
</clustering>
</event>
<event>
 6    0  0.1631680E+002  0.1181551E+03  0.7546771E-02  0.1246172E+00
         -2   -1    0    0    0  501 -0.00000000000E+00  0.00000000000E+00  0.11468062072E+03  0.11468062072E+03  0.00000000000E+00 0. -1.
         21   -1    0    0  504  502  0.00000000000E+00 -0.00000000000E+00 -0.75478549147E+03  0.75478549147E+03  0.00000000000E+00 0.  1.
         21    1    1    2  503  502  0.32929379156E+02 -0.25414280131E-01 -0.25108257359E+02  0.41409772338E+02  0.00000000000E+00 0. -1.
         21    1    1    2  504  501 -0.97611588895E+02  0.73802203027E+02 -0.59971238083E+03  0.61207003454E+03  0.00000000000E+00 0.  1.
         21    1    1    2  505  503  0.42072078179E+02 -0.35664332914E+02 -0.10349265727E+03  0.11727205342E+03  0.00000000000E+00 0.  1.
         -2    1    1    2    0  505  0.22610131559E+02 -0.38112455833E+02  0.88208424710E+02  0.98714251902E+02  0.00000000000E+00 0. -1.
<scales pt_clust_3="32.25666" pt_clust_4="110.53451" pt_clust_5="32.25666" pt_clust_6="44.31453"></scales>
<clustering>
<clus scale="   32.257">  3  5 -1 -1</clus>
<clus scale="   44.315">  1  6  2 -1</clus>
<clus scale="  110.535">  2  4  1 -1</clus>
<clus scale="  110.535">  2  3  1 -1</clus>
</clustering>
</event>
<event>
 6    0  0.1631680E+002  0.1551808E+03  0.7546771E-02  0.1194248E+00
          2   -1    0    0  505    0 -0.00000000000E+00  0.00000000000E+00  0.10196631130E+04  0.10196631130E+04  0.00000000000E+00 0. -1.
         21   -1    0    0  504  502  0.00000000000E+00 -0.00000000000E+00 -0.11553426100E+03  0.11553426100E+03  0.00000000000E+00 0. -1.
         21    1    1    2  503  502  0.87577763037E+02  0.21235160803E+02 -0.77438338552E+01  0.90447573741E+02  0.00000000000E+00 0. -1.
         21    1    1    2  504  501  0.33463790914E+02 -0.71436146527E+02  0.26296762531E+02  0.83153280468E+02  0.00000000000E+00 0. -1.
         21    1    1    2  505  503  0.88235910133E+02  0.11118662148E+03  0.48751429386E+03  0.50775804016E+03  0.00000000000E+00 0. -1.
          2    1    1    2  501    0 -0.20927746408E+03 -0.60985635757E+02  0.39806162948E+03  0.45383847965E+03  0.00000000000E+00 0. -1.
<scales pt_clust_3="108.12654" pt_clust_4="78.88567" pt_clust_5="14000.00000" pt_clust_6="155.18083"></scales>
<clustering>
<clus scale="   78.886">  2  4  1 -1</clus>
<clus scale="  108.127">  2  3  1 -1</clus>
<clus scale="  155.181">  2  6  1 -1</clus>
<clus scale="   78.886">  2  3  1 -1</clus>
</clustering>
</event>
<event>
 6    0  0.1631680E+002  0.1513756E+03  0.7546771E-02  0.1198793E+00
         21   -1    0    0  503  502  0.00000000000E+00  0.00000000000E+00  0.79863530906E+02  0.79863530906E+02  0.00000000000E+00 0.  1.
          1   -1    0    0  504    0 -0.00000000000E+00 -0.00000000000E+00 -0.26897179265E+04  0.26897179265E+04  0.00000000000E+00 0. -1.
         21    1    1    2  503  505  0.14892706108E+02  0.84245886501E+02  0.26211376327E+02  0.89477362146E+02  0.00000000000E+00 0.  1.
         21    1    1    2  504  502  0.30678702308E+02 -0.45016045055E+02 -0.55352757760E+03  0.55620176758E+03  0.00000000000E+00 0.  1.
         21    1    1    2  505  501  0.30982582394E+00  0.58244440777E+02 -0.24733021155E+02  0.63279010808E+02  0.00000000000E+00 0. -1.
          1    1    1    2  501    0 -0.45881234240E+02 -0.97474282223E+02 -0.20578051731E+04  0.20606233168E+04  0.00000000000E+00 0. -1.
<scales pt_clust_3="43.64320" pt_clust_4="54.47593" pt_clust_5="43.64320" pt_clust_6="141.83391"></scales>
<clustering>
<clus scale="   43.643">  3  5 -1 -1</clus>
<clus scale="   54.476">  2  4  1 -1</clus>
<clus scale="  141.834">  2  6  1 -1</clus>
<clus scale="  151.376">  1  3  2 -1</clus>
</clustering>
</event>
<event>
 6    0  0.1631680E+002  0.7683662E+02  0.7546771E-02  0.1338276E+00
          1   -1    0    0  503    0 -0.00000000000E+00  0.00000000000E+00  0.45606018266E+03  0.45606018266E+03  0.00000000000E+00 0.  1.
         21   -1    0    0  505  502  0.00000000000E+00 -0.00000000000E+00 -0.18053711364E+03  0.18053711364E+03  0.00000000000E+00 0.  1.
         21    1    1    2  503  504 -0.25592340813E+02 -0.26988610919E+02  0.45053568227E+02  0.58422401847E+02  0.00000000000E+00 0.  1.
         21    1    1    2  504  502 -0.27093232598E+02 -0.43264714612E+02 -0.14716891571E+03  0.15577088475E+03  0.00000000000E+00 0.  1.
         21    1    1    2  505  501  0.77728122288E+02 -0.21165075189E+02  0.96436851517E+02  0.12565702421E+03  0.00000000000E+00 0.  1.
          1    1    1    2  501    0 -0.25042548877E+02  0.91418400720E+02  0.28120156500E+03  0.29674698550E+03  0.00000000000E+00 0.  1.
<scales pt_clust_3="37.19345" pt_clust_4="51.43568" pt_clust_5="76.83662" pt_clust_6="14000.00000"></scales>
<clustering>
<clus scale="   37.193">  1  3  2 -1</clus>
<clus scale="   51.436">  2  4  1 -1</clus>
<clus scale="   76.837">  2  5  1 -1</clus>
<clus scale="   51.436">  2  3  1 -1</clus>
</clustering>
</event>
<event>
 6    0  0.1631680E+002  0.7650019E+02  0.7546771E-02  0.1339287E+00
         21   -1    0    0  505  502  0.00000000000E+00  0.00000000000E+00  0.89106464743E+03  0.89106464743E+03  0.00000000000E+00 0. -1.
          2   -1    0    0  503    0 -0.00000000000E+00 -0.00000000000E+00 -0.12792227292E+04  0.12792227292E+04  0.00000000000E+00 0. -1.
         21    1    1    2  503  504  0.26927852179E+02  0.34698122794E+02 -0.29354871401E+03  0.29681630084E+03  0.00000000000E+00 0.  1.
         21    1    1    2  504  502  0.98989486649E+01  0.61146329065E+02  0.74669886526E+03  0.74926367730E+03  0.00000000000E+00 0. -1.
         21    1    1    2  505  501  0.32049819001E+02  0.27733071999E+01  0.13588367759E+03  0.13963973635E+03  0.00000000000E+00 0.  1.
          2    1    1    2  501    0 -0.68876619845E+02 -0.98617759059E+02 -0.97719191062E+03  0.98456766214E+03  0.00000000000E+00 0. -1.
<scales pt_clust_3="43.96857" pt_clust_4="76.50019" pt_clust_5="32.16958" pt_clust_6="14000.00000"></scales>
<clustering>
<clus scale="   32.170">  1  5  2 -1</clus>
<clus scale="   43.969">  2  3  1 -1</clus>
<clus scale="   76.500">  1  4  2 -1</clus>
<clus scale="   32.170">  1  3  2 -1</clus>
</clustering>
</event>
<event>
 6    0  0.1631680E+002  0.1723094E+03  0.7546771E-02  0.1175461E+00
          2   -1    0    0  503    0 -0.00000000000E+00  0.00000000000E+00  0.12241612268E+04  0.12241612268E+04  0.00000000000E+00 0.  1.
         21   -1    0    0  505  502  0.00000000000E+00 -0.00000000000E+00 -0.62554702092E+03  0.62554702092E+03  0.00000000000E+00 0. -1.
         21    1    1    2  503  504  0.33879965592E+02  0.10043417643E+02  0.21775207865E+03  0.22060074810E+03  0.00000000000E+00 0.  1.
         21    1    1    2  504  502  0.29959195630E+01  0.18784273703E+03 -0.57325594609E+03  0.60325471330E+03  0.00000000000E+00 0. -1.
         21    1    1    2  505  501  0.12440105685E+02 -0.96567045598E+02  0.40731298179E+02  0.10554140977E+03  0.00000000000E+00 0. -1.
          2    1    1    2  501    0 -0.49315990840E+02 -0.10131910908E+03  0.91338677515E+03  0.92031137656E+03  0.00000000000E+00 0.  1.
<scales pt_clust_3="35.33727" pt_clust_4="14000.00000" pt_clust_5="172.30938" pt_clust_6="93.97683"></scales>
<clustering>
<clus scale="   35.337">  1  3  2 -1</clus>
<clus scale="   93.977">  1  6  2 -1</clus>
<clus scale="  172.309">  1  5  2 -1</clus>
<clus scale="  172.309">  2  3  1 -1</clus>
</clustering>
</event>
<event>
 6    0  0.1631680E+002  0.8599148E+02  0.7546771E-02  0.1312860E+00
          2   -1    0    0  504    0 -0.00000000000E+00  0.00000000000E+00  0.27036628726E+04  0.27036628726E+04  0.00000000000E+00 0. -1.
         21   -1    0    0  505  502  0.00000000000E+00 -0.00000000000E+00 -0.35872074024E+02  0.35872074024E+02  0.00000000000E+00 0. -1.
         21    1    1    2  503  501  0.40980239314E+02  0.44043015178E+02  0.78993887644E+01  0.60675922268E+02  0.00000000000E+00 0. -1.
         21    1    1    2  504  502  0.35966320547E+02 -0.77736893836E+02  0.17062639242E+04  0.17084124736E+04  0.00000000000E+00 0. -1.
         21    1    1    2  505  503 -0.54657469505E+00  0.38310494631E+02  0.47200329480E+02  0.60793616818E+02  0.00000000000E+00 0.  1.
          2    1    1    2  501    0 -0.76399985166E+02 -0.46166159733E+01  0.90642715618E+03  0.90965293400E+03  0.00000000000E+00 0. -1.
<scales pt_clust_3="14000.00000" pt_clust_4="85.99148" pt_clust_5="38.31439" pt_clust_6="76.47090"></scales>
<clustering>
<clus scale="   38.314">  2  5  1 -1</clus>
<clus scale="   76.471">  1  6  2 -1</clus>
<clus scale="   85.991">  1  4  2 -1</clus>
<clus scale="   38.314">  2  3  1 -1</clus>
</clustering>
</event>
<event>
 6    0  0.1631680E+002  0.1227494E+03  0.7546771E-02  0.1238629E+00
         -1   -1    0    0    0  501 -0.00000000000E+00  0.00000000000E+00  0.50757839919E+03  0.50757839919E+03  0.00000000000E+00 0.  1.
         21   -1    0    0  504  502  0.00000000000E+00 -0.00000000000E+00 -0.38001820920E+03  0.38001820920E+03  0.00000000000E+00 0. -1.
         21    1    1    2  503  505  0.13797751122E+03 -0.43177080244E+02 -0.29273363687E+03  0.32648895236E+03  0.00000000000E+00 0. -1.
         21    1    1    2  504  501  0.48473825308E+02  0.25181317360E+02  0.11610861159E+03  0.12831609474E+03  0.00000000000E+00 0.  1.
         21    1    1    2  505  502 -0.31778939203E+02 -0.11890124379E+02 -0.41082853960E+02  0.53282989068E+02  0.00000000000E+00 0. -1.
         -1    1    1    2    0  503 -0.15467239733E+03  0.29885887263E+02  0.34526806924E+03  0.37950857222E+03  0.00000000000E+00 0.  1.
<scales pt_clust_3="122.74942" pt_clust_4="54.00664" pt_clust_5="33.93046" pt_clust_6="14000.00000"></scales>
<clustering>
<clus scale="   33.930">  2  5  1 -1</clus>
<clus scale="   54.007">  1  4  2 -1</clus>
<clus scale="  122.749">  2  3  1 -1</clus>
<clus scale="   33.930">  2  3  1 -1</clus>
</clustering>
</event>
<event>
 6    0  0.1631680E+002  0.9033043E+02  0.7546771E-02  0.1302053E+00
         21   -1    0    0  503  502  0.00000000000E+00  0.00000000000E+00  0.19738810298E+02  0.19738810298E+02  0.00000000000E+00 0.  1.
          2   -1    0    0  504    0 -0.00000000000E+00 -0.00000000000E+00 -0.20960925655E+04  0.20960925655E+04  0.00000000000E+00 0.  1.
         21    1    1    2  503  501  0.80227529615E+02  0.18295870164E+02 -0.19033116812E+03  0.20735753888E+03  0.00000000000E+00 0.  1.
         21    1    1    2  504  505  0.80790724790E+01  0.40069706861E+02 -0.42549835842E+03  0.42745725616E+03  0.00000000000E+00 0. -1.
         21    1    1    2  505  502 -0.11029129237E+03  0.30424766743E+02 -0.38580998580E+03  0.40241667553E+03  0.00000000000E+00 0.  1.
          2    1    1    2  501    0  0.21984690272E+02 -0.88790343768E+02 -0.10747142429E+04  0.10785999052E+04  0.00000000000E+00 0.  1.
<scales pt_clust_3="90.33043" pt_clust_4="40.87607" pt_clust_5="14000.00000" pt_clust_6="68.57406"></scales>
<clustering>
<clus scale="   40.876">  2  4  1 -1</clus>
<clus scale="   68.574">  2  6  1 -1</clus>
<clus scale="   90.330">  1  3  2 -1</clus>
<clus scale="   90.330">  1  3  2 -1</clus>
</clustering>
</event>
<event>
 6    0  0.1631680E+002  0.1140943E+03  0.7546771E-02  0.1253170E+00
          2   -1    0    0  505    0 -0.00000000000E+00  0.00000000000E+00  0.44884092123E+03  0.44884092123E+03  0.00000000000E+00 0. -1.
         21   -1    0    0  504  502  0.00000000000E+00 -0.00000000000E+00 -0.14302825138E+03  0.14302825138E+03  0.00000000000E+00 0.  1.
         21    1    1    2  503  502  0.22837373697E+02  0.41056221267E+02  0.41156039540E+01  0.47160334371E+02  0.00000000000E+00 0.  1.
         21    1    1    2  504  501 -0.28000930477E+02  0.15393853317E+02  0.11489066468E+02  0.33956169923E+02  0.00000000000E+00 0.  1.
         21    1    1    2  505  503  0.98910882960E+02 -0.11625353887E+03 -0.43737340018E+02  0.15878036082E+03  0.00000000000E+00 0.  1.
          2    1    1    2  501    0 -0.93747326179E+02  0.59803464291E+02  0.33394533945E+03  0.35197230750E+03  0.00000000000E+00 0. -1.
<scales pt_clust_3="47.24355" pt_clust_4="31.95345" pt_clust_5="114.09426" pt_clust_6="14000.00000"></scales>
<clustering>
<clus scale="   31.953">  2  4  1 -1</clus>
<clus scale="   47.244">  2  3  1 -1</clus>
<clus scale="  114.094">  2  5  1 -1</clus>
<clus scale="   31.953">  2  3  1 -1</clus>
</clustering>
</event>
<event>
 6    0  0.1631680E+002  0.7667620E+02  0.7546771E-02  0.1338758E+00
         21   -1    0    0  505  502  0.00000000000E+00  0.00000000000E+00  0.27434838281E+03  0.27434838281E+03  0.00000000000E+00 0.  1.
          1   -1    0    0  504    0 -0.00000000000E+00 -0.00000000000E+00 -0.92385396507E+03  0.92385396507E+03  0.00000000000E+00 0.  1.
         21    1    1    2  503  501 -0.67082073392E+02  0.19705264251E+02  0.12258780437E+03  0.14112431325E+03  0.00000000000E+00 0.  1.
         21    1    1    2  504  502 -0.20417165495E+02  0.59578379904E+02 -0.59358135012E+03  0.59691311194E+03  0.00000000000E+00 0.  1.
         21    1    1    2  505  503 -0.61455680048E+00 -0.60607572873E+02  0.12749952960E+03  0.14117289265E+03  0.00000000000E+00 0.  1.
          1    1    1    2  501    0  0.88113795688E+02 -0.18676071282E+02 -0.30601156612E+03  0.31899203004E+03  0.00000000000E+00 0.  1.
<scales pt_clust_3="14000.00000" pt_clust_4="62.30038" pt_clust_5="60.61069" pt_clust_6="76.67620"></scales>
<clustering>
<clus scale="   60.611">  1  5  2 -1</clus>
<clus scale="   62.300">  2  4  1 -1</clus>
<clus scale="   76.676">  2  6  1 -1</clus>
<clus scale="   60.611">  1  3  2 -1</clus>
</clustering>
</event>
<event>
 6    0  0.1631680E+002  0.1113834E+03  0.7546771E-02  0.1258029E+00
         21   -1    0    0  501  502  0.00000000000E+00  0.00000000000E+00  0.40211903376E+03  0.40211903376E+03  0.00000000000E+00 0. -1.
          2   -1    0    0  505    0 -0.00000000000E+00 -0.00000000000E+00 -0.32891006564E+04  0.32891006564E+04  0.00000000000E+00 0. -1.
         21    1    1    2  503  502  0.39218583488E+02  0.52129971502E+02  0.18705795747E+03  0.19810681632E+03  0.00000000000E+00 0. -1.
         21    1    1    2  504  503  0.72308655088E+02 -0.53569626295E+02  0.19741799736E+03  0.21696108440E+03  0.00000000000E+00 0. -1.
         21    1    1    2  505  504  0.31019107589E+02  0.31806889810E+01 -0.43659612220E+03  0.43770820844E+03  0.00000000000E+00 0.  1.
          2    1    1    2  501    0 -0.14254634616E+03 -0.17410341880E+01 -0.28348614553E+04  0.28384435810E+04  0.00000000000E+00 0. -1.
<scales pt_clust_3="65.27626" pt_clust_4="111.38340" pt_clust_5="31.18175" pt_clust_6="14000.00000"></scales>
<clustering>
<clus scale="   31.182">  2  5  1 -1</clus>
<clus scale="   65.276">  1  3  2 -1</clus>
<clus scale="  111.383">  1  4  2 -1</clus>
<clus scale="   65.276">  1  3  2 -1</clus>
</clustering>
</event>
<event>
 6    0  0.1631680E+002  0.1205000E+03  0.7546771E-02  0.1242275E+00
          2   -1    0    0  502    0 -0.00000000000E+00  0.00000000000E+00  0.86046867920E+03  0.86046867920E+03  0.00000000000E+00 0. -1.
         21   -1    0    0  504  502  0.00000000000E+00 -0.00000000000E+00 -0.38094696277E+03  0.38094696277E+03  0.00000000000E+00 0.  1.
         21    1    1    2  503  501 -0.46476951631E+02 -0.37203561242E+02  0.79474669667E+02  0.99299723669E+02  0.00000000000E+00 0.  1.
         21    1    1    2  504  505 -0.55090372147E+01  0.54964754509E+02 -0.34312823042E+03  0.34754633683E+03  0.00000000000E+00 0.  1.
         21    1    1    2  505  503 -0.57346464519E+02 -0.49294848659E+02  0.46740962458E+02  0.88900599934E+02  0.00000000000E+00 0.  1.
          2    1    1    2  501    0  0.10933245336E+03  0.31533655392E+02  0.69643431473E+03  0.70566898154E+03  0.00000000000E+00 0. -1.
<scales pt_clust_3="31.08877" pt_clust_4="55.24015" pt_clust_5="31.08877" pt_clust_6="115.29330"></scales>
<clustering>
<clus scale="   31.089">  3  5 -1 -1</clus>
<clus scale="   55.240">  2  4  1 -1</clus>
<clus scale="  115.293">  1  6  2 -1</clus>
<clus scale="   55.240">  2  3  1 -1</clus>
</clustering>
</event>
<event>
 6    0  0.1631680E+002  0.1623966E+03  0.7546771E-02  0.1186017E+00
         21   -1    0    0  505  502  0.00000000000E+00  0.00000000000E+00  0.19092429028E+03  0.19092429028E+03  0.00000000000E+00 0. -1.
          1   -1    0    0  504    0 -0.00000000000E+00 -0.00000000000E+00 -0.47117777783E+04  0.47117777783E+04  0.00000000000E+00 0. -1.
         21    1    1    2  503  501 -0.15413839139E+03 -0.12439402552E+03 -0.25857406700E+04  0.25933158947E+04  0.00000000000E+00 0. -1.
         21    1    1    2  504  502  0.31485426382E+02  0.21293237526E+02  0.15412286981E+03  0.15874064709E+03  0.00000000000E+00 0. -1.
         21    1    1    2  505  503  0.79627471795E+02 -0.40298686352E+02 -0.43218872952E+02  0.99158405420E+02  0.00000000000E+00 0.  1.
          1    1    1    2  501    0  0.43025493212E+02  0.14339947435E+03 -0.20460168149E+04  0.20514871213E+04  0.00000000000E+00 0. -1.
<scales pt_clust_3="162.39657" pt_clust_4="38.00966" pt_clust_5="107.65153" pt_clust_6="14000.00000"></scales>
<clustering>
<clus scale="   38.010">  1  4  2 -1</clus>
<clus scale="  107.652">  1  5  2 -1</clus>
<clus scale="  162.397">  1  3  2 -1</clus>
<clus scale="   38.010">  1  3  2 -1</clus>
</clustering>
</event>
<event>
 6    0  0.1631680E+002  0.1874475E+03  0.7546771E-02  0.1160784E+00
         21   -1    0    0  504  502  0.00000000000E+00  0.00000000000E+00  0.12293787928E+03  0.12293787928E+03  0.00000000000E+00 0.  1.
          2   -1    0    0  503    0 -0.00000000000E+00 -0.00000000000E+00 -0.54939034110E+03  0.54939034110E+03  0.00000000000E+00 0.  1.
         21    1    1    2  503  502  0.16010576195E+02  0.49326073818E+02 -0.61194445759E+02  0.80213217740E+02  0.00000000000E+00 0.  1.
         21    1    1    2  504  505  0.24104646018E+02 -0.32336374875E+02  0.72281820438E+01  0.40974647227E+02  0.00000000000E+00 0. -1.
         21    1    1    2  505  501 -0.19735731300E+03 -0.60825220604E+02 -0.90851879731E+02  0.22561844009E+03  0.00000000000E+00 0.  1.
          2    1    1    2  501    0  0.15724209079E+03  0.43835521660E+02 -0.28163431837E+03  0.32552191532E+03  0.00000000000E+00 0.  1.
<scales pt_clust_3="49.71716" pt_clust_4="40.33206" pt_clust_5="14000.00000" pt_clust_6="187.44752"></scales>
<clustering>
<clus scale="   40.332">  1  4  2 -1</clus>
<clus scale="   49.717">  2  3  1 -1</clus>
<clus scale="  187.448">  2  6  1 -1</clus>
<clus scale="   40.332">  1  3  2 -1</clus>
</clustering>
</event>
<event>
 6    0  0.1631680E+002  0.1140499E+03  0.7546771E-02  0.1253249E+00
         21   -1    0    0  501  502  0.00000000000E+00  0.00000000000E+00  0.43730011813E+03  0.43730011813E+03  0.00000000000E+00 0. -1.
          2   -1    0    0  504    0 -0.00000000000E+00 -0.00000000000E+00 -0.14316870752E+04  0.14316870752E+04  0.00000000000E+00 0.  1.
         21    1    1    2  503  505  0.12262484178E+03 -0.35177911821E+02  0.97613345584E+01  0.12794381952E+03  0.00000000000E+00 0. -1.
         21    1    1    2  504  503 -0.46363772677E+02  0.10861995684E+02 -0.10339106708E+03  0.11383011517E+03  0.00000000000E+00 0. -1.
         21    1    1    2  505  502 -0.11270062978E+03 -0.65375026194E+00  0.35408766956E+03  0.37159108853E+03  0.00000000000E+00 0. -1.
          2    1    1    2  501    0  0.36439560674E+02  0.24969666399E+02 -0.12548448941E+04  0.12556221701E+04  0.00000000000E+00 0.  1.
<scales pt_clust_3="114.04991" pt_clust_4="35.50975" pt_clust_5="14000.00000" pt_clust_6="44.17381"></scales>
<clustering>
<clus scale="   44.174">  2  6  1 -1</clus>
<clus scale="   35.510">  2  4  1 -1</clus>
<clus scale="  114.050">  2  3  1 -1</clus>
<clus scale="  114.050">  1  3  2 -1</clus>
</clustering>
</event>
<event>
 6    0  0.1631680E+002  0.9152637E+02  0.7546771E-02  0.1299197E+00
         21   -1    0    0  501  502  0.00000000000E+00  0.00000000000E+00  0.34340648583E+03  0.34340648583E+03  0.00000000000E+00 0. -1.
          2   -1    0    0  503    0 -0.00000000000E+00 -0.00000000000E+00 -0.32920667206E+04  0.32920667206E+04  0.00000000000E+00 0.  1.
         21    1    1    2  503  505 -0.57100273072E+02  0.87293552832E+01 -0.13605128584E+03  0.14780593766E+03  0.00000000000E+00 0.  1.
         21    1    1    2  504  502  0.61283470313E+02 -0.44196383419E+01  0.32692659352E+03  0.33265025851E+03  0.00000000000E+00 0. -1.
         21    1    1    2  505  504 -0.37788459362E+02  0.92421709233E+02 -0.35984787158E+03  0.37344374500E+03  0.00000000000E+00 0.  1.
          2    1    1    2  501    0  0.33605262121E+02 -0.96731426174E+02 -0.27796876708E+04  0.27815732652E+04  0.00000000000E+00 0.  1.
<scales pt_clust_3="57.76368" pt_clust_4="61.39032" pt_clust_5="14000.00000" pt_clust_6="91.52637"></scales>
<clustering>
<clus scale="   57.764">  2  3  1 -1</clus>
<clus scale="   61.390">  1  4  2 -1</clus>
<clus scale="   91.526">  2  6  1 -1</clus>
<clus scale="   61.390">  1  3  2 -1</clus>
</clustering>
</event>
<event>
 6    0  0.1631680E+002  0.1372755E+03  0.7546771E-02  0.1217043E+00
          2   -1    0    0  503    0 -0.00000000000E+00  0.00000000000E+00  0.42768709378E+04  0.42768709378E+04  0.00000000000E+00 0. -1.
         21   -1    0    0  504  502  0.00000000000E+00 -0.00000000000E+00 -0.17997466825E+02  0.17997466825E+02  0.00000000000E+00 0. -1.
         21    1    1    2  503  502  0.25126529697E+02  0.10891601499E+03  0.33951784528E+03  0.35744427269E+03  0.00000000000E+00 0. -1.
         21    1    1    2  504  505  0.31813231681E+02  0.19567301556E+01  0.24790785420E+02  0.40379370286E+02  0.00000000000E+00 0. -1.
         21    1    1    2  505  501  0.15901470238E+01 -0.63833618207E+02  0.17315870111E+04  0.17327639298E+04  0.00000000000E+00 0.  1.
          2    1    1    2  501    0 -0.58529908402E+02 -0.47039126937E+02  0.21629778292E+04  0.21642808319E+04  0.00000000000E+00 0. -1.
<scales pt_clust_3="122.70656" pt_clust_4="31.87335" pt_clust_5="57.36963" pt_clust_6="57.36963"></scales>
<clustering>
<clus scale="   31.873">  2  4  1 -1</clus>
<clus scale="   57.370">  5  6 -1 -1</clus>
<clus scale="  122.707">  2  3  1 -1</clus>
<clus scale="   31.873">  2  3  1 -1</clus>
</clustering>
</event>
<event>
 6    0  0.1631680E+002  0.6767159E+02  0.7546771E-02  0.1368195E+00
          1   -1    0    0  505    0 -0.00000000000E+00  0.00000000000E+00  0.36678261194E+03  0.36678261194E+03  0.00000000000E+00 0.  1.
         21   -1    0    0  503  502  0.00000000000E+00 -0.00000000000E+00 -0.87281796290E+02  0.87281796290E+02  0.00000000000E+00 0. -1.
         21    1    1    2  503  501 -0.64211716568E+02 -0.13027784064E+02 -0.31156309870E+02  0.72550557179E+02  0.00000000000E+00 0. -1.
         21    1    1    2  504  502 -0.22519741986E+02 -0.44227950146E+02  0.88986724317E+02  0.10189154753E+03  0.00000000000E+00 0. -1.
         21    1    1    2  505  504  0.21740211797E+02 -0.42433103556E+02  0.38946544913E+02  0.61563288144E+02  0.00000000000E+00 0.  1.
          1    1    1    2  501    0  0.64991246757E+02  0.99688837766E+02  0.18272385628E+03  0.21805901537E+03  0.00000000000E+00 0.  1.
<scales pt_clust_3="67.67159" pt_clust_4="59.21501" pt_clust_5="47.67814" pt_clust_6="14000.00000"></scales>
<clustering>
<clus scale="   47.678">  1  5  2 -1</clus>
<clus scale="   59.215">  1  4  2 -1</clus>
<clus scale="   67.672">  2  3  1 -1</clus>
<clus scale="   67.672">  2  3  1 -1</clus>
</clustering>
</event>
<event>
 6    0  0.1631680E+002  0.1203231E+03  0.7546771E-02  0.1242565E+00
         21   -1    0    0  504  502  0.00000000000E+00  0.00000000000E+00  0.23060064151E+03  0.23060064151E+03  0.00000000000E+00 0. -1.
          2   -1    0    0  505    0 -0.00000000000E+00 -0.00000000000E+00 -0.16370117289E+04  0.16370117289E+04  0.00000000000E+00 0. -1.
         21    1    1    2  503  502 -0.37508289896E+02 -0.14145442931E+02  0.17676637967E+03  0.18125484366E+03  0.00000000000E+00 0. -1.
         21    1    1    2  504  501 -0.11185361200E+02  0.50423935661E+02 -0.11845873551E+03  0.12922908965E+03  0.00000000000E+00 0. -1.
         21    1    1    2  505  503 -0.71104952391E+02 -0.65532674544E+01  0.14420691000E+02  0.72847895631E+02  0.00000000000E+00 0. -1.
          2    1    1    2  501    0  0.11979860349E+03 -0.29725225275E+02 -0.14791394225E+04  0.14842805414E+04  0.00000000000E+00 0. -1.
<scales pt_clust_3="40.08697" pt_clust_4="51.22377" pt_clust_5="14000.00000" pt_clust_6="120.32308"></scales>
<clustering>
<clus scale="   40.087">  1  3  2 -1</clus>
<clus scale="   51.224">  1  4  2 -1</clus>
<clus scale="  120.323">  2  6  1 -1</clus>
<clus scale="   40.087">  1  3  2 -1</clus>
</clustering>
</event>
<event>
 6    0  0.1631680E+002  0.9248925E+02  0.7546771E-02  0.1296933E+00
         -2   -1    0    0    0  501 -0.00000000000E+00  0.00000000000E+00  0.12671792879E+03  0.12671792879E+03  0.00000000000E+00 0. -1.
         21   -1    0    0  504  502  0.00000000000E+00 -0.00000000000E+00 -0.96741656570E+03  0.96741656570E+03  0.00000000000E+00 0. -1.
         21    1    1    2  503  501  0.75512257692E+02  0.38604160558E+02  0.30750565736E+02  0.90210750841E+02  0.00000000000E+00 0. -1.
         21    1    1    2  504  505  0.30038668316E+02 -0.12529413024E+02 -0.70636742031E+03  0.70711685050E+03  0.00000000000E+00 0. -1.
         21    1    1    2  505  503  0.96780551020E+01 -0.34424589362E+02 -0.17707994592E+03  0.18065443352E+03  0.00000000000E+00 0. -1.
         -2    1    1    2    0  502 -0.11522898111E+03  0.83498418281E+01  0.11998163586E+02  0.11615245962E+03  0.00000000000E+00 0. -1.
<scales pt_clust_3="14000.00000" pt_clust_4="32.54701" pt_clust_5="52.61512" pt_clust_6="92.48925"></scales>
<clustering>
<clus scale="   32.547">  2  4  1 -1</clus>
<clus scale="   52.615">  2  5  1 -1</clus>
<clus scale="   92.489">  2  6  1 -1</clus>
<clus scale="   32.547">  2  3  1 -1</clus>
</clustering>
</event>
<event>
 6    0  0.1631680E+002  0.1023684E+03  0.7546771E-02  0.1275393E+00
         21   -1    0    0  504  502  0.00000000000E+00  0.00000000000E+00  0.10682167798E+03  0.10682167798E+03  0.00000000000E+00 0.  1.
          2   -1    0    0  503    0 -0.00000000000E+00 -0.00000000000E+00 -0.11466364906E+04  0.11466364906E+04  0.00000000000E+00 0. -1.
         21    1    1    2  503  502  0.12225612635E+02 -0.30833742298E+02 -0.98103273197E+02  0.10355885998E+03  0.00000000000E+00 0. -1.
         21    1    1    2  504  505 -0.66407959930E+02 -0.77901333281E+02  0.72529886691E+02  0.12545604542E+03  0.00000000000E+00 0.  1.
         21    1    1    2  505  501  0.73319617500E+02  0.72113156682E+02 -0.73621744674E+03  0.74336545694E+03  0.00000000000E+00 0. -1.
          2    1    1    2  501    0 -0.19137270204E+02  0.36621918897E+02 -0.27802397935E+03  0.28107780622E+03  0.00000000000E+00 0. -1.
<scales pt_clust_3="33.16904" pt_clust_4="14000.00000" pt_clust_5="102.36840" pt_clust_6="32.51538"></scales>
<clustering>
<clus scale="   33.169">  2  3  1 -1</clus>
<clus scale="   32.515">  2  6  1 -1</clus>
<clus scale="  102.368">  2  5  1 -1</clus>
<clus scale="  102.368">  1  3  2 -1</clus>
</clustering>
</event>
<event>
 6    0  0.1631680E+002  0.8051363E+02  0.7546771E-02  0.1327600E+00
         21   -1    0    0  505  502  0.00000000000E+00  0.00000000000E+00  0.14325983387E+03  0.14325983387E+03  0.00000000000E+00 0.  1.
         -4   -1    0    0    0  501 -0.00000000000E+00 -0.00000000000E+00 -0.39471184662E+03  0.39471184662E+03  0.00000000000E+00 0.  1.
         21    1    1    2  503  502 -0.70560253567E+02  0.54191054142E+02  0.22820636285E+02  0.91848795163E+02  0.00000000000E+00 0.  1.
         21    1    1    2  504  501 -0.42493970107E+02 -0.49956458182E+02 -0.22722528456E+02  0.69409642766E+02  0.00000000000E+00 0.  1.
         21    1    1    2  505  504  0.35878827340E+02  0.17802833292E+02  0.50343629412E+02  0.64332823246E+02  0.00000000000E+00 0.  1.
         -4    1    1    2    0  503  0.77175396334E+02 -0.22037429252E+02 -0.30189374999E+03  0.31238041931E+03  0.00000000000E+00 0.  1.
<scales pt_clust_3="80.51363" pt_clust_4="55.75038" pt_clust_5="40.05285" pt_clust_6="14000.00000"></scales>
<clustering>
<clus scale="   40.053">  1  5  2 -1</clus>
<clus scale="   55.750">  1  4  2 -1</clus>
<clus scale="   80.514">  1  3  2 -1</clus>
<clus scale="   40.053">  1  3  2 -1</clus>
</clustering>
</event>
<event>
 6    0  0.1631680E+002  0.1391608E+03  0.7546771E-02  0.1214463E+00
         21   -1    0    0  503  502  0.00000000000E+00  0.00000000000E+00  0.20565247631E+02  0.20565247631E+02  0.00000000000E+00 0.  1.
          2   -1    0    0  502    0 -0.00000000000E+00 -0.00000000000E+00 -0.25970667792E+04  0.25970667792E+04  0.00000000000E+00 0.  1.
         21    1    1    2  503  504  0.14335257595E+02  0.47343891421E+02 -0.42341912204E+02  0.65113602221E+02  0.00000000000E+00 0.  1.
         21    1    1    2  504  505  0.14743714998E+02  0.74641357608E+02 -0.19642397488E+03  0.21064445710E+03  0.00000000000E+00 0.  1.
         21    1    1    2  505  501 -0.25929685064E+02 -0.39112876985E+02 -0.12932335763E+04  0.12940847146E+04  0.00000000000E+00 0.  1.
          2    1    1    2  501    0 -0.31492875289E+01 -0.82872372044E+02 -0.10445020682E+04  0.10477892529E+04  0.00000000000E+00 0.  1.
<scales pt_clust_3="46.37159" pt_clust_4="137.96144" pt_clust_5="45.38231" pt_clust_6="45.38231"></scales>
<clustering>
<clus scale="   45.382">  5  6 -1 -1</clus>
<clus scale="   46.372">  3  4 -1 -1</clus>
<clus scale="  137.961">  1  3  2 -1</clus>
<clus scale="  137.961">  1  3  2 -1</clus>
</clustering>
</event>
<event>
 6    0  0.1631680E+002  0.1295292E+03  0.7546771E-02  0.1228156E+00
         21   -1    0    0  504  502  0.00000000000E+00  0.00000000000E+00  0.74561137740E+02  0.74561137740E+02  0.00000000000E+00 0.  1.
          2   -1    0    0  505    0 -0.00000000000E+00 -0.00000000000E+00 -0.14053189252E+04  0.14053189252E+04  0.00000000000E+00 0. -1.
         21    1    1    2  503  502 -0.33597225458E+01 -0.62562610605E+02 -0.42427081912E+02  0.75666539903E+02  0.00000000000E+00 0.  1.
         21    1    1    2  504  501  0.12721173649E+03  0.28712171435E+02 -0.31431024900E+02  0.13414590570E+03  0.00000000000E+00 0.  1.
         21    1    1    2  505  503  0.22436685755E+02  0.21925082740E+02 -0.34595236998E+03  0.34737178413E+03  0.00000000000E+00 0. -1.
          2    1    1    2  501    0 -0.14628869970E+03  0.11925356430E+02 -0.91094731066E+03  0.92269583319E+03  0.00000000000E+00 0. -1.
<scales pt_clust_3="61.37596" pt_clust_4="129.52919" pt_clust_5="31.37059" pt_clust_6="14000.00000"></scales>
<clustering>
<clus scale="   31.371">  2  5  1 -1</clus>
<clus scale="   61.376">  1  3  2 -1</clus>
<clus scale="  129.529">  1  4  2 -1</clus>
<clus scale="   61.376">  1  3  2 -1</clus>
</clustering>
</event>
<event>
 6    0  0.1631680E+002  0.9456505E+02  0.7546771E-02  0.1292159E+00
         21   -1    0    0  503  502  0.00000000000E+00  0.00000000000E+00  0.28941272141E+02  0.28941272141E+02  0.00000000000E+00 0.  1.
          2   -1    0    0  505    0 -0.00000000000E+00 -0.00000000000E+00 -0.17847934358E+04  0.17847934358E+04  0.00000000000E+00 0.  1.
         21    1    1    2  503  504  0.38768207368E+02  0.11853746243E+02 -0.59282782191E+02  0.71818754284E+02  0.00000000000E+00 0.  1.
         21    1    1    2  504  501 -0.36601917622E+02 -0.10909702966E+03 -0.14810734785E+03  0.18755705463E+03  0.00000000000E+00 0.  1.
         21    1    1    2  505  502 -0.45748301807E+02  0.28598805700E+02 -0.62304936752E+03  0.62538093445E+03  0.00000000000E+00 0.  1.
          2    1    1    2  501    0  0.43582012062E+02  0.68644477717E+02 -0.92541266610E+03  0.92897796458E+03  0.00000000000E+00 0.  1.
<scales pt_clust_3="40.53992" pt_clust_4="94.56505" pt_clust_5="52.60819" pt_clust_6="14000.00000"></scales>
<clustering>
<clus scale="   40.540">  1  3  2 -1</clus>
<clus scale="   52.608">  2  5  1 -1</clus>
<clus scale="   94.565">  1  4  2 -1</clus>
<clus scale="   40.540">  1  3  2 -1</clus>
</clustering>
</event>
<event>
 6    0  0.1631680E+002  0.2654063E+03  0.7546771E-02  0.1103938E+00
         21   -1    0    0  504  502  0.00000000000E+00  0.00000000000E+00  0.17805002623E+03  0.17805002623E+03  0.00000000000E+00 0. -1.
          1   -1    0    0  503    0 -0.00000000000E+00 -0.00000000000E+00 -0.21267122399E+04  0.21267122399E+04  0.00000000000E+00 0. -1.
         21    1    1    2  503  505 -0.68409784114E+02 -0.57139262444E+02 -0.34101483617E+03  0.35247115110E+03  0.00000000000E+00 0.  1.
         21    1    1    2  504  501 -0.29372636832E+03  0.55885341828E+02 -0.61344813405E+02  0.30522374909E+03  0.00000000000E+00 0. -1.
         21    1    1    2  505  502  0.21890051274E+03 -0.12696905318E+02 -0.21189943903E+03  0.30492625034E+03  0.00000000000E+00 0. -1.
          1    1    1    2  501    0  0.14323563969E+03  0.13950825933E+02 -0.13344031250E+04  0.13421411156E+04  0.00000000000E+00 0. -1.
<scales pt_clust_3="89.13357" pt_clust_4="14000.00000" pt_clust_5="265.40628" pt_clust_6="96.27611"></scales>
<clustering>
<clus scale="   89.134">  2  3  1 -1</clus>
<clus scale="   96.276">  2  6  1 -1</clus>
<clus scale="  265.406">  2  5  1 -1</clus>
<clus scale="  265.406">  1  3  2 -1</clus>
</clustering>
</event>
<event>
 6    0  0.1631680E+002  0.8930873E+02  0.7546771E-02  0.1304534E+00
         21   -1    0    0  505  502  0.00000000000E+00  0.00000000000E+00  0.71077282608E+02  0.71077282608E+02  0.00000000000E+00 0. -1.
         -4   -1    0    0    0  501 -0.00000000000E+00 -0.00000000000E+00 -0.15838298293E+04  0.15838298293E+04  0.00000000000E+00 0.  1.
         21    1    1    2  503  502  0.56217748817E+02 -0.33094353599E+02 -0.14692271652E+03  0.16075433479E+03  0.00000000000E+00 0. -1.
         21    1    1    2  504  501 -0.12359269109E+03 -0.81097616784E+02 -0.16883509790E+03  0.22440424911E+03  0.00000000000E+00 0.  1.
         21    1    1    2  505  504 -0.18738885355E+02  0.10403903799E+03 -0.45658844482E+02  0.11515206176E+03  0.00000000000E+00 0. -1.
         -4    1    1    2    0  503  0.86113827628E+02  0.10152932398E+02 -0.11513358877E+04  0.11545964662E+04  0.00000000000E+00 0.  1.
<scales pt_clust_3="65.23551" pt_clust_4="14000.00000" pt_clust_5="86.90875" pt_clust_6="89.30873"></scales>
<clustering>
<clus scale="   65.236">  1  3  2 -1</clus>
<clus scale="   86.909">  1  5  2 -1</clus>
<clus scale="   89.309">  2  6  1 -1</clus>
<clus scale="   65.236">  1  3  2 -1</clus>
</clustering>
</event>
<event>
 6    0  0.1631680E+002  0.1270116E+03  0.7546771E-02  0.1231959E+00
         21   -1    0    0  504  502  0.00000000000E+00  0.00000000000E+00  0.78797770119E+03  0.78797770119E+03  0.00000000000E+00 0.  1.
          2   -1    0    0  503    0 -0.00000000000E+00 -0.00000000000E+00 -0.24520223725E+04  0.24520223725E+04  0.00000000000E+00 0. -1.
         21    1    1    2  503  505  0.73573023431E+02 -0.12875705693E+02 -0.85343664089E+03  0.85669882315E+03  0.00000000000E+00 0. -1.
         21    1    1    2  504  501  0.38320988075E+02 -0.59566567194E+02  0.54980649862E+03  0.55434994361E+03  0.00000000000E+00 0.  1.
         21    1    1    2  505  502 -0.19150651577E+02  0.18401351981E+03  0.19382927648E+03  0.26795057632E+03  0.00000000000E+00 0.  1.
          2    1    1    2  501    0 -0.92743359928E+02 -0.11157124692E+03 -0.15542438055E+04  0.15610007306E+04  0.00000000000E+00 0. -1.
<scales pt_clust_3="75.02405" pt_clust_4="70.82848" pt_clust_5="14000.00000" pt_clust_6="127.01164"></scales>
<clustering>
<clus scale="   70.828">  1  4  2 -1</clus>
<clus scale="   75.024">  2  3  1 -1</clus>
<clus scale="  127.012">  2  6  1 -1</clus>
<clus scale="   70.828">  1  3  2 -1</clus>
</clustering>
</event>
<event>
 6    0  0.1631680E+002  0.1997295E+03  0.7546771E-02  0.1149967E+00
         21   -1    0    0  504  502  0.00000000000E+00  0.00000000000E+00  0.54571942425E+03  0.54571942425E+03  0.00000000000E+00 0. -1.
          2   -1    0    0  505    0 -0.00000000000E+00 -0.00000000000E+00 -0.43590338469E+03  0.43590338469E+03  0.00000000000E+00 0. -1.
         21    1    1    2  503  502 -0.21630412778E+03 -0.60027458176E+02  0.31310476359E+03  0.38526012565E+03  0.00000000000E+00 0. -1.
         21    1    1    2  504  501  0.17361913469E+03  0.71089593407E+01  0.13849324673E+03  0.22220378175E+03  0.00000000000E+00 0. -1.
         21    1    1    2  505  503 -0.37069741655E+02 -0.16072621030E+02 -0.52447963332E+02  0.66206372433E+02  0.00000000000E+00 0.  1.
          2    1    1    2  501    0  0.79754734744E+02  0.68991119865E+02 -0.28933400742E+03  0.30795252911E+03  0.00000000000E+00 0. -1.
<scales pt_clust_3="14000.00000" pt_clust_4="199.72946" pt_clust_5="40.40414" pt_clust_6="75.49345"></scales>
<clustering>
<clus scale="   40.404">  2  5  1 -1</clus>
<clus scale="   75.493">  2  6  1 -1</clus>
<clus scale="  199.729">  2  4  1 -1</clus>
<clus scale="  199.729">  1  3  2 -1</clus>
</clustering>
</event>
<event>
 6    0  0.1631680E+002  0.9711417E+02  0.7546771E-02  0.1286484E+00
          4   -1    0    0  505    0 -0.00000000000E+00  0.00000000000E+00  0.32885047503E+04  0.32885047503E+04  0.00000000000E+00 0.  1.
         21   -1    0    0  504  502  0.00000000000E+00 -0.00000000000E+00 -0.37836081730E+03  0.37836081730E+03  0.00000000000E+00 0. -1.
         21    1    1    2  503  502 -0.36848873092E+02  0.11922241193E+02  0.13936099901E+02  0.41160589933E+02  0.00000000000E+00 0.  1.
         21    1    1    2  504  501  0.12263517444E+03  0.30803399950E+02 -0.34851006816E+03  0.37073913074E+03  0.00000000000E+00 0. -1.
         21    1    1    2  505  503  0.35888122166E+02 -0.26974187086E+02  0.24849508287E+04  0.24853563497E+04  0.00000000000E+00 0.  1.
          4    1    1    2  501    0 -0.12167442351E+03 -0.15751454056E+02  0.75976707255E+03  0.76960949720E+03  0.00000000000E+00 0.  1.
<scales pt_clust_3="38.72957" pt_clust_4="97.11417" pt_clust_5="44.87468" pt_clust_6="14000.00000"></scales>
<clustering>
<clus scale="   38.730">  2  3  1 -1</clus>
<clus scale="   44.875">  1  5  2 -1</clus>
<clus scale="   97.114">  2  4  1 -1</clus>
<clus scale="   38.730">  2  3  1 -1</clus>
</clustering>
</event>
<event>
 6    0  0.1631680E+002  0.5963169E+02  0.7546771E-02  0.1399384E+00
         21   -1    0    0  505  502  0.00000000000E+00  0.00000000000E+00  0.33839775187E+03  0.33839775187E+03  0.00000000000E+00 0.  1.
          2   -1    0    0  503    0 -0.00000000000E+00 -0.00000000000E+00 -0.63171478000E+03  0.63171478000E+03  0.00000000000E+00 0.  1.
         21    1    1    2  503  502  0.54488560010E+02 -0.75531845473E+02  0.26406064400E+03  0.28000372597E+03  0.00000000000E+00 0.  1.
         21    1    1    2  504  501  0.41039535023E+02  0.83086880707E+02 -0.22466537482E+03  0.24302716684E+03  0.00000000000E+00 0. -1.
         21    1    1    2  505  504 -0.46667026557E+02  0.18703054449E+02  0.43694566598E+02  0.66609539585E+02  0.00000000000E+00 0. -1.
          2    1    1    2  501    0 -0.48861068476E+02 -0.26258089683E+02 -0.37640686390E+03  0.38047209948E+03  0.00000000000E+00 0.  1.
<scales pt_clust_3="14000.00000" pt_clust_4="59.63169" pt_clust_5="50.27540" pt_clust_6="55.70188"></scales>
<clustering>
<clus scale="   50.275">  1  5  2 -1</clus>
<clus scale="   55.702">  2  6  1 -1</clus>
<clus scale="   59.632">  2  4  1 -1</clus>
<clus scale="   50.275">  1  3  2 -1</clus>
</clustering>
</event>
<event>
 6    0  0.1631680E+002  0.9088360E+02  0.7546771E-02  0.1300726E+00
          2   -1    0    0  503    0 -0.00000000000E+00  0.00000000000E+00  0.37111443689E+04  0.37111443689E+04  0.00000000000E+00 0. -1.
         21   -1    0    0  505  502  0.00000000000E+00 -0.00000000000E+00 -0.33800928666E+02  0.33800928666E+02  0.00000000000E+00 0. -1.
         21    1    1    2  503  504 -0.35534069555E+02 -0.60746115297E+02  0.19262150808E+04  0.19275002719E+04  0.00000000000E+00 0. -1.
         21    1    1    2  504  502 -0.80227990357E+02  0.51323153426E+02  0.48703901366E+02  0.10697040022E+03  0.00000000000E+00 0. -1.
         21    1    1    2  505  501  0.83994282076E+02  0.18317031381E+02  0.48214162299E+03  0.48974595218E+03  0.00000000000E+00 0.  1.
          2    1    1    2  501    0  0.31767777835E+02 -0.88940695094E+01  0.12202828351E+04  0.12207286733E+04  0.00000000000E+00 0. -1.
<scales pt_clust_3="68.50885" pt_clust_4="90.88360" pt_clust_5="14000.00000" pt_clust_6="32.98933"></scales>
<clustering>
<clus scale="   32.989">  1  6  2 -1</clus>
<clus scale="   68.509">  1  3  2 -1</clus>
<clus scale="   90.884">  2  4  1 -1</clus>
<clus scale="   90.884">  2  3  1 -1</clus>
</clustering>
</event>
<event>
 6    0  0.1631680E+002  0.5888710E+02  0.7546771E-02  0.1402562E+00
          1   -1    0    0  502    0 -0.00000000000E+00  0.00000000000E+00  0.73857463250E+03  0.73857463250E+03  0.00000000000E+00 0.  1.
         21   -1    0    0  503  502  0.00000000000E+00 -0.00000000000E+00 -0.15575878367E+04  0.15575878367E+04  0.00000000000E+00 0.  1.
         21    1    1    2  503  504 -0.25315156352E+02 -0.49482909103E+02 -0.10927639626E+04  0.10941766280E+04  0.00000000000E+00 0.  1.
         21    1    1    2  504  505 -0.92891490402E+01  0.92308326472E+02 -0.45524619160E+03  0.46460328281E+03  0.00000000000E+00 0.  1.
         21    1    1    2  505  501 -0.29432910208E+01 -0.62314095547E+02  0.30724615332E+03  0.31351540344E+03  0.00000000000E+00 0.  1.
          1    1    1    2  501    0  0.37547596413E+02  0.19488678178E+02  0.42175079664E+03  0.42386715494E+03  0.00000000000E+00 0.  1.
<scales pt_clust_3="58.88710" pt_clust_4="14000.00000" pt_clust_5="54.91944" pt_clust_6="42.30403"></scales>
<clustering>
<clus scale="   42.304">  1  6  2 -1</clus>
<clus scale="   54.919">  1  5  2 -1</clus>
<clus scale="   58.887">  2  3  1 -1</clus>
<clus scale="   58.887">  2  3  1 -1</clus>
</clustering>
</event>
<event>
 6    0  0.1631680E+002  0.1041549E+03  0.7546771E-02  0.1271794E+00
         21   -1    0    0  501  502  0.00000000000E+00  0.00000000000E+00  0.23804617945E+03  0.23804617945E+03  0.00000000000E+00 0. -1.
          2   -1    0    0  505    0 -0.00000000000E+00 -0.00000000000E+00 -0.61057840194E+03  0.61057840194E+03  0.00000000000E+00 0. -1.
         21    1    1    2  503  502 -0.26643373359E+02  0.26309772100E+02  0.12879626004E+03  0.13412885615E+03  0.00000000000E+00 0. -1.
         21    1    1    2  504  503 -0.52123683154E+02 -0.52586274869E+02  0.23965634984E+02  0.77823815830E+02  0.00000000000E+00 0.  1.
         21    1    1    2  505  504 -0.45933821979E+02  0.91843885244E+02 -0.47670595549E+03  0.48764103935E+03  0.00000000000E+00 0.  1.
          2    1    1    2  501    0  0.12470087849E+03 -0.65567382475E+02 -0.48588162024E+02  0.14903087006E+03  0.00000000000E+00 0. -1.
<scales pt_clust_3="37.44427" pt_clust_4="76.20284" pt_clust_5="104.15487" pt_clust_6="14000.00000"></scales>
<clustering>
<clus scale="   37.444">  1  3  2 -1</clus>
<clus scale="   76.203">  1  4  2 -1</clus>
<clus scale="  104.155">  2  5  1 -1</clus>
<clus scale="   37.444">  1  3  2 -1</clus>
</clustering>
</event>
<event>
 6    0  0.1631680E+002  0.2155429E+03  0.7546771E-02  0.1137250E+00
          2   -1    0    0  503    0 -0.00000000000E+00  0.00000000000E+00  0.18397041268E+04  0.18397041268E+04  0.00000000000E+00 0. -1.
         21   -1    0    0  505  502  0.00000000000E+00 -0.00000000000E+00 -0.24371828771E+03  0.24371828771E+03  0.00000000000E+00 0.  1.
         21    1    1    2  503  504  0.20593734848E+02 -0.27592045039E+02  0.52627741953E+02  0.62889602380E+02  0.00000000000E+00 0. -1.
         21    1    1    2  504  502 -0.63144577546E+02 -0.36188651777E+02  0.10755797126E+03  0.12986752239E+03  0.00000000000E+00 0. -1.
         21    1    1    2  505  501  0.35974349300E+02  0.21477517612E+03 -0.17093238060E+03  0.27684004194E+03  0.00000000000E+00 0.  1.
          2    1    1    2  501    0  0.65764933980E+01 -0.15099447930E+03  0.16067325065E+04  0.16138252478E+04  0.00000000000E+00 0. -1.
<scales pt_clust_3="34.42997" pt_clust_4="72.53894" pt_clust_5="215.54293" pt_clust_6="14000.00000"></scales>
<clustering>
<clus scale="   34.430">  1  3  2 -1</clus>
<clus scale="   72.539">  1  4  2 -1</clus>
<clus scale="  215.543">  2  5  1 -1</clus>
<clus scale="  215.543">  2  3  1 -1</clus>
</clustering>
</event>
<event>
 6    0  0.1631680E+002  0.1031223E+03  0.7546771E-02  0.1273864E+00
         21   -1    0    0  505  502  0.00000000000E+00  0.00000000000E+00  0.21702389842E+03  0.21702389842E+03  0.00000000000E+00 0.  1.
          4   -1    0    0  504    0 -0.00000000000E+00 -0.00000000000E+00 -0.55876551770E+03  0.55876551770E+03  0.00000000000E+00 0.  1.
         21    1    1    2  503  502  0.36170566681E+02  0.10463660769E+03  0.49051025935E+02  0.12109142293E+03  0.00000000000E+00 0.  1.
         21    1    1    2  504  503 -0.25223855289E+02 -0.18687219413E+02 -0.23947653977E+02  0.39483479787E+02  0.00000000000E+00 0. -1.
         21    1    1    2  505  501 -0.65940348030E+02 -0.77106439821E+02  0.10153331811E+03  0.14353587443E+03  0.00000000000E+00 0.  1.
          4    1    1    2  501    0  0.54993636639E+02 -0.88429484518E+01 -0.46837830934E+03  0.47167863898E+03  0.00000000000E+00 0.  1.
<scales pt_clust_3="103.12232" pt_clust_4="31.39196" pt_clust_5="14000.00000" pt_clust_6="41.31401"></scales>
<clustering>
<clus scale="   31.392">  2  4  1 -1</clus>
<clus scale="   41.314">  2  6  1 -1</clus>
<clus scale="  103.122">  2  3  1 -1</clus>
<clus scale="  103.122">  1  3  2 -1</clus>
</clustering>
</event>
<event>
 6    0  0.1631680E+002  0.2147162E+03  0.7546771E-02  0.1137885E+00
         21   -1    0    0  501  502  0.00000000000E+00  0.00000000000E+00  0.41788895767E+03  0.41788895767E+03  0.00000000000E+00 0.  1.
          2   -1    0    0  504    0 -0.00000000000E+00 -0.00000000000E+00 -0.14135324898E+04  0.14135324898E+04  0.00000000000E+00 0. -1.
         21    1    1    2  503  502 -0.29208834131E+02  0.82732867182E+02  0.37140268347E+03  0.38162525676E+03  0.00000000000E+00 0.  1.
         21    1    1    2  504  505  0.16114967285E+02 -0.43022791167E+02 -0.20845895629E+03  0.21346144661E+03  0.00000000000E+00 0. -1.
         21    1    1    2  505  503  0.22070609447E+03 -0.14698601813E+02 -0.64151215920E+03  0.67857577280E+03  0.00000000000E+00 0.  1.
          2    1    1    2  501    0 -0.20761222763E+03 -0.25011474201E+02 -0.51707510014E+03  0.55775897132E+03  0.00000000000E+00 0. -1.
<scales pt_clust_3="87.54235" pt_clust_4="45.94184" pt_clust_5="14000.00000" pt_clust_6="214.71617"></scales>
<clustering>
<clus scale="   45.942">  2  4  1 -1</clus>
<clus scale="   87.542">  1  3  2 -1</clus>
<clus scale="  214.716">  2  6  1 -1</clus>
<clus scale="   87.542">  1  3  2 -1</clus>
</clustering>
</event>
<event>
 6    0  0.1631680E+002  0.1049339E+03  0.7546771E-02  0.1270250E+00
         21   -1    0    0  503  502  0.00000000000E+00  0.00000000000E+00  0.15669844601E+04  0.15669844601E+04  0.00000000000E+00 0.  1.
          2   -1    0    0  504    0 -0.00000000000E+00 -0.00000000000E+00 -0.19780448003E+03  0.19780448003E+03  0.00000000000E+00 0. -1.
         21    1    1    2  503  501  0.11314454085E+03 -0.79617939703E+02  0.13608509377E+04  0.13678654824E+04  0.00000000000E+00 0.  1.
         21    1    1    2  504  505  0.24653135059E+02 -0.19786434044E+02 -0.28647779946E+02  0.42661168951E+02  0.00000000000E+00 0.  1.
         21    1    1    2  505  502 -0.41300526433E+02  0.55912075998E+01  0.16399312926E+03  0.16920621008E+03  0.00000000000E+00 0.  1.
          2    1    1    2  501    0 -0.96497149475E+02  0.93813166147E+02 -0.12701630697E+03  0.18505607862E+03  0.00000000000E+00 0. -1.
<scales pt_clust_3="104.93389" pt_clust_4="31.61139" pt_clust_5="41.24272" pt_clust_6="14000.00000"></scales>
<clustering>
<clus scale="   31.611">  2  4  1 -1</clus>
<clus scale="   41.243">  1  5  2 -1</clus>
<clus scale="  104.934">  1  3  2 -1</clus>
<clus scale="   41.243">  1  3  2 -1</clus>
</clustering>
</event>
<event>
 6    0  0.1631680E+002  0.1033731E+03  0.7546771E-02  0.1273358E+00
          2   -1    0    0  503    0 -0.00000000000E+00  0.00000000000E+00  0.82096371099E+03  0.82096371099E+03  0.00000000000E+00 0.  1.
         21   -1    0    0  504  502  0.00000000000E+00 -0.00000000000E+00 -0.17128210541E+03  0.17128210541E+03  0.00000000000E+00 0. -1.
         21    1    1    2  503  505 -0.36182722666E+02  0.27871312924E+01  0.40659460357E+02  0.54499075560E+02  0.00000000000E+00 0. -1.
         21    1    1    2  504  501 -0.81240075472E+02 -0.97450563767E+02 -0.95104156960E+01  0.12722818181E+03  0.00000000000E+00 0. -1.
         21    1    1    2  505  502  0.90500392889E+02  0.36391156178E+02 -0.69327323862E+02  0.11967002630E+03  0.00000000000E+00 0. -1.
          2    1    1    2  501    0  0.26922405249E+02  0.58272276296E+02  0.68785988477E+03  0.69084853273E+03  0.00000000000E+00 0.  1.
<scales pt_clust_3="36.28991" pt_clust_4="14000.00000" pt_clust_5="103.37313" pt_clust_6="60.98983"></scales>
<clustering>
<clus scale="   36.290">  1  3  2 -1</clus>
<clus scale="   60.990">  1  6  2 -1</clus>
<clus scale="  103.373">  2  5  1 -1</clus>
<clus scale="  103.373">  2  3  1 -1</clus>
</clustering>
</event>
<event>
 6    0  0.1631680E+002  0.7009294E+02  0.7546771E-02  0.1359777E+00
         21   -1    0    0  504  502  0.00000000000E+00  0.00000000000E+00  0.13118608311E+03  0.13118608311E+03  0.00000000000E+00 0.  1.
          2   -1    0    0  503    0 -0.00000000000E+00 -0.00000000000E+00 -0.14865297131E+04  0.14865297131E+04  0.00000000000E+00 0. -1.
         21    1    1    2  503  505 -0.43094121328E+02 -0.36392862639E+02 -0.13865353699E+04  0.13876821955E+04  0.00000000000E+00 0. -1.
         21    1    1    2  504  501  0.66231035861E+00 -0.34610208302E+02  0.52901528778E+02  0.63220858273E+02  0.00000000000E+00 0.  1.
         21    1    1    2  505  502  0.25261460561E+02 -0.40924707455E+02  0.10204871885E+02  0.49164138151E+02  0.00000000000E+00 0.  1.
          2    1    1    2  501    0  0.17170350409E+02  0.11192777840E+03 -0.31914660718E+02  0.11764860424E+03  0.00000000000E+00 0. -1.
<scales pt_clust_3="56.57671" pt_clust_4="34.61654" pt_clust_5="70.09294" pt_clust_6="14000.00000"></scales>
<clustering>
<clus scale="   34.617">  1  4  2 -1</clus>
<clus scale="   56.577">  2  3  1 -1</clus>
<clus scale="   70.093">  1  5  2 -1</clus>
<clus scale="   34.617">  1  3  2 -1</clus>
</clustering>
</event>
<event>
 6    0  0.1631680E+002  0.1407045E+03  0.7546771E-02  0.1212384E+00
         21   -1    0    0  501  502  0.00000000000E+00  0.00000000000E+00  0.95492626097E+02  0.95492626097E+02  0.00000000000E+00 0.  1.
          2   -1    0    0  505    0 -0.00000000000E+00 -0.00000000000E+00 -0.28863060228E+03  0.28863060228E+03  0.00000000000E+00 0.  1.
         21    1    1    2  503  502 -0.65287376542E+02 -0.54583805644E+02 -0.57290796910E+02  0.10258688408E+03  0.00000000000E+00 0.  1.
         21    1    1    2  504  503 -0.50105725985E+02  0.15858729936E+02 -0.32968769079E+02  0.62040493440E+02  0.00000000000E+00 0.  1.
         21    1    1    2  505  504 -0.15070220538E+02  0.43691133808E+02 -0.71637442459E+02  0.85252272009E+02  0.00000000000E+00 0. -1.
          2    1    1    2  501    0  0.13046332307E+03 -0.49660581000E+01 -0.31240967740E+02  0.13424357885E+03  0.00000000000E+00 0.  1.
<scales pt_clust_3="55.25115" pt_clust_4="55.25115" pt_clust_5="46.21717" pt_clust_6="125.13019"></scales>
<clustering>
<clus scale="   46.217">  2  5  1 -1</clus>
<clus scale="   55.251">  3  4 -1 -1</clus>
<clus scale="  125.130">  1  6  2 -1</clus>
<clus scale="  125.130">  1  3  2 -1</clus>
</clustering>
</event>
<event>
 6    0  0.1631680E+002  0.1091206E+03  0.7546771E-02  0.1262207E+00
          2   -1    0    0  505    0 -0.00000000000E+00  0.00000000000E+00  0.51054863598E+03  0.51054863598E+03  0.00000000000E+00 0. -1.
         21   -1    0    0  504  502  0.00000000000E+00 -0.00000000000E+00 -0.23200005324E+03  0.23200005324E+03  0.00000000000E+00 0. -1.
         21    1    1    2  503  502  0.14700799211E+03  0.11753438261E+01 -0.98554926818E+02  0.17699097372E+03  0.00000000000E+00 0. -1.
         21    1    1    2  504  501 -0.83205358525E+02 -0.17344290442E+02 -0.43884695972E+02  0.95654705262E+02  0.00000000000E+00 0.  1.
         21    1    1    2  505  503  0.52477988725E+02 -0.16023705848E+02  0.34018257605E+02  0.64559587206E+02  0.00000000000E+00 0. -1.
          2    1    1    2  501    0 -0.11628062231E+03  0.32192652464E+02  0.38696994792E+03  0.40534342303E+03  0.00000000000E+00 0. -1.
<scales pt_clust_3="109.12065" pt_clust_4="14000.00000" pt_clust_5="54.86983" pt_clust_6="73.55593"></scales>
<clustering>
<clus scale="   54.870">  1  5  2 -1</clus>
<clus scale="   73.556">  1  6  2 -1</clus>
<clus scale="  109.121">  1  3  2 -1</clus>
<clus scale="  109.121">  2  3  1 -1</clus>
</clustering>
</event>
<event>
 6    0  0.1631680E+002  0.8715398E+02  0.7546771E-02  0.1309894E+00
          2   -1    0    0  505    0 -0.00000000000E+00  0.00000000000E+00  0.87501654657E+03  0.87501654657E+03  0.00000000000E+00 0.  1.
         21   -1    0    0  504  502  0.00000000000E+00 -0.00000000000E+00 -0.12766533418E+03  0.12766533418E+03  0.00000000000E+00 0.  1.
         21    1    1    2  503  501  0.47937435667E+02  0.43136506697E+02  0.76717716574E+02  0.10022157445E+03  0.00000000000E+00 0. -1.
         21    1    1    2  504  503 -0.19337764091E+02  0.45923736294E+02 -0.31981380148E+02  0.59209351891E+02  0.00000000000E+00 0.  1.
         21    1    1    2  505  502 -0.81534117143E+02 -0.17294489314E+02 -0.41988146860E+02  0.93326931246E+02  0.00000000000E+00 0.  1.
          2    1    1    2  501    0  0.52934445566E+02 -0.71765753677E+02  0.74460302282E+03  0.74992402317E+03  0.00000000000E+00 0.  1.
<scales pt_clust_3="67.16782" pt_clust_4="49.82909" pt_clust_5="87.15398" pt_clust_6="14000.00000"></scales>
<clustering>
<clus scale="   49.829">  2  4  1 -1</clus>
<clus scale="   67.168">  2  3  1 -1</clus>
<clus scale="   87.154">  2  5  1 -1</clus>
<clus scale="   49.829">  2  3  1 -1</clus>
</clustering>
</event>
<event>
 6    0  0.1631680E+002  0.1647949E+03  0.7546771E-02  0.1183387E+00
          2   -1    0    0  505    0 -0.00000000000E+00  0.00000000000E+00  0.18237111927E+04  0.18237111927E+04  0.00000000000E+00 0.  1.
         21   -1    0    0  503  502  0.00000000000E+00 -0.00000000000E+00 -0.94269599622E+02  0.94269599622E+02  0.00000000000E+00 0.  1.
         21    1    1    2  503  501  0.14330860255E+03  0.11876063971E+02  0.19672022969E+03  0.24367446569E+03  0.00000000000E+00 0. -1.
         21    1    1    2  504  502 -0.17478905948E+03 -0.14879469440E+02  0.42419275547E+02  0.18047716992E+03  0.00000000000E+00 0.  1.
         21    1    1    2  505  504 -0.27209990440E+02 -0.24304912580E+02  0.42554136307E+03  0.42710252169E+03  0.00000000000E+00 0.  1.
          2    1    1    2  501    0  0.58690447367E+02  0.27308318049E+02  0.10647607248E+04  0.10667266350E+04  0.00000000000E+00 0.  1.
<scales pt_clust_3="164.79491" pt_clust_4="14000.00000" pt_clust_5="36.48441" pt_clust_6="38.93913"></scales>
<clustering>
<clus scale="   36.484">  1  5  2 -1</clus>
<clus scale="   38.939">  1  6  2 -1</clus>
<clus scale="  164.795">  1  3  2 -1</clus>
<clus scale="  164.795">  2  3  1 -1</clus>
</clustering>
</event>
<event>
 6    0  0.1631680E+002  0.1336609E+03  0.7546771E-02  0.1222123E+00
          3   -1    0    0  502    0 -0.00000000000E+00  0.00000000000E+00  0.70559006075E+03  0.70559006075E+03  0.00000000000E+00 0.  1.
         21   -1    0    0  503  502  0.00000000000E+00 -0.00000000000E+00 -0.27058946304E+03  0.27058946304E+03  0.00000000000E+00 0.  1.
         21    1    1    2  503  505 -0.12900113984E+02 -0.27983330098E+02 -0.46641481184E+02  0.55900871829E+02  0.00000000000E+00 0.  1.
         21    1    1    2  504  501 -0.59631911927E+02 -0.70119716382E+02  0.81686600345E+02  0.12306681202E+03  0.00000000000E+00 0. -1.
         21    1    1    2  505  504  0.33211887111E+02 -0.55717314673E+02 -0.18240619836E+03  0.19359615131E+03  0.00000000000E+00 0.  1.
          3    1    1    2  501    0  0.39320138800E+02  0.15382036115E+03  0.58236167691E+03  0.60361568862E+03  0.00000000000E+00 0.  1.
<scales pt_clust_3="30.81363" pt_clust_4="133.66086" pt_clust_5="82.72636" pt_clust_6="14000.00000"></scales>
<clustering>
<clus scale="   30.814">  2  3  1 -1</clus>
<clus scale="   82.726">  2  5  1 -1</clus>
<clus scale="  133.661">  2  4  1 -1</clus>
<clus scale="   30.814">  2  3  1 -1</clus>
</clustering>
</event>
<event>
 6    0  0.1631680E+002  0.9688184E+02  0.7546771E-02  0.1286993E+00
         -4   -1    0    0    0  501 -0.00000000000E+00  0.00000000000E+00  0.88590018480E+02  0.88590018480E+02  0.00000000000E+00 0.  1.
         21   -1    0    0  504  502  0.00000000000E+00 -0.00000000000E+00 -0.43800687921E+03  0.43800687921E+03  0.00000000000E+00 0. -1.
         21    1    1    2  503  502 -0.80985307029E+02  0.10045939346E+03 -0.31642020460E+03  0.34171984954E+03  0.00000000000E+00 0. -1.
         21    1    1    2  504  505  0.30176098812E+02 -0.20008539806E+02 -0.47498503053E+02  0.59724755310E+02  0.00000000000E+00 0. -1.
         21    1    1    2  505  501  0.35974516019E+02  0.60547790732E+01  0.60370378756E+01  0.36976640988E+02  0.00000000000E+00 0. -1.
         -4    1    1    2    0  503  0.14834692198E+02 -0.86505632732E+02  0.84648090491E+01  0.88175651850E+02  0.00000000000E+00 0.  1.
<scales pt_clust_3="14000.00000" pt_clust_4="36.20689" pt_clust_5="37.55762" pt_clust_6="96.88184"></scales>
<clustering>
<clus scale="   36.207">  2  4  1 -1</clus>
<clus scale="   37.558">  1  5  2 -1</clus>
<clus scale="   96.882">  1  6  2 -1</clus>
<clus scale="   36.207">  2  3  1 -1</clus>
</clustering>
</event>
<event>
 6    0  0.1631680E+002  0.3081294E+03  0.7546771E-02  0.1081246E+00
          1   -1    0    0  503    0 -0.00000000000E+00  0.00000000000E+00  0.33502750689E+03  0.33502750689E+03  0.00000000000E+00 0. -1.
         21   -1    0    0  505  502  0.00000000000E+00 -0.00000000000E+00 -0.97480605139E+03  0.97480605139E+03  0.00000000000E+00 0.  1.
         21    1    1    2  503  502 -0.63087717711E+01 -0.31131565951E+02 -0.36788606094E+03  0.36925482912E+03  0.00000000000E+00 0.  1.
         21    1    1    2  504  501 -0.13786419636E+03  0.24921660273E+02 -0.13702477578E+03  0.19596789269E+03  0.00000000000E+00 0.  1.
         21    1    1    2  505  504 -0.13200567395E+03 -0.34825638292E+02 -0.36059170323E+03  0.38557061542E+03  0.00000000000E+00 0.  1.
          1    1    1    2  501    0  0.27617864208E+03  0.41035543970E+02  0.22572399544E+03  0.35904022105E+03  0.00000000000E+00 0. -1.
<scales pt_clust_3="31.76437" pt_clust_4="130.20645" pt_clust_5="130.20645" pt_clust_6="278.04076"></scales>
<clustering>
<clus scale="   31.764">  2  3  1 -1</clus>
<clus scale="  130.206">  4  5 -1 -1</clus>
<clus scale="  278.041">  1  6  2 -1</clus>
<clus scale="   31.764">  2  3  1 -1</clus>
</clustering>
</event>
<event>
 6    0  0.1631680E+002  0.1225699E+03  0.7546771E-02  0.1238917E+00
         21   -1    0    0  503  502  0.00000000000E+00  0.00000000000E+00  0.25101937804E+02  0.25101937804E+02  0.00000000000E+00 0.  1.
          2   -1    0    0  505    0 -0.00000000000E+00 -0.00000000000E+00 -0.29534285162E+04  0.29534285162E+04  0.00000000000E+00 0. -1.
         21    1    1    2  503  501 -0.10633060290E+03 -0.62388314345E+02 -0.15564755882E+03  0.19855644398E+03  0.00000000000E+00 0.  1.
         21    1    1    2  504  502 -0.88305233184E+01  0.42266281423E+02 -0.92906530725E+03  0.93006814903E+03  0.00000000000E+00 0.  1.
         21    1    1    2  505  504  0.10814423061E+02 -0.31871137025E+02 -0.29599946271E+03  0.29790670191E+03  0.00000000000E+00 0. -1.
          2    1    1    2  501    0  0.10434670316E+03  0.51993169948E+02 -0.15476142496E+04  0.15519991591E+04  0.00000000000E+00 0. -1.
<scales pt_clust_3="122.56993" pt_clust_4="31.52035" pt_clust_5="33.65592" pt_clust_6="14000.00000"></scales>
<clustering>
<clus scale="   33.656">  2  5  1 -1</clus>
<clus scale="   31.520">  2  4  1 -1</clus>
<clus scale="  122.570">  1  3  2 -1</clus>
<clus scale="  122.570">  1  3  2 -1</clus>
</clustering>
</event>
<event>
 6    0  0.1631680E+002  0.8890500E+02  0.7546771E-02  0.1305525E+00
         -1   -1    0    0    0  501 -0.00000000000E+00  0.00000000000E+00  0.11162855661E+04  0.11162855661E+04  0.00000000000E+00 0.  1.
         21   -1    0    0  505  502  0.00000000000E+00 -0.00000000000E+00 -0.10172054020E+03  0.10172054020E+03  0.00000000000E+00 0.  1.
         21    1    1    2  503  502  0.28349412060E+02 -0.17841772003E+02  0.38720958673E+02  0.51198931951E+02  0.00000000000E+00 0.  1.
         21    1    1    2  504  501 -0.23755577976E+02 -0.22074689164E+02  0.14182014530E+03  0.14548049010E+03  0.00000000000E+00 0. -1.
         21    1    1    2  505  504 -0.10348687455E+03  0.60918771037E+02 -0.51057870047E+02  0.13048960097E+03  0.00000000000E+00 0.  1.
         -1    1    1    2    0  503  0.98893040465E+02 -0.21002309870E+02  0.88508179202E+03  0.89083708333E+03  0.00000000000E+00 0.  1.
<scales pt_clust_3="33.14235" pt_clust_4="32.42868" pt_clust_5="14000.00000" pt_clust_6="88.90500"></scales>
<clustering>
<clus scale="   32.429">  1  4  2 -1</clus>
<clus scale="   33.142">  2  3  1 -1</clus>
<clus scale="   88.905">  1  6  2 -1</clus>
<clus scale="   33.142">  2  3  1 -1</clus>
</clustering>
</event>
<event>
 6    0  0.1631680E+002  0.1216597E+03  0.7546771E-02  0.1240384E+00
         21   -1    0    0  501  502  0.00000000000E+00  0.00000000000E+00  0.89837648975E+03  0.89837648975E+03  0.00000000000E+00 0. -1.
          3   -1    0    0  503    0 -0.00000000000E+00 -0.00000000000E+00 -0.12909566396E+03  0.12909566396E+03  0.00000000000E+00 0.  1.
         21    1    1    2  503  504  0.55802809046E+01  0.33695341674E+02 -0.67130483580E+02  0.75319435813E+02  0.00000000000E+00 0.  1.
         21    1    1    2  504  505 -0.89328783537E+02 -0.98999916778E+02  0.45838620932E+03  0.47738719294E+03  0.00000000000E+00 0. -1.
         21    1    1    2  505  502  0.10875622466E+03  0.44280869283E+02  0.41153793370E+03  0.42796282859E+03  0.00000000000E+00 0.  1.
          3    1    1    2  501    0 -0.25007722031E+02  0.21023705821E+02 -0.33512833646E+02  0.46802696361E+02  0.00000000000E+00 0.  1.
<scales pt_clust_3="52.55655" pt_clust_4="121.65969" pt_clust_5="14000.00000" pt_clust_6="32.67082"></scales>
<clustering>
<clus scale="   32.671">  2  6  1 -1</clus>
<clus scale="   52.557">  2  3  1 -1</clus>
<clus scale="  121.660">  2  4  1 -1</clus>
<clus scale="  121.660">  1  3  2 -1</clus>
</clustering>
</event>
<event>
 6    0  0.1631680E+002  0.1339634E+03  0.7546771E-02  0.1221690E+00
          2   -1    0    0  504    0 -0.00000000000E+00  0.00000000000E+00  0.35987773648E+03  0.35987773648E+03  0.00000000000E+00 0.  1.
         21   -1    0    0  503  502  0.00000000000E+00 -0.00000000000E+00 -0.14398241624E+04  0.14398241624E+04  0.00000000000E+00 0. -1.
         21    1    1    2  503  501  0.20248528394E+03  0.19603640323E+01 -0.71697654697E+03  0.74502315544E+03  0.00000000000E+00 0. -1.
         21    1    1    2  504  505 -0.71890184059E+01 -0.34298319704E+02  0.11299115763E+03  0.11830071184E+03  0.00000000000E+00 0. -1.
         21    1    1    2  505  502 -0.72472304360E+02 -0.24744123250E+02 -0.68392468648E+03  0.68819872370E+03  0.00000000000E+00 0. -1.
          2    1    1    2  501    0 -0.12282396117E+03  0.57082078922E+02  0.20796364992E+03  0.24817930788E+03  0.00000000000E+00 0.  1.
<scales pt_clust_3="133.96340" pt_clust_4="35.04364" pt_clust_5="76.73702" pt_clust_6="14000.00000"></scales>
<clustering>
<clus scale="   35.044">  1  4  2 -1</clus>
<clus scale="   76.737">  2  5  1 -1</clus>
<clus scale="  133.963">  2  3  1 -1</clus>
<clus scale="   76.737">  2  3  1 -1</clus>
</clustering>
</event>
<event>
 6    0  0.1631680E+002  0.1356388E+03  0.7546771E-02  0.1219321E+00
         21   -1    0    0  503  502  0.00000000000E+00  0.00000000000E+00  0.23694215119E+03  0.23694215119E+03  0.00000000000E+00 0.  1.
          2   -1    0    0  504    0 -0.00000000000E+00 -0.00000000000E+00 -0.13629975505E+04  0.13629975505E+04  0.00000000000E+00 0. -1.
         21    1    1    2  503  501  0.16533039244E+03  0.19785986737E+01  0.17990995683E+03  0.24434738812E+03  0.00000000000E+00 0.  1.
         21    1    1    2  504  505 -0.18565245994E+02 -0.31204280593E+02 -0.68010389945E+02  0.77095970235E+02  0.00000000000E+00 0. -1.
         21    1    1    2  505  502 -0.32123845964E+02  0.23361933784E+02 -0.47993372218E+01  0.40009437229E+02  0.00000000000E+00 0. -1.
          2    1    1    2  501    0 -0.11464130048E+03  0.58637481349E+01 -0.12331556289E+04  0.12384869061E+04  0.00000000000E+00 0. -1.
<scales pt_clust_3="135.63878" pt_clust_4="36.30944" pt_clust_5="39.66755" pt_clust_6="14000.00000"></scales>
<clustering>
<clus scale="   36.309">  2  4  1 -1</clus>
<clus scale="   39.668">  1  5  2 -1</clus>
<clus scale="  135.639">  1  3  2 -1</clus>
<clus scale="   39.668">  1  3  2 -1</clus>
</clustering>
</event>
<event>
 6    0  0.1631680E+002  0.7050162E+02  0.7546771E-02  0.1358396E+00
          1   -1    0    0  505    0 -0.00000000000E+00  0.00000000000E+00  0.73869895099E+03  0.73869895099E+03  0.00000000000E+00 0. -1.
         21   -1    0    0  504  502  0.00000000000E+00 -0.00000000000E+00 -0.41528899598E+03  0.41528899598E+03  0.00000000000E+00 0. -1.
         21    1    1    2  503  502 -0.66480287436E+02  0.15230406195E+02  0.39716781048E+02  0.78924119173E+02  0.00000000000E+00 0.  1.
         21    1    1    2  504  501  0.38704950425E+02  0.24281457922E+02 -0.38561956413E+03  0.38831702335E+03  0.00000000000E+00 0. -1.
         21    1    1    2  505  503 -0.18929561675E+02  0.49516395894E+02  0.21423720061E+03  0.22069839123E+03  0.00000000000E+00 0.  1.
          1    1    1    2  501    0  0.46704898687E+02 -0.89028260011E+02  0.45507553748E+03  0.46604841321E+03  0.00000000000E+00 0. -1.
<scales pt_clust_3="51.00613" pt_clust_4="45.69094" pt_clust_5="14000.00000" pt_clust_6="70.50162"></scales>
<clustering>
<clus scale="   45.691">  2  4  1 -1</clus>
<clus scale="   51.006">  2  3  1 -1</clus>
<clus scale="   70.502">  2  6  1 -1</clus>
<clus scale="   45.691">  2  3  1 -1</clus>
</clustering>
</event>
<event>
 6    0  0.1631680E+002  0.3321023E+03  0.7546771E-02  0.1070210E+00
          1   -1    0    0  505    0 -0.00000000000E+00  0.00000000000E+00  0.91346337740E+03  0.91346337740E+03  0.00000000000E+00 0. -1.
         21   -1    0    0  504  502  0.00000000000E+00 -0.00000000000E+00 -0.48146774653E+03  0.48146774653E+03  0.00000000000E+00 0. -1.
         21    1    1    2  503  502  0.19962906561E+03 -0.18879345695E+02  0.69117147566E+02  0.21209755684E+03  0.00000000000E+00 0. -1.
         21    1    1    2  504  501 -0.29377640940E+03 -0.18543246452E+03 -0.30021869303E+03  0.45915252505E+03  0.00000000000E+00 0. -1.
         21    1    1    2  505  503 -0.15014293984E+02 -0.27425891125E+02  0.10594299778E+03  0.11046052374E+03  0.00000000000E+00 0. -1.
          1    1    1    2  501    0  0.10916163778E+03  0.23173770134E+03  0.55715417855E+03  0.61322051830E+03  0.00000000000E+00 0. -1.
<scales pt_clust_3="198.42405" pt_clust_4="14000.00000" pt_clust_5="31.26673" pt_clust_6="332.10230"></scales>
<clustering>
<clus scale="   31.267">  1  5  2 -1</clus>
<clus scale="  198.424">  1  3  2 -1</clus>
<clus scale="  332.102">  1  6  2 -1</clus>
<clus scale="  332.102">  2  3  1 -1</clus>
</clustering>
</event>
<event>
 6    0  0.1631680E+002  0.1108839E+03  0.7546771E-02  0.1258942E+00
         21   -1    0    0  503  502  0.00000000000E+00  0.00000000000E+00  0.53419236310E+03  0.53419236310E+03  0.00000000000E+00 0. -1.
         -2   -1    0    0    0  501 -0.00000000000E+00 -0.00000000000E+00 -0.37136942123E+03  0.37136942123E+03  0.00000000000E+00 0. -1.
         21    1    1    2  503  501 -0.20986252083E+02  0.67625466115E+02 -0.17123144693E+03  0.18529391480E+03  0.00000000000E+00 0. -1.
         21    1    1    2  504  502 -0.39408134286E+02  0.80422649237E+01  0.27282495584E+03  0.27577370361E+03  0.00000000000E+00 0. -1.
         21    1    1    2  505  504 -0.62458750687E+02 -0.17030145250E+02  0.22349885052E+03  0.23268617829E+03  0.00000000000E+00 0.  1.
         -2    1    1    2    0  505  0.12285313706E+03 -0.58637585789E+02 -0.16226941755E+03  0.21180798763E+03  0.00000000000E+00 0. -1.
<scales pt_clust_3="70.80697" pt_clust_4="32.84553" pt_clust_5="32.84553" pt_clust_6="102.75578"></scales>
<clustering>
<clus scale="   32.846">  4  5 -1 -1</clus>
<clus scale="   70.807">  2  3  1 -1</clus>
<clus scale="  102.756">  2  6  1 -1</clus>
<clus scale="  110.884">  1  3  2 -1</clus>
</clustering>
</event>
<event>
 6    0  0.1631680E+002  0.8439963E+02  0.7546771E-02  0.1317010E+00
         21   -1    0    0  501  502  0.00000000000E+00  0.00000000000E+00  0.28718716788E+03  0.28718716788E+03  0.00000000000E+00 0.  1.
          2   -1    0    0  504    0 -0.00000000000E+00 -0.00000000000E+00 -0.61729848111E+03  0.61729848111E+03  0.00000000000E+00 0.  1.
         21    1    1    2  503  505 -0.18731388047E+02  0.86578332730E+02 -0.69779860251E+01  0.88855865791E+02  0.00000000000E+00 0.  1.
         21    1    1    2  504  503 -0.18067685135E+02  0.30707343201E+02 -0.24772977580E+03  0.25027869264E+03  0.00000000000E+00 0.  1.
         21    1    1    2  505  502 -0.24694771153E+02 -0.20528903656E+02  0.23358374049E+03  0.23578089708E+03  0.00000000000E+00 0.  1.
          2    1    1    2  501    0  0.61493844335E+02 -0.96756772275E+02 -0.30898729190E+03  0.32957019347E+03  0.00000000000E+00 0.  1.
<scales pt_clust_3="84.39963" pt_clust_4="35.51122" pt_clust_5="32.11336" pt_clust_6="14000.00000"></scales>
<clustering>
<clus scale="   32.113">  1  5  2 -1</clus>
<clus scale="   35.511">  2  4  1 -1</clus>
<clus scale="   84.400">  1  3  2 -1</clus>
<clus scale="   32.113">  1  3  2 -1</clus>
</clustering>
</event>
<event>
 6    0  0.1631680E+002  0.1004038E+03  0.7546771E-02  0.1279449E+00
          1   -1    0    0  505    0 -0.00000000000E+00  0.00000000000E+00  0.61613316890E+03  0.61613316890E+03  0.00000000000E+00 0.  1.
         21   -1    0    0  501  502  0.00000000000E+00 -0.00000000000E+00 -0.53714709304E+02  0.53714709304E+02  0.00000000000E+00 0. -1.
         21    1    1    2  503  502  0.98217566680E+02 -0.45630381390E+02  0.56984733881E+02  0.12237680338E+03  0.00000000000E+00 0. -1.
         21    1    1    2  504  503 -0.85207930134E+01  0.43635449037E+02  0.26846685368E+03  0.27212333206E+03  0.00000000000E+00 0. -1.
         21    1    1    2  505  504  0.89694039013E+01  0.35000280032E+02  0.64455760193E+02  0.73891913162E+02  0.00000000000E+00 0.  1.
          1    1    1    2  501    0 -0.98666177568E+02 -0.33005347679E+02  0.17251111185E+03  0.20145582960E+03  0.00000000000E+00 0.  1.
<scales pt_clust_3="100.40379" pt_clust_4="61.06881" pt_clust_5="36.13129" pt_clust_6="14000.00000"></scales>
<clustering>
<clus scale="   36.131">  1  5  2 -1</clus>
<clus scale="   61.069">  1  4  2 -1</clus>
<clus scale="  100.404">  2  3  1 -1</clus>
<clus scale="  100.404">  2  3  1 -1</clus>
</clustering>
</event>
<event>
 6    0  0.1631680E+002  0.2146194E+03  0.7546771E-02  0.1137959E+00
         21   -1    0    0  501  502  0.00000000000E+00  0.00000000000E+00  0.66518601293E+03  0.66518601293E+03  0.00000000000E+00 0.  1.
          1   -1    0    0  504    0 -0.00000000000E+00 -0.00000000000E+00 -0.26813869635E+04  0.26813869635E+04  0.00000000000E+00 0.  1.
         21    1    1    2  503  502  0.52467555159E+02  0.87067213870E+02  0.25567549294E+03  0.27514269346E+03  0.00000000000E+00 0.  1.
         21    1    1    2  504  505 -0.33483866222E+02 -0.77081633491E+01 -0.41610709807E+02  0.53963286130E+02  0.00000000000E+00 0.  1.
         21    1    1    2  505  503  0.10198275668E+03  0.43184691462E+02  0.38292014170E+03  0.39861414320E+03  0.00000000000E+00 0.  1.
          1    1    1    2  501    0 -0.12096644562E+03 -0.12254374198E+03 -0.26131858754E+04  0.26188528536E+04  0.00000000000E+00 0.  1.
<scales pt_clust_3="69.90319" pt_clust_4="34.35964" pt_clust_5="69.90319" pt_clust_6="201.83672"></scales>
<clustering>
<clus scale="   34.360">  2  4  1 -1</clus>
<clus scale="   69.903">  3  5 -1 -1</clus>
<clus scale="  201.837">  2  6  1 -1</clus>
<clus scale="  214.619">  1  3  2 -1</clus>
</clustering>
</event>
<event>
 6    0  0.1631680E+002  0.1297446E+03  0.7546771E-02  0.1227835E+00
          1   -1    0    0  502    0 -0.00000000000E+00  0.00000000000E+00  0.67861966330E+03  0.67861966330E+03  0.00000000000E+00 0. -1.
         21   -1    0    0  505  502  0.00000000000E+00 -0.00000000000E+00 -0.66073908631E+03  0.66073908631E+03  0.00000000000E+00 0.  1.
         21    1    1    2  503  501  0.21240129412E+02  0.35588505252E+02  0.35567437691E+03  0.35808092269E+03  0.00000000000E+00 0. -1.
         21    1    1    2  504  503  0.20833335515E+02 -0.65225767801E+02 -0.24870205512E+03  0.25795569557E+03  0.00000000000E+00 0.  1.
         21    1    1    2  505  504 -0.39410406046E+02 -0.51094410860E+02 -0.39842493339E+03  0.40361645962E+03  0.00000000000E+00 0.  1.
          1    1    1    2  501    0 -0.26630588816E+01  0.80731673408E+02  0.30933318859E+03  0.31970567173E+03  0.00000000000E+00 0. -1.
<scales pt_clust_3="41.04922" pt_clust_4="116.40257" pt_clust_5="64.52766" pt_clust_6="41.04922"></scales>
<clustering>
<clus scale="   41.049">  3  6 -1 -1</clus>
<clus scale="   64.528">  2  5  1 -1</clus>
<clus scale="  116.403">  2  4  1 -1</clus>
<clus scale="   64.528">  2  3  1 -1</clus>
</clustering>
</event>
<event>
 6    0  0.1631680E+002  0.8822301E+02  0.7546771E-02  0.1307213E+00
         21   -1    0    0  505  502  0.00000000000E+00  0.00000000000E+00  0.73519011839E+03  0.73519011839E+03  0.00000000000E+00 0. -1.
          3   -1    0    0  503    0 -0.00000000000E+00 -0.00000000000E+00 -0.38938387832E+02  0.38938387832E+02  0.00000000000E+00 0. -1.
         21    1    1    2  503  504 -0.33167438684E+02  0.71228375933E+02  0.85245502530E+02  0.11593255034E+03  0.00000000000E+00 0. -1.
         21    1    1    2  504  502 -0.83897323419E+01  0.71145636693E+02  0.22170086956E+03  0.23298790696E+03  0.00000000000E+00 0. -1.
         21    1    1    2  505  501  0.41290256486E+02 -0.24383568709E+02  0.16413754708E+03  0.17099876626E+03  0.00000000000E+00 0. -1.
          3    1    1    2  501    0  0.26691454088E+00 -0.11799044392E+03  0.22516781140E+03  0.25420928266E+03  0.00000000000E+00 0. -1.
<scales pt_clust_3="88.22301" pt_clust_4="61.91795" pt_clust_5="47.95252" pt_clust_6="14000.00000"></scales>
<clustering>
<clus scale="   47.953">  1  5  2 -1</clus>
<clus scale="   61.918">  1  4  2 -1</clus>
<clus scale="   88.223">  2  3  1 -1</clus>
<clus scale="   47.953">  1  3  2 -1</clus>
</clustering>
</event>
<event>
 6    0  0.1631680E+002  0.1249210E+03  0.7546771E-02  0.1235193E+00
          2   -1    0    0  504    0 -0.00000000000E+00  0.00000000000E+00  0.46071355324E+03  0.46071355324E+03  0.00000000000E+00 0. -1.
         21   -1    0    0  501  502  0.00000000000E+00 -0.00000000000E+00 -0.12598663719E+03  0.12598663719E+03  0.00000000000E+00 0. -1.
         21    1    1    2  503  502 -0.35864309038E+02  0.40572690201E+02 -0.25605213283E+02  0.59900073457E+02  0.00000000000E+00 0. -1.
         21    1    1    2  504  505  0.14516592627E+03 -0.67745738127E+02  0.28370283096E+03  0.32580657986E+03  0.00000000000E+00 0. -1.
         21    1    1    2  505  503 -0.52465306064E+02  0.80315051908E+02  0.77268067727E+02  0.12318064050E+03  0.00000000000E+00 0. -1.
          2    1    1    2  501    0 -0.56836311173E+02 -0.53142003982E+02 -0.63876934903E+00  0.77812896626E+02  0.00000000000E+00 0. -1.
<scales pt_clust_3="54.15156" pt_clust_4="124.92101" pt_clust_5="14000.00000" pt_clust_6="81.20812"></scales>
<clustering>
<clus scale="   54.152">  2  3  1 -1</clus>
<clus scale="   81.208">  2  6  1 -1</clus>
<clus scale="  124.921">  1  4  2 -1</clus>
<clus scale="   54.152">  2  3  1 -1</clus>
</clustering>
</event>
<event>
 6    0  0.1631680E+002  0.1087146E+03  0.7546771E-02  0.1262969E+00
          2   -1    0    0  504    0 -0.00000000000E+00  0.00000000000E+00  0.20855425404E+04  0.20855425404E+04  0.00000000000E+00 0. -1.
         21   -1    0    0  501  502  0.00000000000E+00 -0.00000000000E+00 -0.21709388866E+02  0.21709388866E+02  0.00000000000E+00 0. -1.
         21    1    1    2  503  505 -0.21109311070E+02  0.82047456616E+02  0.91907411731E+03  0.92297054192E+03  0.00000000000E+00 0. -1.
         21    1    1    2  504  503 -0.12706199184E+02 -0.28368731724E+02  0.41869241610E+03  0.41984469955E+03  0.00000000000E+00 0. -1.
         21    1    1    2  505  502  0.95092532515E+02 -0.69154725342E+02  0.18177582378E+03  0.21648883548E+03  0.00000000000E+00 0. -1.
          2    1    1    2  501    0 -0.61277022261E+02  0.15476000450E+02  0.54429079436E+03  0.54794785233E+03  0.00000000000E+00 0. -1.
<scales pt_clust_3="108.71456" pt_clust_4="31.08428" pt_clust_5="14000.00000" pt_clust_6="65.73245"></scales>
<clustering>
<clus scale="   31.084">  1  4  2 -1</clus>
<clus scale="   65.732">  1  6  2 -1</clus>
<clus scale="  108.715">  1  3  2 -1</clus>
<clus scale="  108.715">  2  3  1 -1</clus>
</clustering>
</event>
<event>
 6    0  0.1631680E+002  0.1176352E+03  0.7546771E-02  0.1247050E+00
          2   -1    0    0  504    0 -0.00000000000E+00  0.00000000000E+00  0.27080065971E+04  0.27080065971E+04  0.00000000000E+00 0.  1.
         21   -1    0    0  501  502  0.00000000000E+00 -0.00000000000E+00 -0.28072245002E+02  0.28072245002E+02  0.00000000000E+00 0. -1.
         21    1    1    2  503  502 -0.14253434964E+02  0.29475029622E+02  0.26209263183E+02  0.41938803703E+02  0.00000000000E+00 0. -1.
         21    1    1    2  504  505  0.48713177782E+02  0.53823951624E+00  0.43798129804E+03  0.44068229012E+03  0.00000000000E+00 0.  1.
         21    1    1    2  505  503 -0.95919659537E+02 -0.82543500946E+02  0.20381640066E+03  0.23990651474E+03  0.00000000000E+00 0. -1.
          2    1    1    2  501    0  0.61459916719E+02  0.52530231808E+02  0.20119273902E+04  0.20135512336E+04  0.00000000000E+00 0.  1.
<scales pt_clust_3="32.74046" pt_clust_4="47.82641" pt_clust_5="117.63518" pt_clust_6="14000.00000"></scales>
<clustering>
<clus scale="   32.740">  2  3  1 -1</clus>
<clus scale="   47.826">  1  4  2 -1</clus>
<clus scale="  117.635">  2  5  1 -1</clus>
<clus scale="   32.740">  2  3  1 -1</clus>
</clustering>
</event>
<event>
 6    0  0.1631680E+002  0.1280669E+03  0.7546771E-02  0.1230353E+00
         21   -1    0    0  504  502  0.00000000000E+00  0.00000000000E+00  0.84070026479E+02  0.84070026479E+02  0.00000000000E+00 0.  1.
          2   -1    0    0  505    0 -0.00000000000E+00 -0.00000000000E+00 -0.16743667186E+04  0.16743667186E+04  0.00000000000E+00 0.  1.
         21    1    1    2  503  501 -0.43483277254E+02 -0.91524937028E+01 -0.50500535350E+03  0.50695657664E+03  0.00000000000E+00 0.  1.
         21    1    1    2  504  503  0.63046917029E+02  0.38038054844E+02  0.52442869706E+02  0.90399457665E+02  0.00000000000E+00 0.  1.
         21    1    1    2  505  502  0.79079959110E+01  0.51403790134E+02 -0.57550926680E+02  0.77569292901E+02  0.00000000000E+00 0. -1.
          2    1    1    2  501    0 -0.27471635686E+02 -0.80289351276E+02 -0.10801832817E+04  0.10835114179E+04  0.00000000000E+00 0.  1.
<scales pt_clust_3="44.20084" pt_clust_4="112.56172" pt_clust_5="52.00852" pt_clust_6="44.20084"></scales>
<clustering>
<clus scale="   44.201">  3  6 -1 -1</clus>
<clus scale="   52.009">  1  5  2 -1</clus>
<clus scale="  112.562">  1  4  2 -1</clus>
<clus scale="   52.009">  1  3  2 -1</clus>
</clustering>
</event>
<event>
 6    0  0.1631680E+002  0.8860465E+02  0.7546771E-02  0.1306266E+00
         21   -1    0    0  503  502  0.00000000000E+00  0.00000000000E+00  0.65810373706E+02  0.65810373706E+02  0.00000000000E+00 0.  1.
          2   -1    0    0  504    0 -0.00000000000E+00 -0.00000000000E+00 -0.13229451678E+04  0.13229451678E+04  0.00000000000E+00 0. -1.
         21    1    1    2  503  501  0.33088631526E+02 -0.88529927080E+02 -0.20601587407E+03  0.22666041978E+03  0.00000000000E+00 0. -1.
         21    1    1    2  504  505  0.68618646194E+01  0.29504477010E+02 -0.67309784647E+02  0.73811966909E+02  0.00000000000E+00 0. -1.
         21    1    1    2  505  502 -0.62564395182E+02 -0.76295437445E+01  0.31552651121E+02  0.70484631481E+02  0.00000000000E+00 0.  1.
          2    1    1    2  501    0  0.22613899037E+02  0.66654993814E+02 -0.10153617865E+04  0.10177985233E+04  0.00000000000E+00 0. -1.
<scales pt_clust_3="14000.00000" pt_clust_4="30.29190" pt_clust_5="62.86805" pt_clust_6="88.60465"></scales>
<clustering>
<clus scale="   30.292">  2  4  1 -1</clus>
<clus scale="   62.868">  1  5  2 -1</clus>
<clus scale="   88.605">  2  6  1 -1</clus>
<clus scale="   62.868">  1  3  2 -1</clus>
</clustering>
</event>
<event>
 6    0  0.1631680E+002  0.9812343E+02  0.7546771E-02  0.1284292E+00
          2   -1    0    0  503    0 -0.00000000000E+00  0.00000000000E+00  0.28330828219E+04  0.28330828219E+04  0.00000000000E+00 0.  1.
         21   -1    0    0  505  502  0.00000000000E+00 -0.00000000000E+00 -0.87330889580E+02  0.87330889580E+02  0.00000000000E+00 0.  1.
         21    1    1    2  503  504 -0.35840741420E+02 -0.11198455141E+03  0.60513168312E+03  0.61644906717E+03  0.00000000000E+00 0.  1.
         21    1    1    2  504  502  0.39894959645E+02 -0.57779220678E+02  0.58634589856E+02  0.91477107929E+02  0.00000000000E+00 0.  1.
         21    1    1    2  505  501  0.27556229630E+02  0.76977887887E+02 -0.38053700781E+02  0.90183286468E+02  0.00000000000E+00 0.  1.
          2    1    1    2  501    0 -0.31610447856E+02  0.92785884205E+02  0.21200393602E+04  0.21223042499E+04  0.00000000000E+00 0.  1.
<scales pt_clust_3="14000.00000" pt_clust_4="70.21429" pt_clust_5="68.26794" pt_clust_6="98.12343"></scales>
<clustering>
<clus scale="   70.214">  2  4  1 -1</clus>
<clus scale="   68.268">  2  5  1 -1</clus>
<clus scale="   98.123">  1  6  2 -1</clus>
<clus scale="   70.214">  2  3  1 -1</clus>
</clustering>
</event>
<event>
 6    0  0.1631680E+002  0.1572928E+03  0.7546771E-02  0.1191788E+00
          2   -1    0    0  505    0 -0.00000000000E+00  0.00000000000E+00  0.11035751328E+04  0.11035751328E+04  0.00000000000E+00 0. -1.
         21   -1    0    0  503  502  0.00000000000E+00 -0.00000000000E+00 -0.18020355142E+03  0.18020355142E+03  0.00000000000E+00 0. -1.
         21    1    1    2  503  501  0.10491136687E+03 -0.42981582959E+02  0.16932556129E+03  0.20377673341E+03  0.00000000000E+00 0. -1.
         21    1    1    2  504  502 -0.15487787301E+03  0.64539763430E+02 -0.11331815787E+03  0.20246861859E+03  0.00000000000E+00 0. -1.
         21    1    1    2  505  504 -0.17907733650E+02 -0.36534613246E+02  0.11538256808E+03  0.12234623781E+03  0.00000000000E+00 0.  1.
          2    1    1    2  501    0  0.67874239789E+02  0.14976432775E+02  0.75198160990E+03  0.75518709443E+03  0.00000000000E+00 0. -1.
<scales pt_clust_3="157.29279" pt_clust_4="14000.00000" pt_clust_5="40.68740" pt_clust_6="55.70382"></scales>
<clustering>
<clus scale="   40.687">  1  5  2 -1</clus>
<clus scale="   55.704">  1  6  2 -1</clus>
<clus scale="  157.293">  1  3  2 -1</clus>
<clus scale="  157.293">  2  3  1 -1</clus>
</clustering>
</event>
<event>
 6    0  0.1631680E+002  0.1050323E+03  0.7546771E-02  0.1270056E+00
          2   -1    0    0  505    0 -0.00000000000E+00  0.00000000000E+00  0.16227031694E+04  0.16227031694E+04  0.00000000000E+00 0. -1.
         21   -1    0    0  501  502  0.00000000000E+00 -0.00000000000E+00 -0.18779199712E+02  0.18779199712E+02  0.00000000000E+00 0. -1.
         21    1    1    2  503  504 -0.57145185751E+02 -0.57195301571E+02  0.43328270948E+03  0.44076159215E+03  0.00000000000E+00 0. -1.
         21    1    1    2  504  502 -0.34641638338E+02 -0.81847606356E+00  0.50150949384E+02  0.60957614241E+02  0.00000000000E+00 0. -1.
         21    1    1    2  505  503 -0.31155691451E+02 -0.74690130505E+01  0.60309252772E+03  0.60394292798E+03  0.00000000000E+00 0. -1.
          2    1    1    2  501    0  0.12294251554E+03  0.65482790685E+02  0.51739778314E+03  0.53582023478E+03  0.00000000000E+00 0. -1.
<scales pt_clust_3="105.03228" pt_clust_4="36.36055" pt_clust_5="32.03847" pt_clust_6="14000.00000"></scales>
<clustering>
<clus scale="   32.038">  1  5  2 -1</clus>
<clus scale="   36.361">  2  4  1 -1</clus>
<clus scale="  105.032">  1  3  2 -1</clus>
<clus scale="   36.361">  2  3  1 -1</clus>
</clustering>
</event>
<event>
 6    0  0.1631680E+002  0.6522103E+02  0.7546771E-02  0.1377142E+00
          1   -1    0    0  503    0 -0.00000000000E+00  0.00000000000E+00  0.15444338982E+04  0.15444338982E+04  0.00000000000E+00 0. -1.
         21   -1    0    0  504  502  0.00000000000E+00 -0.00000000000E+00 -0.22704271017E+03  0.22704271017E+03  0.00000000000E+00 0. -1.
         21    1    1    2  503  505  0.28299593391E+02 -0.56292952805E+02  0.45724340909E+03  0.46156397030E+03  0.00000000000E+00 0. -1.
         21    1    1    2  504  501 -0.37299568517E+02 -0.42760141374E+02 -0.18289240536E+03  0.19149234826E+03  0.00000000000E+00 0. -1.
         21    1    1    2  505  502  0.79346955347E+02  0.74931810815E+02  0.45711345506E+02  0.11832262126E+03  0.00000000000E+00 0.  1.
          1    1    1    2  501    0 -0.70346980221E+02  0.24121283363E+02  0.99732883880E+03  0.10000976685E+04  0.00000000000E+00 0. -1.
<scales pt_clust_3="65.22103" pt_clust_4="56.74229" pt_clust_5="57.89832" pt_clust_6="14000.00000"></scales>
<clustering>
<clus scale="   56.742">  2  4  1 -1</clus>
<clus scale="   57.898">  2  5  1 -1</clus>
<clus scale="   65.221">  2  3  1 -1</clus>
<clus scale="   56.742">  2  3  1 -1</clus>
</clustering>
</event>
<event>
 6    0  0.1631680E+002  0.8590524E+02  0.7546771E-02  0.1313082E+00
         21   -1    0    0  503  502  0.00000000000E+00  0.00000000000E+00  0.36702033369E+03  0.36702033369E+03  0.00000000000E+00 0. -1.
          2   -1    0    0  504    0 -0.00000000000E+00 -0.00000000000E+00 -0.30190719151E+04  0.30190719151E+04  0.00000000000E+00 0.  1.
         21    1    1    2  503  505  0.34504080490E+02  0.69038553338E+02  0.19137959107E+03  0.20635649080E+03  0.00000000000E+00 0. -1.
         21    1    1    2  504  502 -0.29927121514E+02 -0.10322717059E+03  0.14683921694E+03  0.18197042887E+03  0.00000000000E+00 0. -1.
         21    1    1    2  505  501 -0.39024731704E+02  0.52102679306E+02 -0.29002678062E+03  0.29724258166E+03  0.00000000000E+00 0. -1.
          2    1    1    2  501    0  0.34447772728E+02 -0.17914062053E+02 -0.27002436088E+04  0.27005227475E+04  0.00000000000E+00 0.  1.
<scales pt_clust_3="14000.00000" pt_clust_4="85.90524" pt_clust_5="36.33477" pt_clust_6="38.82734"></scales>
<clustering>
<clus scale="   38.827">  2  6  1 -1</clus>
<clus scale="   36.335">  2  5  1 -1</clus>
<clus scale="   85.905">  2  4  1 -1</clus>
<clus scale="   85.905">  1  3  2 -1</clus>
</clustering>
</event>
<event>
 6    0  0.1631680E+002  0.1283015E+03  0.7546771E-02  0.1229998E+00
          2   -1    0    0  503    0 -0.00000000000E+00  0.00000000000E+00  0.16850943937E+04  0.16850943937E+04  0.00000000000E+00 0. -1.
         21   -1    0    0  505  502  0.00000000000E+00 -0.00000000000E+00 -0.23803707950E+03  0.23803707950E+03  0.00000000000E+00 0. -1.
         21    1    1    2  503  504 -0.11098877491E+03 -0.54338574704E+01  0.83265764532E+03  0.84003975458E+03  0.00000000000E+00 0. -1.
         21    1    1    2  504  502 -0.39875058120E+02 -0.40238164151E+02 -0.18992621144E+03  0.19819459101E+03  0.00000000000E+00 0. -1.
         21    1    1    2  505  501 -0.23889239959E+02 -0.57344069367E+02  0.74028896698E+01  0.62560697350E+02  0.00000000000E+00 0.  1.
          2    1    1    2  501    0  0.17475307299E+03  0.10301609099E+03  0.79692299064E+03  0.82233643026E+03  0.00000000000E+00 0. -1.
<scales pt_clust_3="14000.00000" pt_clust_4="56.64918" pt_clust_5="95.96880" pt_clust_6="128.30150"></scales>
<clustering>
<clus scale="   56.649">  2  4  1 -1</clus>
<clus scale="   95.969">  2  5  1 -1</clus>
<clus scale="  128.302">  2  6  1 -1</clus>
<clus scale="   56.649">  2  3  1 -1</clus>
</clustering>
</event>
<event>
 6    0  0.1631680E+002  0.9577698E+02  0.7546771E-02  0.1289436E+00
         -1   -1    0    0    0  501 -0.00000000000E+00  0.00000000000E+00  0.14510903453E+03  0.14510903453E+03  0.00000000000E+00 0. -1.
         21   -1    0    0  505  502  0.00000000000E+00 -0.00000000000E+00 -0.75699911415E+03  0.75699911415E+03  0.00000000000E+00 0. -1.
         21    1    1    2  503  504 -0.39631855756E+02 -0.98584233837E+02 -0.27045942230E+03  0.29058188908E+03  0.00000000000E+00 0. -1.
         21    1    1    2  504  502  0.42922737399E+02  0.79832882482E+02 -0.39487006269E+03  0.40513950303E+03  0.00000000000E+00 0. -1.
         21    1    1    2  505  501  0.85000480372E+02 -0.22726818302E+02  0.63227290394E+02  0.10834795884E+03  0.00000000000E+00 0.  1.
         -1    1    1    2    0  503 -0.88291362015E+02  0.41478169657E+02 -0.97878850261E+01  0.98038797717E+02  0.00000000000E+00 0. -1.
<scales pt_clust_3="14000.00000" pt_clust_4="95.77698" pt_clust_5="87.98631" pt_clust_6="35.10108"></scales>
<clustering>
<clus scale="   87.986">  1  5  2 -1</clus>
<clus scale="   35.101">  1  6  2 -1</clus>
<clus scale="   95.777">  2  4  1 -1</clus>
<clus scale="   95.777">  2  3  1 -1</clus>
</clustering>
</event>
<event>
 6    0  0.1631680E+002  0.8492931E+02  0.7546771E-02  0.1315617E+00
          2   -1    0    0  505    0 -0.00000000000E+00  0.00000000000E+00  0.16153691910E+04  0.16153691910E+04  0.00000000000E+00 0.  1.
         21   -1    0    0  503  502  0.00000000000E+00 -0.00000000000E+00 -0.21083936243E+02  0.21083936243E+02  0.00000000000E+00 0. -1.
         21    1    1    2  503  501  0.58019380835E+02  0.17037206874E+02  0.57866887289E+02  0.83696425342E+02  0.00000000000E+00 0. -1.
         21    1    1    2  504  502 -0.11265888515E+02 -0.28321704883E+02  0.83017754308E+02  0.88436342879E+02  0.00000000000E+00 0. -1.
         21    1    1    2  505  504  0.55893984353E+02  0.25152689278E+02  0.29512349920E+03  0.30142109257E+03  0.00000000000E+00 0. -1.
          2    1    1    2  501    0 -0.10264747667E+03 -0.13868191269E+02  0.11582771140E+04  0.11628992665E+04  0.00000000000E+00 0.  1.
<scales pt_clust_3="50.18313" pt_clust_4="30.48014" pt_clust_5="84.92931" pt_clust_6="14000.00000"></scales>
<clustering>
<clus scale="   30.480">  2  4  1 -1</clus>
<clus scale="   50.183">  2  3  1 -1</clus>
<clus scale="   84.929">  2  5  1 -1</clus>
<clus scale="   30.480">  2  3  1 -1</clus>
</clustering>
</event>
<event>
 6    0  0.1631680E+002  0.1735626E+03  0.7546771E-02  0.1174183E+00
          2   -1    0    0  504    0 -0.00000000000E+00  0.00000000000E+00  0.75514770796E+02  0.75514770796E+02  0.00000000000E+00 0. -1.
         21   -1    0    0  503  502  0.00000000000E+00 -0.00000000000E+00 -0.18031626672E+04  0.18031626672E+04  0.00000000000E+00 0.  1.
         21    1    1    2  503  505  0.19347750705E+03  0.98008732777E+01 -0.10956773503E+04  0.11126717660E+04  0.00000000000E+00 0.  1.
         21    1    1    2  504  502 -0.37544112982E+02 -0.35580678884E+02 -0.43862363139E+02  0.67819260019E+02  0.00000000000E+00 0. -1.
         21    1    1    2  505  501 -0.14790932916E+03 -0.39510664393E+02 -0.60995276348E+03  0.62887251167E+03  0.00000000000E+00 0. -1.
          2    1    1    2  501    0 -0.80240649100E+01  0.65290469999E+02  0.21844580462E+02  0.69313900380E+02  0.00000000000E+00 0. -1.
<scales pt_clust_3="14000.00000" pt_clust_4="51.72567" pt_clust_5="173.56264" pt_clust_6="52.94647"></scales>
<clustering>
<clus scale="   51.726">  1  4  2 -1</clus>
<clus scale="   52.946">  1  6  2 -1</clus>
<clus scale="  173.563">  1  5  2 -1</clus>
<clus scale="  173.563">  2  3  1 -1</clus>
</clustering>
</event>
<event>
 6    0  0.1631680E+002  0.7560133E+02  0.7546771E-02  0.1342019E+00
          1   -1    0    0  504    0 -0.00000000000E+00  0.00000000000E+00  0.20106060115E+04  0.20106060115E+04  0.00000000000E+00 0.  1.
         21   -1    0    0  503  502  0.00000000000E+00 -0.00000000000E+00 -0.57347893501E+03  0.57347893501E+03  0.00000000000E+00 0.  1.
         21    1    1    2  503  501 -0.10455573425E+03  0.32485518626E+02 -0.13373204661E+03  0.17283365059E+03  0.00000000000E+00 0.  1.
         21    1    1    2  504  505  0.48635600310E+02  0.48510002479E+02  0.17673678605E+04  0.17687022916E+04  0.00000000000E+00 0.  1.
         21    1    1    2  505  502  0.68464948246E+02 -0.16577177056E+02 -0.41164313208E+03  0.41762701077E+03  0.00000000000E+00 0.  1.
          1    1    1    2  501    0 -0.12544814304E+02 -0.64418344049E+02  0.21513439476E+03  0.22492199365E+03  0.00000000000E+00 0.  1.
<scales pt_clust_3="75.60133" pt_clust_4="39.26703" pt_clust_5="14000.00000" pt_clust_6="65.62846"></scales>
<clustering>
<clus scale="   65.628">  1  6  2 -1</clus>
<clus scale="   39.267">  1  4  2 -1</clus>
<clus scale="   75.601">  1  3  2 -1</clus>
<clus scale="   75.601">  2  3  1 -1</clus>
</clustering>
</event>
<event>
 6    0  0.1631680E+002  0.9517778E+02  0.7546771E-02  0.1290776E+00
          2   -1    0    0  503    0 -0.00000000000E+00  0.00000000000E+00  0.35009546559E+03  0.35009546559E+03  0.00000000000E+00 0.  1.
         21   -1    0    0  505  502  0.00000000000E+00 -0.00000000000E+00 -0.19845352980E+03  0.19845352980E+03  0.00000000000E+00 0.  1.
         21    1    1    2  503  504 -0.39544205215E+02 -0.80449257168E+01  0.17633539971E+03  0.18089399710E+03  0.00000000000E+00 0.  1.
         21    1    1    2  504  502  0.76578704869E+02 -0.46238535878E+02  0.51474364891E+02  0.10320809310E+03  0.00000000000E+00 0.  1.
         21    1    1    2  505  501  0.38687517307E+02  0.93655660479E+02 -0.12902398919E+03  0.16405882031E+03  0.00000000000E+00 0.  1.
          2    1    1    2  501    0 -0.75722016961E+02 -0.39372198884E+02  0.52856160373E+02  0.10038808489E+03  0.00000000000E+00 0.  1.
<scales pt_clust_3="40.35424" pt_clust_4="77.05524" pt_clust_5="95.17778" pt_clust_6="14000.00000"></scales>
<clustering>
<clus scale="   40.354">  1  3  2 -1</clus>
<clus scale="   77.055">  1  4  2 -1</clus>
<clus scale="   95.178">  2  5  1 -1</clus>
<clus scale="   95.178">  2  3  1 -1</clus>
</clustering>
</event>
<event>
 6    0  0.1631680E+002  0.6518895E+02  0.7546771E-02  0.1377262E+00
         21   -1    0    0  505  502  0.00000000000E+00  0.00000000000E+00  0.18356456650E+03  0.18356456650E+03  0.00000000000E+00 0.  1.
          2   -1    0    0  503    0 -0.00000000000E+00 -0.00000000000E+00 -0.43096153391E+04  0.43096153391E+04  0.00000000000E+00 0.  1.
         21    1    1    2  503  502  0.32105492993E+02  0.16306193268E+02 -0.98619758129E+03  0.98685476336E+03  0.00000000000E+00 0.  1.
         21    1    1    2  504  501  0.39588550594E+02  0.85197392688E+02  0.30322742437E+02  0.98718376039E+02  0.00000000000E+00 0.  1.
         21    1    1    2  505  504 -0.37310258983E+02 -0.20499206741E+02  0.11429062124E+03  0.12196154724E+03  0.00000000000E+00 0.  1.
          2    1    1    2  501    0 -0.34383784604E+02 -0.81004379215E+02 -0.32844665550E+04  0.32856452190E+04  0.00000000000E+00 0.  1.
<scales pt_clust_3="36.00909" pt_clust_4="14000.00000" pt_clust_5="42.52926" pt_clust_6="65.18895"></scales>
<clustering>
<clus scale="   36.009">  2  3  1 -1</clus>
<clus scale="   42.529">  1  5  2 -1</clus>
<clus scale="   65.189">  2  6  1 -1</clus>
<clus scale="   42.529">  1  3  2 -1</clus>
</clustering>
</event>
<event>
 6    0  0.1631680E+002  0.1310301E+03  0.7546771E-02  0.1225935E+00
         21   -1    0    0  504  502  0.00000000000E+00  0.00000000000E+00  0.60937781138E+02  0.60937781138E+02  0.00000000000E+00 0.  1.
         -3   -1    0    0    0  501 -0.00000000000E+00 -0.00000000000E+00 -0.12176214648E+04  0.12176214648E+04  0.00000000000E+00 0.  1.
         21    1    1    2  503  502 -0.64761914639E+02 -0.30157128970E+02 -0.61215806267E+02  0.94079397066E+02  0.00000000000E+00 0.  1.
         21    1    1    2  504  505  0.53158439864E+02  0.15265889202E+03 -0.14425870704E+03  0.21665902150E+03  0.00000000000E+00 0.  1.
         21    1    1    2  505  501  0.34207312887E+02  0.15894292236E+02 -0.17111959243E+03  0.17522751980E+03  0.00000000000E+00 0.  1.
         -3    1    1    2    0  503 -0.22603838112E+02 -0.13839605529E+03 -0.78008957791E+03  0.79259330756E+03  0.00000000000E+00 0.  1.
<scales pt_clust_3="68.63500" pt_clust_4="131.03014" pt_clust_5="37.71961" pt_clust_6="14000.00000"></scales>
<clustering>
<clus scale="   37.720">  2  5  1 -1</clus>
<clus scale="   68.635">  1  3  2 -1</clus>
<clus scale="  131.030">  1  4  2 -1</clus>
<clus scale="   68.635">  1  3  2 -1</clus>
</clustering>
</event>
<event>
 6    0  0.1631680E+002  0.2472036E+03  0.7546771E-02  0.1115085E+00
         21   -1    0    0  503  502  0.00000000000E+00  0.00000000000E+00  0.32338383915E+03  0.32338383915E+03  0.00000000000E+00 0. -1.
          2   -1    0    0  504    0 -0.00000000000E+00 -0.00000000000E+00 -0.61036868041E+03  0.61036868041E+03  0.00000000000E+00 0. -1.
         21    1    1    2  503  501 -0.46444836151E+02 -0.65031957663E+02  0.17192355270E+03  0.18958899307E+03  0.00000000000E+00 0. -1.
         21    1    1    2  504  505 -0.46773476675E+02 -0.11020704281E+02 -0.50895992287E+02  0.69997257618E+02  0.00000000000E+00 0. -1.
         21    1    1    2  505  502  0.24416234344E+03 -0.10225253214E+03 -0.90048883692E+02  0.27960620833E+03  0.00000000000E+00 0. -1.
          2    1    1    2  501    0 -0.15094403061E+03  0.17830519408E+03 -0.31796351798E+03  0.39456006055E+03  0.00000000000E+00 0. -1.
<scales pt_clust_3="80.49647" pt_clust_4="48.05428" pt_clust_5="247.20355" pt_clust_6="14000.00000"></scales>
<clustering>
<clus scale="   48.054">  2  4  1 -1</clus>
<clus scale="   80.496">  1  3  2 -1</clus>
<clus scale="  247.204">  1  5  2 -1</clus>
<clus scale="   80.496">  1  3  2 -1</clus>
</clustering>
</event>
<event>
 6    0  0.1631680E+002  0.6773493E+02  0.7546771E-02  0.1367969E+00
          2   -1    0    0  505    0 -0.00000000000E+00  0.00000000000E+00  0.12887532065E+04  0.12887532065E+04  0.00000000000E+00 0.  1.
         21   -1    0    0  503  502  0.00000000000E+00 -0.00000000000E+00 -0.95170816188E+02  0.95170816188E+02  0.00000000000E+00 0. -1.
         21    1    1    2  503  501  0.43389536267E+02  0.73780452648E+02  0.15410312385E+03  0.17627813203E+03  0.00000000000E+00 0. -1.
         21    1    1    2  504  502  0.12148718988E+02 -0.66729650728E+02 -0.63181232073E+02  0.92694691033E+02  0.00000000000E+00 0. -1.
         21    1    1    2  505  504  0.34080065742E+02 -0.36259366492E+01  0.65537996988E+02  0.73958281124E+02  0.00000000000E+00 0.  1.
          2    1    1    2  501    0 -0.89618320996E+02 -0.34248652703E+01  0.10371225016E+04  0.10409929185E+04  0.00000000000E+00 0.  1.
<scales pt_clust_3="67.73493" pt_clust_4="14000.00000" pt_clust_5="34.27241" pt_clust_6="60.91853"></scales>
<clustering>
<clus scale="   34.272">  1  5  2 -1</clus>
<clus scale="   60.919">  1  6  2 -1</clus>
<clus scale="   67.735">  1  3  2 -1</clus>
<clus scale="   67.735">  2  3  1 -1</clus>
</clustering>
</event>
<event>
 6    0  0.1631680E+002  0.1210362E+03  0.7546771E-02  0.1241397E+00
         21   -1    0    0  503  502  0.00000000000E+00  0.00000000000E+00  0.12393380497E+03  0.12393380497E+03  0.00000000000E+00 0. -1.
          2   -1    0    0  504    0 -0.00000000000E+00 -0.00000000000E+00 -0.22822930200E+04  0.22822930200E+04  0.00000000000E+00 0.  1.
         21    1    1    2  503  501  0.43753318709E+02 -0.32509989120E+02  0.44750043200E+02  0.70525305083E+02  0.00000000000E+00 0. -1.
         21    1    1    2  504  505  0.58080876083E+01  0.53941631824E+02 -0.95486963591E+03  0.95640966908E+03  0.00000000000E+00 0.  1.
         21    1    1    2  505  502  0.76725971807E+01  0.13739925294E+03 -0.19476529507E+02  0.13898474254E+03  0.00000000000E+00 0. -1.
          2    1    1    2  501    0 -0.57234003498E+02 -0.15883089565E+03 -0.12287630928E+04  0.12403071083E+04  0.00000000000E+00 0.  1.
<scales pt_clust_3="54.24386" pt_clust_4="54.25342" pt_clust_5="14000.00000" pt_clust_6="121.03622"></scales>
<clustering>
<clus scale="   54.253">  2  4  1 -1</clus>
<clus scale="   54.244">  1  3  2 -1</clus>
<clus scale="  121.036">  2  6  1 -1</clus>
<clus scale="   54.244">  1  3  2 -1</clus>
</clustering>
</event>
<event>
 6    0  0.1631680E+002  0.1769393E+03  0.7546771E-02  0.1170799E+00
          2   -1    0    0  505    0 -0.00000000000E+00  0.00000000000E+00  0.65736552383E+03  0.65736552383E+03  0.00000000000E+00 0. -1.
         21   -1    0    0  504  502  0.00000000000E+00 -0.00000000000E+00 -0.45119829104E+03  0.45119829104E+03  0.00000000000E+00 0.  1.
         21    1    1    2  503  502 -0.47797853180E+02  0.41815268802E+02 -0.39753330686E+02  0.74923152458E+02  0.00000000000E+00 0.  1.
         21    1    1    2  504  501 -0.12455379803E+03 -0.12015223994E+03 -0.33772965441E+03  0.37948850949E+03  0.00000000000E+00 0.  1.
         21    1    1    2  505  503  0.93151712226E+02  0.11365103522E+03  0.14297514251E+03  0.20502607315E+03  0.00000000000E+00 0.  1.
          2    1    1    2  501    0  0.79199938986E+02 -0.35314064085E+02  0.44067507539E+03  0.44912607977E+03  0.00000000000E+00 0. -1.
<scales pt_clust_3="63.50710" pt_clust_4="14000.00000" pt_clust_5="176.93928" pt_clust_6="86.06548"></scales>
<clustering>
<clus scale="   63.507">  2  3  1 -1</clus>
<clus scale="   86.065">  1  6  2 -1</clus>
<clus scale="  176.939">  1  5  2 -1</clus>
<clus scale="   63.507">  2  3  1 -1</clus>
</clustering>
</event>
<event>
 6    0  0.1631680E+002  0.1639387E+03  0.7546771E-02  0.1184320E+00
          2   -1    0    0  504    0 -0.00000000000E+00  0.00000000000E+00  0.19324135554E+04  0.19324135554E+04  0.00000000000E+00 0.  1.
         21   -1    0    0  501  502  0.00000000000E+00 -0.00000000000E+00 -0.56767026141E+03  0.56767026141E+03  0.00000000000E+00 0. -1.
         21    1    1    2  503  505 -0.25970790630E+02 -0.21215518495E+02 -0.44339331649E+03  0.44465966008E+03  0.00000000000E+00 0. -1.
         21    1    1    2  504  503 -0.84849661317E+02 -0.99242741299E+02  0.18595151538E+03  0.22721477240E+03  0.00000000000E+00 0. -1.
         21    1    1    2  505  502 -0.27505729231E+02  0.19140772264E+02 -0.95901801086E+02  0.10158784256E+03  0.00000000000E+00 0. -1.
          2    1    1    2  501    0  0.13832618118E+03  0.10131748753E+03  0.17180868961E+04  0.17266215417E+04  0.00000000000E+00 0.  1.
<scales pt_clust_3="52.10779" pt_clust_4="163.93868" pt_clust_5="33.51021" pt_clust_6="14000.00000"></scales>
<clustering>
<clus scale="   33.510">  2  5  1 -1</clus>
<clus scale="   52.108">  2  3  1 -1</clus>
<clus scale="  163.939">  2  4  1 -1</clus>
<clus scale="   33.510">  2  3  1 -1</clus>
</clustering>
</event>
<event>
 6    0  0.1631680E+002  0.9121192E+02  0.7546771E-02  0.1299943E+00
         21   -1    0    0  505  502  0.00000000000E+00  0.00000000000E+00  0.67526330136E+03  0.67526330136E+03  0.00000000000E+00 0. -1.
          2   -1    0    0  503    0 -0.00000000000E+00 -0.00000000000E+00 -0.14012775703E+04  0.14012775703E+04  0.00000000000E+00 0.  1.
         21    1    1    2  503  502  0.11022652468E+02 -0.34654028893E+02 -0.43188929587E+02  0.56459580452E+02  0.00000000000E+00 0.  1.
         21    1    1    2  504  501 -0.97671486033E+02  0.44041881822E+02  0.21273117311E+03  0.23818891358E+03  0.00000000000E+00 0. -1.
         21    1    1    2  505  504  0.67254363123E+01 -0.50541726336E+02  0.44018555435E+03  0.44312867190E+03  0.00000000000E+00 0. -1.
          2    1    1    2  501    0  0.79923397252E+02  0.41153873407E+02 -0.13357420668E+04  0.13387637057E+04  0.00000000000E+00 0.  1.
<scales pt_clust_3="36.36483" pt_clust_4="14000.00000" pt_clust_5="51.02622" pt_clust_6="91.21192"></scales>
<clustering>
<clus scale="   36.365">  2  3  1 -1</clus>
<clus scale="   51.026">  1  5  2 -1</clus>
<clus scale="   91.212">  2  6  1 -1</clus>
<clus scale="   51.026">  1  3  2 -1</clus>
</clustering>
</event>
<event>
 6    0  0.1631680E+002  0.1390572E+03  0.7546771E-02  0.1214603E+00
         21   -1    0    0  504  502  0.00000000000E+00  0.00000000000E+00  0.18413315713E+03  0.18413315713E+03  0.00000000000E+00 0.  1.
          1   -1    0    0  503    0 -0.00000000000E+00 -0.00000000000E+00 -0.72954933517E+03  0.72954933517E+03  0.00000000000E+00 0.  1.
         21    1    1    2  503  505 -0.41703322771E+02 -0.28695082328E+02 -0.29603822628E+03  0.30033515662E+03  0.00000000000E+00 0.  1.
         21    1    1    2  504  501  0.14514406319E+02 -0.43611774071E+02  0.10107463005E+03  0.11103483989E+03  0.00000000000E+00 0.  1.
         21    1    1    2  505  502  0.31557574388E+02 -0.96766344320E+02  0.11857723697E+02  0.10247053970E+03  0.00000000000E+00 0.  1.
          1    1    1    2  501    0 -0.43686579351E+01  0.16907320072E+03 -0.36231030551E+03  0.39984195610E+03  0.00000000000E+00 0.  1.
<scales pt_clust_3="50.98759" pt_clust_4="45.96363" pt_clust_5="139.05716" pt_clust_6="14000.00000"></scales>
<clustering>
<clus scale="   45.964">  1  4  2 -1</clus>
<clus scale="   50.988">  2  3  1 -1</clus>
<clus scale="  139.057">  1  5  2 -1</clus>
<clus scale="   45.964">  1  3  2 -1</clus>
</clustering>
</event>
<event>
 6    0  0.1631680E+002  0.1310228E+03  0.7546771E-02  0.1225946E+00
         21   -1    0    0  503  502  0.00000000000E+00  0.00000000000E+00  0.62582502444E+02  0.62582502444E+02  0.00000000000E+00 0.  1.
          1   -1    0    0  504    0 -0.00000000000E+00 -0.00000000000E+00 -0.15387921639E+04  0.15387921639E+04  0.00000000000E+00 0.  1.
         21    1    1    2  503  505 -0.69684304030E+02  0.80846948654E+01 -0.10898053454E+03  0.12960718124E+03  0.00000000000E+00 0. -1.
         21    1    1    2  504  502 -0.13524801784E+02 -0.45614021264E+02  0.32691876850E+02  0.57726233301E+02  0.00000000000E+00 0.  1.
         21    1    1    2  505  501 -0.31851455217E+02 -0.22488980004E+02 -0.95099677750E+02  0.10278238239E+03  0.00000000000E+00 0.  1.
          1    1    1    2  501    0  0.11506056103E+03  0.60018306402E+02 -0.13048213260E+04  0.13112588694E+04  0.00000000000E+00 0.  1.
<scales pt_clust_3="31.97226" pt_clust_4="47.57688" pt_clust_5="31.97226" pt_clust_6="123.80544"></scales>
<clustering>
<clus scale="   31.972">  3  5 -1 -1</clus>
<clus scale="   47.577">  1  4  2 -1</clus>
<clus scale="  123.805">  2  6  1 -1</clus>
<clus scale="   47.577">  1  3  2 -1</clus>
</clustering>
</event>
<event>
 6    0  0.1631680E+002  0.2722650E+03  0.7546771E-02  0.1099990E+00
         21   -1    0    0  501  502  0.00000000000E+00  0.00000000000E+00  0.93768210573E+03  0.93768210573E+03  0.00000000000E+00 0.  1.
          4   -1    0    0  503    0 -0.00000000000E+00 -0.00000000000E+00 -0.85190663607E+03  0.85190663607E+03  0.00000000000E+00 0. -1.
         21    1    1    2  503  504 -0.37844185849E+02 -0.96427343133E+01 -0.10788460005E+02  0.40516115274E+02  0.00000000000E+00 0.  1.
         21    1    1    2  504  505 -0.23800089271E+03  0.12144618679E+03  0.17730809288E+03  0.32067391696E+03  0.00000000000E+00 0.  1.
         21    1    1    2  505  502  0.29381076625E+02  0.52259387282E+02  0.64333646391E+03  0.64612390222E+03  0.00000000000E+00 0.  1.
          4    1    1    2  501    0  0.24646400194E+03 -0.16406283976E+03 -0.72408062713E+03  0.78227480735E+03  0.00000000000E+00 0. -1.
<scales pt_clust_3="39.05336" pt_clust_4="272.26495" pt_clust_5="59.90696" pt_clust_6="14000.00000"></scales>
<clustering>
<clus scale="   39.053">  2  3  1 -1</clus>
<clus scale="   59.907">  1  5  2 -1</clus>
<clus scale="  272.265">  1  4  2 -1</clus>
<clus scale="   59.907">  1  3  2 -1</clus>
</clustering>
</event>
<event>
 6    0  0.1631680E+002  0.5779477E+02  0.7546771E-02  0.1407326E+00
          1   -1    0    0  505    0 -0.00000000000E+00  0.00000000000E+00  0.42014798883E+03  0.42014798883E+03  0.00000000000E+00 0.  1.
         21   -1    0    0  504  502  0.00000000000E+00 -0.00000000000E+00 -0.21133293523E+03  0.21133293523E+03  0.00000000000E+00 0.  1.
         21    1    1    2  503  502 -0.71080633660E+02  0.23910541377E+02 -0.93022878788E+02  0.11948818539E+03  0.00000000000E+00 0.  1.
         21    1    1    2  504  501  0.34019787538E+02  0.15586991045E+02 -0.82301728842E+02  0.90409484040E+02  0.00000000000E+00 0.  1.
         21    1    1    2  505  503 -0.49692425359E+02  0.11599783652E+02  0.45755290252E+02  0.68537863293E+02  0.00000000000E+00 0. -1.
          1    1    1    2  501    0  0.86753271481E+02 -0.51097316075E+02  0.33838437098E+03  0.35304539134E+03  0.00000000000E+00 0.  1.
<scales pt_clust_3="57.79477" pt_clust_4="37.42059" pt_clust_5="48.37678" pt_clust_6="14000.00000"></scales>
<clustering>
<clus scale="   37.421">  2  4  1 -1</clus>
<clus scale="   48.377">  1  5  2 -1</clus>
<clus scale="   57.795">  2  3  1 -1</clus>
<clus scale="   37.421">  2  3  1 -1</clus>
</clustering>
</event>
<event>
 6    0  0.1631680E+002  0.7931613E+02  0.7546771E-02  0.1331003E+00
          2   -1    0    0  504    0 -0.00000000000E+00  0.00000000000E+00  0.21857064232E+04  0.21857064232E+04  0.00000000000E+00 0.  1.
         21   -1    0    0  505  502  0.00000000000E+00 -0.00000000000E+00 -0.22075875411E+03  0.22075875411E+03  0.00000000000E+00 0.  1.
         21    1    1    2  503  502  0.64000779163E+02  0.27937621579E+02 -0.17744124714E+03  0.19068824457E+03  0.00000000000E+00 0.  1.
         21    1    1    2  504  503  0.35684235663E+02 -0.11815521285E-01  0.97980067664E+02  0.10427587676E+03  0.00000000000E+00 0.  1.
         21    1    1    2  505  501 -0.13917293657E+03 -0.25720912206E+02  0.11684206164E+03  0.18352857806E+03  0.00000000000E+00 0.  1.
          2    1    1    2  501    0  0.39487921743E+02 -0.22048938520E+01  0.19275667869E+04  0.19279724779E+04  0.00000000000E+00 0.  1.
<scales pt_clust_3="69.93664" pt_clust_4="35.68424" pt_clust_5="14000.00000" pt_clust_6="79.31613"></scales>
<clustering>
<clus scale="   35.684">  1  4  2 -1</clus>
<clus scale="   69.937">  2  3  1 -1</clus>
<clus scale="   79.316">  1  6  2 -1</clus>
<clus scale="   69.937">  2  3  1 -1</clus>
</clustering>
</event>
<event>
 6    0  0.1631680E+002  0.9461156E+02  0.7546771E-02  0.1292053E+00
         21   -1    0    0  501  502  0.00000000000E+00  0.00000000000E+00  0.13183727917E+04  0.13183727917E+04  0.00000000000E+00 0. -1.
          4   -1    0    0  504    0 -0.00000000000E+00 -0.00000000000E+00 -0.24961393820E+03  0.24961393820E+03  0.00000000000E+00 0.  1.
         21    1    1    2  503  505 -0.11423441411E+02 -0.67725916196E+02  0.13740332344E+03  0.15361304642E+03  0.00000000000E+00 0. -1.
         21    1    1    2  504  503 -0.40004058752E+02 -0.12450354080E+02 -0.35572299286E+02  0.54961118164E+02  0.00000000000E+00 0.  1.
         21    1    1    2  505  502  0.18411849377E+02 -0.30435226800E+02  0.11458952055E+04  0.11464471733E+04  0.00000000000E+00 0. -1.
          4    1    1    2  501    0  0.33015650786E+02  0.11061149708E+03 -0.17896737612E+03  0.21296539202E+03  0.00000000000E+00 0.  1.
<scales pt_clust_3="14000.00000" pt_clust_4="41.46180" pt_clust_5="35.57104" pt_clust_6="94.61156"></scales>
<clustering>
<clus scale="   35.571">  1  5  2 -1</clus>
<clus scale="   41.462">  2  4  1 -1</clus>
<clus scale="   94.612">  2  6  1 -1</clus>
<clus scale="   35.571">  1  3  2 -1</clus>
</clustering>
</event>
<event>
 6    0  0.1631680E+002  0.7542035E+02  0.7546771E-02  0.1342574E+00
          2   -1    0    0  505    0 -0.00000000000E+00  0.00000000000E+00  0.90598577600E+03  0.90598577600E+03  0.00000000000E+00 0.  1.
         21   -1    0    0  503  502  0.00000000000E+00 -0.00000000000E+00 -0.12221315217E+03  0.12221315217E+03  0.00000000000E+00 0. -1.
         21    1    1    2  503  501  0.79878313489E+02  0.28176012558E+02 -0.71625064288E+02  0.11092602257E+03  0.00000000000E+00 0. -1.
         21    1    1    2  504  502 -0.31830176941E+02  0.24824992913E+02  0.12917019193E+02  0.42382659450E+02  0.00000000000E+00 0. -1.
         21    1    1    2  505  504  0.55151078625E+02  0.31781421615E+02  0.87592864851E+02  0.10827839215E+03  0.00000000000E+00 0. -1.
          2    1    1    2  501    0 -0.10319921517E+03 -0.84782427086E+02  0.75488780407E+03  0.76661185400E+03  0.00000000000E+00 0.  1.
<scales pt_clust_3="75.42035" pt_clust_4="40.36633" pt_clust_5="62.29590" pt_clust_6="14000.00000"></scales>
<clustering>
<clus scale="   40.366">  2  4  1 -1</clus>
<clus scale="   62.296">  1  5  2 -1</clus>
<clus scale="   75.420">  2  3  1 -1</clus>
<clus scale="   40.366">  2  3  1 -1</clus>
</clustering>
</event>
<event>
 6    0  0.1631680E+002  0.1008557E+03  0.7546771E-02  0.1278507E+00
         21   -1    0    0  501  502  0.00000000000E+00  0.00000000000E+00  0.28637823489E+02  0.28637823489E+02  0.00000000000E+00 0. -1.
          2   -1    0    0  504    0 -0.00000000000E+00 -0.00000000000E+00 -0.40684547862E+04  0.40684547862E+04  0.00000000000E+00 0. -1.
         21    1    1    2  503  502  0.12314169320E+02  0.38664827553E+02  0.23713156969E+01  0.40647641923E+02  0.00000000000E+00 0. -1.
         21    1    1    2  504  505 -0.36908942477E+02 -0.16020701412E+02 -0.12095499264E+04  0.12102189709E+04  0.00000000000E+00 0.  1.
         21    1    1    2  505  503  0.72700408178E+02 -0.95400522845E+02 -0.59929477063E+03  0.61117986813E+03  0.00000000000E+00 0. -1.
          2    1    1    2  501    0 -0.48105635022E+02  0.72756396704E+02 -0.22333435813E+04  0.22350461288E+04  0.00000000000E+00 0. -1.
<scales pt_clust_3="40.40173" pt_clust_4="40.23597" pt_clust_5="14000.00000" pt_clust_6="100.85574"></scales>
<clustering>
<clus scale="   40.236">  2  4  1 -1</clus>
<clus scale="   40.402">  1  3  2 -1</clus>
<clus scale="  100.856">  2  6  1 -1</clus>
<clus scale="   40.402">  1  3  2 -1</clus>
</clustering>
</event>
<event>
 6    0  0.1631680E+002  0.8150852E+02  0.7546771E-02  0.1324824E+00
         21   -1    0    0  503  502  0.00000000000E+00  0.00000000000E+00  0.20518671042E+03  0.20518671042E+03  0.00000000000E+00 0. -1.
          2   -1    0    0  505    0 -0.00000000000E+00 -0.00000000000E+00 -0.52628363378E+03  0.52628363378E+03  0.00000000000E+00 0. -1.
         21    1    1    2  503  501  0.88256222379E+02  0.20477081281E+02  0.12707359781E+02  0.91487423392E+02  0.00000000000E+00 0. -1.
         21    1    1    2  504  502 -0.47247031242E+02 -0.70315536830E+02  0.11599007436E+03  0.14363235719E+03  0.00000000000E+00 0. -1.
         21    1    1    2  505  504 -0.20257773531E+02 -0.52180696914E+02 -0.29339090884E+02  0.63197980765E+02  0.00000000000E+00 0. -1.
          2    1    1    2  501    0 -0.20751417606E+02  0.10201915246E+03 -0.42045526662E+03  0.43315258285E+03  0.00000000000E+00 0. -1.
<scales pt_clust_3="81.50852" pt_clust_4="14000.00000" pt_clust_5="55.97502" pt_clust_6="67.79760"></scales>
<clustering>
<clus scale="   55.975">  2  5  1 -1</clus>
<clus scale="   67.798">  2  6  1 -1</clus>
<clus scale="   81.509">  2  3  1 -1</clus>
<clus scale="   81.509">  1  3  2 -1</clus>
</clustering>
</event>
<event>
 6    0  0.1631680E+002  0.9365884E+02  0.7546771E-02  0.1294226E+00
          2   -1    0    0  503    0 -0.00000000000E+00  0.00000000000E+00  0.16558140209E+04  0.16558140209E+04  0.00000000000E+00 0.  1.
         21   -1    0    0  505  502  0.00000000000E+00 -0.00000000000E+00 -0.32012267201E+02  0.32012267201E+02  0.00000000000E+00 0. -1.
         21    1    1    2  503  502  0.17679906775E+02  0.25010361498E+02  0.16571946410E+02  0.34824225672E+02  0.00000000000E+00 0. -1.
         21    1    1    2  504  501 -0.79178579783E+02 -0.44237876357E+02  0.10491550689E+03  0.13868489747E+03  0.00000000000E+00 0. -1.
         21    1    1    2  505  504 -0.29473566819E+02  0.53504328122E+02  0.21999870712E+03  0.22832178039E+03  0.00000000000E+00 0.  1.
          2    1    1    2  501    0  0.90972239827E+02 -0.34276813263E+02  0.12823155932E+04  0.12859953845E+04  0.00000000000E+00 0.  1.
<scales pt_clust_3="30.62837" pt_clust_4="14000.00000" pt_clust_5="63.71475" pt_clust_6="93.65884"></scales>
<clustering>
<clus scale="   30.628">  2  3  1 -1</clus>
<clus scale="   63.715">  2  5  1 -1</clus>
<clus scale="   93.659">  1  6  2 -1</clus>
<clus scale="   30.628">  2  3  1 -1</clus>
</clustering>
</event>
<event>
 6    0  0.1631680E+002  0.1228233E+03  0.7546771E-02  0.1238511E+00
         21   -1    0    0  503  502  0.00000000000E+00  0.00000000000E+00  0.10532489839E+03  0.10532489839E+03  0.00000000000E+00 0.  1.
          2   -1    0    0  504    0 -0.00000000000E+00 -0.00000000000E+00 -0.17449209254E+04  0.17449209254E+04  0.00000000000E+00 0. -1.
         21    1    1    2  503  505  0.72054326515E+02  0.12765054891E+03 -0.70930459085E+02  0.16284231217E+03  0.00000000000E+00 0.  1.
         21    1    1    2  504  502 -0.81417118967E+01 -0.34441852697E+02  0.51615139501E+02  0.62583155206E+02  0.00000000000E+00 0.  1.
         21    1    1    2  505  501 -0.24831239912E+02 -0.27875297989E+02 -0.29466131115E+03  0.29701668472E+03  0.00000000000E+00 0. -1.
          2    1    1    2  501    0 -0.39081374706E+02 -0.65333398228E+02 -0.13256193962E+04  0.13278036717E+04  0.00000000000E+00 0. -1.
<scales pt_clust_3="114.57153" pt_clust_4="35.39108" pt_clust_5="30.99331" pt_clust_6="30.99331"></scales>
<clustering>
<clus scale="   30.993">  5  6 -1 -1</clus>
<clus scale="   35.391">  1  4  2 -1</clus>
<clus scale="  114.572">  1  3  2 -1</clus>
<clus scale="   35.391">  1  3  2 -1</clus>
</clustering>
</event>
<event>
 6    0  0.1631680E+002  0.9464114E+02  0.7546771E-02  0.1291986E+00
          2   -1    0    0  503    0 -0.00000000000E+00  0.00000000000E+00  0.10860843381E+04  0.10860843381E+04  0.00000000000E+00 0.  1.
         21   -1    0    0  505  502  0.00000000000E+00 -0.00000000000E+00 -0.63539375992E+02  0.63539375992E+02  0.00000000000E+00 0.  1.
         21    1    1    2  503  504 -0.18584962240E+02 -0.51063353710E+02  0.17519700803E+03  0.18343080040E+03  0.00000000000E+00 0. -1.
         21    1    1    2  504  502  0.28253080215E+01 -0.32898861512E+02  0.32217067914E+02  0.46133035010E+02  0.00000000000E+00 0.  1.
         21    1    1    2  505  501 -0.94097979306E+02  0.17551394019E+02  0.85238323065E+00  0.95724645199E+02  0.00000000000E+00 0.  1.
          2    1    1    2  501    0  0.10985763352E+03  0.66410821204E+02  0.81427850290E+03  0.82433523344E+03  0.00000000000E+00 0.  1.
<scales pt_clust_3="56.52843" pt_clust_4="33.01996" pt_clust_5="94.64114" pt_clust_6="14000.00000"></scales>
<clustering>
<clus scale="   33.020">  2  4  1 -1</clus>
<clus scale="   56.528">  1  3  2 -1</clus>
<clus scale="   94.641">  2  5  1 -1</clus>
<clus scale="   33.020">  2  3  1 -1</clus>
</clustering>
</event>
<event>
 6    0  0.1631680E+002  0.5888383E+02  0.7546771E-02  0.1402576E+00
          1   -1    0    0  504    0 -0.00000000000E+00  0.00000000000E+00  0.14969929476E+04  0.14969929476E+04  0.00000000000E+00 0. -1.
         21   -1    0    0  503  502  0.00000000000E+00 -0.00000000000E+00 -0.58379126638E+03  0.58379126638E+03  0.00000000000E+00 0. -1.
         21    1    1    2  503  501 -0.85666668997E+02  0.28370912114E+02 -0.80637578636E+02  0.12102109700E+03  0.00000000000E+00 0.  1.
         21    1    1    2  504  505 -0.12462187475E+02  0.51653078965E+02  0.11548664834E+03  0.12712400492E+03  0.00000000000E+00 0. -1.
         21    1    1    2  505  502  0.56489756265E+02 -0.22403568659E+01 -0.47402614385E+03  0.47738548031E+03  0.00000000000E+00 0. -1.
          1    1    1    2  501    0  0.41639100206E+02 -0.77783634213E+02  0.13523787554E+04  0.13552536317E+04  0.00000000000E+00 0. -1.
<scales pt_clust_3="14000.00000" pt_clust_4="53.13517" pt_clust_5="58.88383" pt_clust_6="39.86591"></scales>
<clustering>
<clus scale="   53.135">  1  4  2 -1</clus>
<clus scale="   39.866">  1  6  2 -1</clus>
<clus scale="   58.884">  2  5  1 -1</clus>
<clus scale="   58.884">  2  3  1 -1</clus>
</clustering>
</event>
<event>
 6    0  0.1631680E+002  0.8526708E+02  0.7546771E-02  0.1314736E+00
          1   -1    0    0  504    0 -0.00000000000E+00  0.00000000000E+00  0.37123872673E+04  0.37123872673E+04  0.00000000000E+00 0. -1.
         21   -1    0    0  503  502  0.00000000000E+00 -0.00000000000E+00 -0.10263527095E+04  0.10263527095E+04  0.00000000000E+00 0. -1.
         21    1    1    2  503  501 -0.28656424227E+02  0.16499385632E+02 -0.92862730001E+03  0.92921584290E+03  0.00000000000E+00 0. -1.
         21    1    1    2  504  505 -0.43910079097E+02 -0.17961810127E+02  0.29028342021E+03  0.29413463876E+03  0.00000000000E+00 0. -1.
         21    1    1    2  505  502 -0.85647730757E+01 -0.92874221142E+02 -0.71320293136E+02  0.11741192658E+03  0.00000000000E+00 0. -1.
          1    1    1    2  501    0  0.81131276400E+02  0.94336645637E+02  0.33956987307E+04  0.33979775686E+04  0.00000000000E+00 0. -1.
<scales pt_clust_3="33.06691" pt_clust_4="47.84529" pt_clust_5="85.26708" pt_clust_6="14000.00000"></scales>
<clustering>
<clus scale="   33.067">  2  3  1 -1</clus>
<clus scale="   47.845">  1  4  2 -1</clus>
<clus scale="   85.267">  2  5  1 -1</clus>
<clus scale="   33.067">  2  3  1 -1</clus>
</clustering>
</event>
<event>
 6    0  0.1631680E+002  0.7516993E+02  0.7546771E-02  0.1343346E+00
         -1   -1    0    0    0  501 -0.00000000000E+00  0.00000000000E+00  0.84570061218E+03  0.84570061218E+03  0.00000000000E+00 0. -1.
         21   -1    0    0  504  502  0.00000000000E+00 -0.00000000000E+00 -0.54278949190E+02  0.54278949190E+02  0.00000000000E+00 0.  1.
         21    1    1    2  503  502  0.69729985306E+01 -0.45047981504E+02  0.62997130331E+02  0.77759769650E+02  0.00000000000E+00 0.  1.
         21    1    1    2  504  505  0.41699525228E+02  0.47113596370E+02 -0.12781890166E+02  0.64202165722E+02  0.00000000000E+00 0.  1.
         21    1    1    2  505  501  0.51840991586E+02  0.13647043112E+02  0.18615715895E+03  0.19372201223E+03  0.00000000000E+00 0.  1.
         -1    1    1    2    0  503 -0.10051351535E+03 -0.15712657978E+02  0.55504926388E+03  0.56429561377E+03  0.00000000000E+00 0. -1.
<scales pt_clust_3="45.58446" pt_clust_4="48.49463" pt_clust_5="75.16993" pt_clust_6="14000.00000"></scales>
<clustering>
<clus scale="   45.584">  2  3  1 -1</clus>
<clus scale="   48.495">  2  4  1 -1</clus>
<clus scale="   75.170">  1  5  2 -1</clus>
<clus scale="   45.584">  2  3  1 -1</clus>
</clustering>
</event>
<event>
 6    0  0.1631680E+002  0.1366446E+03  0.7546771E-02  0.1217917E+00
         -2   -1    0    0    0  501 -0.00000000000E+00  0.00000000000E+00  0.21836919783E+03  0.21836919783E+03  0.00000000000E+00 0.  1.
         21   -1    0    0  504  502  0.00000000000E+00 -0.00000000000E+00 -0.34849779074E+03  0.34849779074E+03  0.00000000000E+00 0. -1.
         21    1    1    2  503  501 -0.43941555600E+02 -0.10341534683E+02  0.11862213867E+03  0.12692131196E+03  0.00000000000E+00 0.  1.
         21    1    1    2  504  503  0.67926145006E+02 -0.83769666116E+01 -0.42903955968E+02  0.80776755213E+02  0.00000000000E+00 0. -1.
         21    1    1    2  505  502  0.25042634137E+02  0.13866917180E+03 -0.17730367090E+03  0.22647928039E+03  0.00000000000E+00 0. -1.
         -2    1    1    2    0  505 -0.49027223543E+02 -0.11995067051E+03 -0.28543104707E+02  0.13268964101E+03  0.00000000000E+00 0.  1.
<scales pt_clust_3="45.14208" pt_clust_4="60.13264" pt_clust_5="14000.00000" pt_clust_6="136.64457"></scales>
<clustering>
<clus scale="   45.142">  1  3  2 -1</clus>
<clus scale="   60.133">  1  4  2 -1</clus>
<clus scale="  136.645">  1  6  2 -1</clus>
<clus scale="  136.645">  2  3  1 -1</clus>
</clustering>
</event>
<event>
 6    0  0.1631680E+002  0.1014241E+03  0.7546771E-02  0.1277329E+00
          1   -1    0    0  503    0 -0.00000000000E+00  0.00000000000E+00  0.88781455279E+03  0.88781455279E+03  0.00000000000E+00 0.  1.
         21   -1    0    0  501  502  0.00000000000E+00 -0.00000000000E+00 -0.17004013533E+04  0.17004013533E+04  0.00000000000E+00 0.  1.
         21    1    1    2  503  504  0.12377937785E+01  0.33529624339E+02  0.54137304252E+02  0.63691565795E+02  0.00000000000E+00 0.  1.
         21    1    1    2  504  505  0.70972647310E+02  0.10951990225E+03 -0.14140587338E+02  0.13126950089E+03  0.00000000000E+00 0. -1.
         21    1    1    2  505  502 -0.13799924772E+02 -0.32203747727E+02 -0.16176335177E+04  0.16180128914E+04  0.00000000000E+00 0.  1.
          1    1    1    2  501    0 -0.58410516316E+02 -0.11084577886E+03  0.76505000023E+03  0.77524194801E+03  0.00000000000E+00 0.  1.
<scales pt_clust_3="33.55246" pt_clust_4="101.42411" pt_clust_5="35.02881" pt_clust_6="14000.00000"></scales>
<clustering>
<clus scale="   33.552">  1  3  2 -1</clus>
<clus scale="   35.029">  2  5  1 -1</clus>
<clus scale="  101.424">  2  4  1 -1</clus>
<clus scale="   35.029">  2  3  1 -1</clus>
</clustering>
</event>
<event>
 6    0  0.1631680E+002  0.1514812E+03  0.7546771E-02  0.1198665E+00
          2   -1    0    0  503    0 -0.00000000000E+00  0.00000000000E+00  0.11042423632E+04  0.11042423632E+04  0.00000000000E+00 0.  1.
         21   -1    0    0  501  502  0.00000000000E+00 -0.00000000000E+00 -0.12386115118E+03  0.12386115118E+03  0.00000000000E+00 0.  1.
         21    1    1    2  503  505  0.17699056676E+02 -0.24241060628E+02  0.76708008676E+03  0.76766707962E+03  0.00000000000E+00 0.  1.
         21    1    1    2  504  502  0.33095917126E+02  0.22858554823E+00 -0.45538477339E+02  0.56295158763E+02  0.00000000000E+00 0.  1.
         21    1    1    2  505  504  0.12018936232E+03  0.52903792858E+02  0.74166230018E+02  0.15081420288E+03  0.00000000000E+00 0.  1.
          2    1    1    2  501    0 -0.17098433612E+03 -0.28891317778E+02  0.18467337261E+03  0.25332707316E+03  0.00000000000E+00 0.  1.
<scales pt_clust_3="30.01476" pt_clust_4="33.37887" pt_clust_5="151.48120" pt_clust_6="14000.00000"></scales>
<clustering>
<clus scale="   30.015">  1  3  2 -1</clus>
<clus scale="   33.379">  2  4  1 -1</clus>
<clus scale="  151.481">  2  5  1 -1</clus>
<clus scale="   33.379">  2  3  1 -1</clus>
</clustering>
</event>
<event>
 6    0  0.1631680E+002  0.7509807E+02  0.7546771E-02  0.1343568E+00
         21   -1    0    0  505  502  0.00000000000E+00  0.00000000000E+00  0.30927500294E+03  0.30927500294E+03  0.00000000000E+00 0.  1.
          2   -1    0    0  503    0 -0.00000000000E+00 -0.00000000000E+00 -0.22024550770E+03  0.22024550770E+03  0.00000000000E+00 0. -1.
         21    1    1    2  503  504 -0.59985795857E+02 -0.10682063111E+02 -0.28692624278E+02  0.67347374596E+02  0.00000000000E+00 0.  1.
         21    1    1    2  504  502 -0.18849386942E+02 -0.67682609244E+02  0.58725087320E+02  0.91568940493E+02  0.00000000000E+00 0.  1.
         21    1    1    2  505  501 -0.51108053372E+02  0.53405902626E+02  0.17794038591E+03  0.19268369026E+03  0.00000000000E+00 0.  1.
          2    1    1    2  501    0  0.12994323617E+03  0.24958769730E+02 -0.11894335371E+03  0.17792050529E+03  0.00000000000E+00 0. -1.
<scales pt_clust_3="60.92949" pt_clust_4="72.96225" pt_clust_5="14000.00000" pt_clust_6="75.09807"></scales>
<clustering>
<clus scale="   60.929">  2  3  1 -1</clus>
<clus scale="   72.962">  1  4  2 -1</clus>
<clus scale="   75.098">  2  6  1 -1</clus>
<clus scale="   72.962">  1  3  2 -1</clus>
</clustering>
</event>
<event>
 6    0  0.1631680E+002  0.7841658E+02  0.7546771E-02  0.1333606E+00
         21   -1    0    0  505  502  0.00000000000E+00  0.00000000000E+00  0.33532827250E+03  0.33532827250E+03  0.00000000000E+00 0.  1.
         -2   -1    0    0    0  501 -0.00000000000E+00 -0.00000000000E+00 -0.10244758932E+03  0.10244758932E+03  0.00000000000E+00 0. -1.
         21    1    1    2  503  504 -0.17291649294E+02 -0.47460059918E+02  0.11682203146E+02  0.51845272620E+02  0.00000000000E+00 0.  1.
         21    1    1    2  504  502  0.30184160634E+02  0.11701073240E+03  0.14823687052E+03  0.19125052897E+03  0.00000000000E+00 0.  1.
         21    1    1    2  505  501 -0.32868465911E+02 -0.28700349746E+02  0.12094308643E+03  0.12857401091E+03  0.00000000000E+00 0.  1.
         -2    1    1    2    0  503  0.19975954571E+02 -0.40850322739E+02 -0.47981476914E+02  0.66106049313E+02  0.00000000000E+00 0. -1.
<scales pt_clust_3="14000.00000" pt_clust_4="78.41658" pt_clust_5="43.63538" pt_clust_6="45.99690"></scales>
<clustering>
<clus scale="   43.635">  1  5  2 -1</clus>
<clus scale="   45.997">  2  6  1 -1</clus>
<clus scale="   78.417">  1  4  2 -1</clus>
<clus scale="   43.635">  1  3  2 -1</clus>
</clustering>
</event>
<event>
 6    0  0.1631680E+002  0.9651645E+02  0.7546771E-02  0.1287797E+00
         21   -1    0    0  505  502  0.00000000000E+00  0.00000000000E+00  0.79451855898E+03  0.79451855898E+03  0.00000000000E+00 0. -1.
          2   -1    0    0  504    0 -0.00000000000E+00 -0.00000000000E+00 -0.29881918186E+04  0.29881918186E+04  0.00000000000E+00 0.  1.
         21    1    1    2  503  502 -0.13350921521E+02  0.55394608800E+02 -0.98424563941E+02  0.11372864449E+03  0.00000000000E+00 0. -1.
         21    1    1    2  504  503  0.18396624655E+02 -0.28014515090E+02 -0.11356872208E+04  0.11361816371E+04  0.00000000000E+00 0.  1.
         21    1    1    2  505  501  0.90645582827E+02 -0.33171255938E+02  0.78233524733E+03  0.78826733608E+03  0.00000000000E+00 0. -1.
          2    1    1    2  501    0 -0.95691285961E+02  0.57911622284E+01 -0.17418967221E+04  0.17445327599E+04  0.00000000000E+00 0.  1.
<scales pt_clust_3="55.17804" pt_clust_4="33.51490" pt_clust_5="96.51645" pt_clust_6="14000.00000"></scales>
<clustering>
<clus scale="   33.515">  2  4  1 -1</clus>
<clus scale="   55.178">  2  3  1 -1</clus>
<clus scale="   96.516">  1  5  2 -1</clus>
<clus scale="   96.516">  1  3  2 -1</clus>
</clustering>
</event>
<event>
 6    0  0.1631680E+002  0.1135974E+03  0.7546771E-02  0.1254049E+00
          1   -1    0    0  505    0 -0.00000000000E+00  0.00000000000E+00  0.12237264482E+04  0.12237264482E+04  0.00000000000E+00 0.  1.
         21   -1    0    0  503  502  0.00000000000E+00 -0.00000000000E+00 -0.97263247371E+03  0.97263247371E+03  0.00000000000E+00 0. -1.
         21    1    1    2  503  504 -0.15169962983E+02  0.91440661559E+02 -0.41181338335E+03  0.42211584319E+03  0.00000000000E+00 0. -1.
         21    1    1    2  504  501  0.14833830095E+02 -0.16187151802E+03 -0.53844802500E+03  0.56244884789E+03  0.00000000000E+00 0. -1.
         21    1    1    2  505  502 -0.39868000488E+02  0.96475186277E+01  0.10076812963E+03  0.10879681993E+03  0.00000000000E+00 0. -1.
          1    1    1    2  501    0  0.40204133376E+02  0.60783337838E+02  0.11005872532E+04  0.11029974109E+04  0.00000000000E+00 0.  1.
<scales pt_clust_3="14000.00000" pt_clust_4="113.59739" pt_clust_5="41.01868" pt_clust_6="70.28936"></scales>
<clustering>
<clus scale="   41.019">  1  5  2 -1</clus>
<clus scale="   70.289">  1  6  2 -1</clus>
<clus scale="  113.597">  1  4  2 -1</clus>
<clus scale="  113.597">  2  3  1 -1</clus>
</clustering>
</event>
<event>
 6    0  0.1631680E+002  0.2382859E+03  0.7546771E-02  0.1120940E+00
          2   -1    0    0  503    0 -0.00000000000E+00  0.00000000000E+00  0.94483493607E+03  0.94483493607E+03  0.00000000000E+00 0. -1.
         21   -1    0    0  504  502  0.00000000000E+00 -0.00000000000E+00 -0.17075230864E+03  0.17075230864E+03  0.00000000000E+00 0. -1.
         21    1    1    2  503  502  0.36531096677E+02 -0.81243939665E+00  0.24758279262E+03  0.25026470043E+03  0.00000000000E+00 0. -1.
         21    1    1    2  504  505  0.91144522886E+02 -0.94110621703E+02 -0.11336027928E+02  0.13150147793E+03  0.00000000000E+00 0. -1.
         21    1    1    2  505  501  0.10061486112E+03 -0.10060992434E+02 -0.36038473162E+02  0.10734684623E+03  0.00000000000E+00 0. -1.
          2    1    1    2  501    0 -0.22829048068E+03  0.10498405353E+03  0.57387433590E+03  0.62647422012E+03  0.00000000000E+00 0. -1.
<scales pt_clust_3="36.54013" pt_clust_4="74.48950" pt_clust_5="74.48950" pt_clust_6="222.70913"></scales>
<clustering>
<clus scale="   36.540">  1  3  2 -1</clus>
<clus scale="   74.490">  4  5 -1 -1</clus>
<clus scale="  222.709">  1  6  2 -1</clus>
<clus scale="  238.286">  2  3  1 -1</clus>
</clustering>
</event>
<event>
 6    0  0.1631680E+002  0.9492353E+02  0.7546771E-02  0.1291348E+00
         21   -1    0    0  505  502  0.00000000000E+00  0.00000000000E+00  0.72411448987E+02  0.72411448987E+02  0.00000000000E+00 0. -1.
          2   -1    0    0  503    0 -0.00000000000E+00 -0.00000000000E+00 -0.20903475413E+04  0.20903475413E+04  0.00000000000E+00 0. -1.
         21    1    1    2  503  504 -0.79109261161E+02  0.59369382250E+02 -0.11591780628E+04  0.11633902097E+04  0.00000000000E+00 0. -1.
         21    1    1    2  504  502 -0.24798504254E+02  0.31875230433E+02  0.26938083345E+02  0.48545406196E+02  0.00000000000E+00 0. -1.
         21    1    1    2  505  501  0.11603652162E+03 -0.46897793201E+01 -0.81461596512E+02  0.14185365729E+03  0.00000000000E+00 0. -1.
          2    1    1    2  501    0 -0.12128756206E+02 -0.86554833363E+02 -0.80423451636E+03  0.80896971712E+03  0.00000000000E+00 0. -1.
<scales pt_clust_3="14000.00000" pt_clust_4="40.38559" pt_clust_5="94.92353" pt_clust_6="85.50271"></scales>
<clustering>
<clus scale="   40.386">  1  4  2 -1</clus>
<clus scale="   85.503">  2  6  1 -1</clus>
<clus scale="   94.924">  1  5  2 -1</clus>
<clus scale="   40.386">  1  3  2 -1</clus>
</clustering>
</event>
<event>
 6    0  0.1631680E+002  0.1095667E+03  0.7546771E-02  0.1261374E+00
          1   -1    0    0  504    0 -0.00000000000E+00  0.00000000000E+00  0.12349463320E+04  0.12349463320E+04  0.00000000000E+00 0. -1.
         21   -1    0    0  503  502  0.00000000000E+00 -0.00000000000E+00 -0.73522006576E+02  0.73522006576E+02  0.00000000000E+00 0. -1.
         21    1    1    2  503  501  0.58330414901E+01  0.14458050545E+03  0.46723216531E+02  0.15205461483E+03  0.00000000000E+00 0. -1.
         21    1    1    2  504  505 -0.37538685142E+00 -0.36458446814E+02  0.74159839356E+03  0.74249413237E+03  0.00000000000E+00 0. -1.
         21    1    1    2  505  502 -0.42666605577E+01 -0.31325552903E+02 -0.13768316996E+01  0.31644751896E+02  0.00000000000E+00 0. -1.
          1    1    1    2  501    0 -0.11909940810E+01 -0.76796505732E+02  0.37447954703E+03  0.38227483949E+03  0.00000000000E+00 0. -1.
<scales pt_clust_3="109.56672" pt_clust_4="36.70681" pt_clust_5="31.61479" pt_clust_6="14000.00000"></scales>
<clustering>
<clus scale="   31.615">  2  5  1 -1</clus>
<clus scale="   36.707">  1  4  2 -1</clus>
<clus scale="  109.567">  2  3  1 -1</clus>
<clus scale="   31.615">  2  3  1 -1</clus>
</clustering>
</event>
<event>
 6    0  0.1631680E+002  0.8612416E+02  0.7546771E-02  0.1312519E+00
         21   -1    0    0  504  502  0.00000000000E+00  0.00000000000E+00  0.49464432840E+03  0.49464432840E+03  0.00000000000E+00 0. -1.
          2   -1    0    0  503    0 -0.00000000000E+00 -0.00000000000E+00 -0.95397543768E+02  0.95397543768E+02  0.00000000000E+00 0.  1.
         21    1    1    2  503  505  0.45164431097E+02 -0.15941677182E+02 -0.34381729143E+02  0.58958173366E+02  0.00000000000E+00 0.  1.
         21    1    1    2  504  501 -0.42161742863E+02 -0.20491741484E+02  0.26257330419E+03  0.26672507213E+03  0.00000000000E+00 0. -1.
         21    1    1    2  505  502  0.28373879734E+02  0.10549706260E+03  0.15012532306E+03  0.18566722892E+03  0.00000000000E+00 0. -1.
          2    1    1    2  501    0 -0.31376567968E+02 -0.69063643934E+02  0.20929886521E+02  0.78691397755E+02  0.00000000000E+00 0.  1.
<scales pt_clust_3="46.16997" pt_clust_4="46.87776" pt_clust_5="86.12416" pt_clust_6="14000.00000"></scales>
<clustering>
<clus scale="   46.878">  1  4  2 -1</clus>
<clus scale="   46.170">  2  3  1 -1</clus>
<clus scale="   86.124">  1  5  2 -1</clus>
<clus scale="   46.878">  1  3  2 -1</clus>
</clustering>
</event>
<event>
 6    0  0.1631680E+002  0.1375490E+03  0.7546771E-02  0.1216666E+00
         21   -1    0    0  504  502  0.00000000000E+00  0.00000000000E+00  0.84764024037E+03  0.84764024037E+03  0.00000000000E+00 0.  1.
          1   -1    0    0  503    0 -0.00000000000E+00 -0.00000000000E+00 -0.82811621051E+03  0.82811621051E+03  0.00000000000E+00 0. -1.
         21    1    1    2  503  502  0.24117565244E+02  0.21045394034E+02  0.11553052142E+03  0.11988272162E+03  0.00000000000E+00 0.  1.
         21    1    1    2  504  505  0.41847776336E+02  0.57920831008E+01  0.70127259099E+03  0.70254397121E+03  0.00000000000E+00 0.  1.
         21    1    1    2  505  501 -0.17581910321E+03  0.24407682716E+02 -0.39211648402E+03  0.43042238449E+03  0.00000000000E+00 0.  1.
          1    1    1    2  501    0  0.10985376163E+03 -0.51245159851E+02 -0.40516259854E+03  0.42290737355E+03  0.00000000000E+00 0. -1.
<scales pt_clust_3="32.00884" pt_clust_4="70.05463" pt_clust_5="137.54898" pt_clust_6="14000.00000"></scales>
<clustering>
<clus scale="   32.009">  1  3  2 -1</clus>
<clus scale="   70.055">  1  4  2 -1</clus>
<clus scale="  137.549">  1  5  2 -1</clus>
<clus scale="   32.009">  1  3  2 -1</clus>
</clustering>
</event>
<event>
 6    0  0.1631680E+002  0.2230718E+03  0.7546771E-02  0.1131613E+00
          1   -1    0    0  505    0 -0.00000000000E+00  0.00000000000E+00  0.35970625350E+03  0.35970625350E+03  0.00000000000E+00 0. -1.
         21   -1    0    0  504  502  0.00000000000E+00 -0.00000000000E+00 -0.12418229331E+04  0.12418229331E+04  0.00000000000E+00 0.  1.
         21    1    1    2  503  502  0.23917753464E+03 -0.65205204477E+02 -0.10825880821E+04  0.11106099978E+04  0.00000000000E+00 0.  1.
         21    1    1    2  504  501 -0.29803527699E+02 -0.58916867613E+01 -0.65214068418E+02  0.71943289859E+02  0.00000000000E+00 0. -1.
         21    1    1    2  505  503 -0.14724119239E+02 -0.52980693374E+02  0.15205117550E+03  0.16168894065E+03  0.00000000000E+00 0. -1.
          1    1    1    2  501    0 -0.19464988770E+03  0.12407758461E+03  0.11363429543E+03  0.25728695825E+03  0.00000000000E+00 0. -1.
<scales pt_clust_3="223.07178" pt_clust_4="30.38029" pt_clust_5="55.04487" pt_clust_6="14000.00000"></scales>
<clustering>
<clus scale="   30.380">  2  4  1 -1</clus>
<clus scale="   55.045">  1  5  2 -1</clus>
<clus scale="  223.072">  2  3  1 -1</clus>
<clus scale="   30.380">  2  3  1 -1</clus>
</clustering>
</event>
<event>
 6    0  0.1631680E+002  0.1364089E+03  0.7546771E-02  0.1218244E+00
          2   -1    0    0  504    0 -0.00000000000E+00  0.00000000000E+00  0.10185723054E+04  0.10185723054E+04  0.00000000000E+00 0.  1.
         21   -1    0    0  503  502  0.00000000000E+00 -0.00000000000E+00 -0.10741426843E+03  0.10741426843E+03  0.00000000000E+00 0.  1.
         21    1    1    2  503  501 -0.79124969279E+02 -0.11705410707E+03 -0.39283895394E+02  0.14664804527E+03  0.00000000000E+00 0.  1.
         21    1    1    2  504  505 -0.34735753700E+02  0.15694092217E+02  0.17177339022E+03  0.17595162603E+03  0.00000000000E+00 0. -1.
         21    1    1    2  505  502  0.54144348815E+02  0.49259209798E+02  0.12441348712E+03  0.14434956195E+03  0.00000000000E+00 0. -1.
          2    1    1    2  501    0  0.59716374164E+02  0.52100805055E+02  0.65425505502E+03  0.65903734055E+03  0.00000000000E+00 0.  1.
<scales pt_clust_3="136.40885" pt_clust_4="38.11663" pt_clust_5="71.01001" pt_clust_6="14000.00000"></scales>
<clustering>
<clus scale="   38.117">  1  4  2 -1</clus>
<clus scale="   71.010">  1  5  2 -1</clus>
<clus scale="  136.409">  2  3  1 -1</clus>
<clus scale="  136.409">  2  3  1 -1</clus>
</clustering>
</event>
<event>
 6    0  0.1631680E+002  0.8035189E+02  0.7546771E-02  0.1328056E+00
         21   -1    0    0  505  502  0.00000000000E+00  0.00000000000E+00  0.63865064828E+03  0.63865064828E+03  0.00000000000E+00 0. -1.
          4   -1    0    0  503    0 -0.00000000000E+00 -0.00000000000E+00 -0.19214134982E+03  0.19214134982E+03  0.00000000000E+00 0.  1.
         21    1    1    2  503  502  0.33040456885E+02 -0.21346838661E+02 -0.39876339784E+02  0.56013228675E+02  0.00000000000E+00 0.  1.
         21    1    1    2  504  501  0.84429100302E+02 -0.13948156353E+02  0.69880384949E+02  0.11048118502E+03  0.00000000000E+00 0.  1.
         21    1    1    2  505  504 -0.11417847948E+02  0.32188379080E+02  0.51702043041E+03  0.51814726136E+03  0.00000000000E+00 0. -1.
          4    1    1    2  501    0 -0.10605170924E+03  0.31066159339E+01 -0.10051517711E+03  0.14615032304E+03  0.00000000000E+00 0.  1.
<scales pt_clust_3="37.55890" pt_clust_4="80.35189" pt_clust_5="34.15346" pt_clust_6="14000.00000"></scales>
<clustering>
<clus scale="   34.153">  1  5  2 -1</clus>
<clus scale="   37.559">  2  3  1 -1</clus>
<clus scale="   80.352">  1  4  2 -1</clus>
<clus scale="   34.153">  1  3  2 -1</clus>
</clustering>
</event>
<event>
 6    0  0.1631680E+002  0.4093978E+03  0.7546771E-02  0.1040573E+00
         -1   -1    0    0    0  501 -0.00000000000E+00  0.00000000000E+00  0.12161406560E+04  0.12161406560E+04  0.00000000000E+00 0. -1.
         21   -1    0    0  505  502  0.00000000000E+00 -0.00000000000E+00 -0.20638233861E+03  0.20638233861E+03  0.00000000000E+00 0. -1.
         21    1    1    2  503  502 -0.14965300353E+03 -0.13448417532E+03  0.39173970075E+02  0.20497954729E+03  0.00000000000E+00 0. -1.
         21    1    1    2  504  503 -0.14202764233E+03 -0.15619150402E+03  0.23616388303E+03  0.31676650195E+03  0.00000000000E+00 0.  1.
         21    1    1    2  505  501  0.19530431863E+02  0.50256518405E+02 -0.24673742661E+02  0.59295438171E+02  0.00000000000E+00 0. -1.
         -1    1    1    2    0  504  0.27215021400E+03  0.24041916093E+03  0.75909420691E+03  0.84148150715E+03  0.00000000000E+00 0. -1.
<scales pt_clust_3="154.72573" pt_clust_4="154.72573" pt_clust_5="53.91804" pt_clust_6="375.19129"></scales>
<clustering>
<clus scale="   53.918">  2  5  1 -1</clus>
<clus scale="  154.726">  3  4 -1 -1</clus>
<clus scale="  375.191">  1  6  2 -1</clus>
<clus scale="   53.918">  2  3  1 -1</clus>
</clustering>
</event>
<event>
 6    0  0.1631680E+002  0.6813893E+02  0.7546771E-02  0.1366539E+00
         -2   -1    0    0    0  501 -0.00000000000E+00  0.00000000000E+00  0.25860380880E+03  0.25860380880E+03  0.00000000000E+00 0.  1.
         21   -1    0    0  504  502  0.00000000000E+00 -0.00000000000E+00 -0.12857068622E+03  0.12857068622E+03  0.00000000000E+00 0.  1.
         21    1    1    2  503  502  0.62655628961E+02  0.26287634232E+02 -0.63977617865E+02  0.93326861844E+02  0.00000000000E+00 0.  1.
         21    1    1    2  504  501 -0.83060480929E+02  0.37856913537E+02  0.18735905588E+02  0.93183815938E+02  0.00000000000E+00 0.  1.
         21    1    1    2  505  503 -0.12199071005E+02 -0.61397982653E+02  0.92833009717E+02  0.11196650079E+03  0.00000000000E+00 0.  1.
         -2    1    1    2    0  505  0.32603922972E+02 -0.27465651161E+01  0.82441825134E+02  0.88697316445E+02  0.00000000000E+00 0.  1.
<scales pt_clust_3="68.13893" pt_clust_4="14000.00000" pt_clust_5="63.42154" pt_clust_6="32.71940"></scales>
<clustering>
<clus scale="   32.719">  1  6  2 -1</clus>
<clus scale="   63.422">  1  5  2 -1</clus>
<clus scale="   68.139">  2  3  1 -1</clus>
<clus scale="   68.139">  2  3  1 -1</clus>
</clustering>
</event>
<event>
 6    0  0.1631680E+002  0.9474227E+02  0.7546771E-02  0.1291758E+00
         21   -1    0    0  505  502  0.00000000000E+00  0.00000000000E+00  0.29586483641E+03  0.29586483641E+03  0.00000000000E+00 0.  1.
          2   -1    0    0  504    0 -0.00000000000E+00 -0.00000000000E+00 -0.81333856673E+03  0.81333856673E+03  0.00000000000E+00 0. -1.
         21    1    1    2  503  501  0.22015896489E+02  0.79104391560E+02 -0.21823395274E+02  0.84961550383E+02  0.00000000000E+00 0.  1.
         21    1    1    2  504  502 -0.27226777267E+02  0.19325333148E+02 -0.13940542809E+03  0.14334796575E+03  0.00000000000E+00 0.  1.
         21    1    1    2  505  503  0.34832943132E+02  0.32086364370E+00  0.25684473354E+03  0.25919616901E+03  0.00000000000E+00 0.  1.
          2    1    1    2  501    0 -0.29622062354E+02 -0.98750588351E+02 -0.61308964050E+03  0.62169771800E+03  0.00000000000E+00 0. -1.
<scales pt_clust_3="14000.00000" pt_clust_4="33.38811" pt_clust_5="34.78711" pt_clust_6="94.74227"></scales>
<clustering>
<clus scale="   33.388">  2  4  1 -1</clus>
<clus scale="   34.787">  1  5  2 -1</clus>
<clus scale="   94.742">  2  6  1 -1</clus>
<clus scale="   34.787">  1  3  2 -1</clus>
</clustering>
</event>
<event>
 6    0  0.1631680E+002  0.9694252E+02  0.7546771E-02  0.1286860E+00
          2   -1    0    0  505    0 -0.00000000000E+00  0.00000000000E+00  0.57261151644E+03  0.57261151644E+03  0.00000000000E+00 0. -1.
         21   -1    0    0  504  502  0.00000000000E+00 -0.00000000000E+00 -0.99946027128E+02  0.99946027128E+02  0.00000000000E+00 0.  1.
         21    1    1    2  503  501  0.19182897515E+02  0.12717386143E+03  0.85806246510E+02  0.15460881776E+03  0.00000000000E+00 0. -1.
         21    1    1    2  504  503 -0.36221243207E+02 -0.81280468924E+02 -0.24956396956E+02  0.92419234129E+02  0.00000000000E+00 0.  1.
         21    1    1    2  505  502  0.18957732600E+02  0.25143610478E+02  0.75782987258E+02  0.82064961652E+02  0.00000000000E+00 0. -1.
          2    1    1    2  501    0 -0.19193869079E+01 -0.71037002987E+02  0.33603265250E+03  0.34346453002E+03  0.00000000000E+00 0. -1.
<scales pt_clust_3="14000.00000" pt_clust_4="96.94252" pt_clust_5="31.48963" pt_clust_6="54.87353"></scales>
<clustering>
<clus scale="   31.490">  1  5  2 -1</clus>
<clus scale="   54.874">  1  6  2 -1</clus>
<clus scale="   96.943">  2  4  1 -1</clus>
<clus scale="   96.943">  2  3  1 -1</clus>
</clustering>
</event>
<event>
 6    0  0.1631680E+002  0.1347108E+03  0.7546771E-02  0.1220629E+00
         21   -1    0    0  501  502  0.00000000000E+00  0.00000000000E+00  0.97454420563E+02  0.97454420563E+02  0.00000000000E+00 0.  1.
          1   -1    0    0  503    0 -0.00000000000E+00 -0.00000000000E+00 -0.71470878968E+03  0.71470878968E+03  0.00000000000E+00 0.  1.
         21    1    1    2  503  505 -0.36139174827E+02  0.87417870140E+00 -0.12775616805E+03  0.13277214550E+03  0.00000000000E+00 0.  1.
         21    1    1    2  504  502  0.21962790397E+02 -0.49880242080E+02  0.46370368531E+02  0.71558464137E+02  0.00000000000E+00 0.  1.
         21    1    1    2  505  504 -0.50238736687E+02 -0.10215260925E+03 -0.29551383140E+03  0.31668203421E+03  0.00000000000E+00 0.  1.
          1    1    1    2  501    0  0.64415121117E+02  0.15115867263E+03 -0.24035473819E+03  0.29115056639E+03  0.00000000000E+00 0.  1.
<scales pt_clust_3="36.14975" pt_clust_4="54.17493" pt_clust_5="14000.00000" pt_clust_6="134.71080"></scales>
<clustering>
<clus scale="   36.150">  2  3  1 -1</clus>
<clus scale="   54.175">  1  4  2 -1</clus>
<clus scale="  134.711">  1  6  2 -1</clus>
<clus scale="   54.175">  1  3  2 -1</clus>
</clustering>
</event>
<event>
 6    0  0.1631680E+002  0.1373143E+03  0.7546771E-02  0.1216989E+00
          1   -1    0    0  505    0 -0.00000000000E+00  0.00000000000E+00  0.12860919566E+04  0.12860919566E+04  0.00000000000E+00 0.  1.
         21   -1    0    0  504  502  0.00000000000E+00 -0.00000000000E+00 -0.27836871359E+02  0.27836871359E+02  0.00000000000E+00 0. -1.
         21    1    1    2  503  502  0.12511043259E+03 -0.48825056723E+02  0.22502045498E+03  0.26205097150E+03  0.00000000000E+00 0. -1.
         21    1    1    2  504  501 -0.50813773733E+02  0.18232253000E+02  0.10042719840E+03  0.11401787943E+03  0.00000000000E+00 0.  1.
         21    1    1    2  505  503 -0.24805461602E+02  0.18035828351E+02  0.63247700758E+03  0.63322015694E+03  0.00000000000E+00 0.  1.
          1    1    1    2  501    0 -0.49491197260E+02  0.12556975372E+02  0.30033042427E+03  0.30463982008E+03  0.00000000000E+00 0.  1.
<scales pt_clust_3="123.27478" pt_clust_4="57.78525" pt_clust_5="30.66924" pt_clust_6="57.78525"></scales>
<clustering>
<clus scale="   30.669">  1  5  2 -1</clus>
<clus scale="   57.785">  4  6 -1 -1</clus>
<clus scale="  123.275">  2  3  1 -1</clus>
<clus scale="  123.275">  2  3  1 -1</clus>
</clustering>
</event>
<event>
 6    0  0.1631680E+002  0.9317318E+02  0.7546771E-02  0.1295344E+00
          1   -1    0    0  505    0 -0.00000000000E+00  0.00000000000E+00  0.25025747348E+04  0.25025747348E+04  0.00000000000E+00 0.  1.
         21   -1    0    0  503  502  0.00000000000E+00 -0.00000000000E+00 -0.18913347250E+03  0.18913347250E+03  0.00000000000E+00 0.  1.
         21    1    1    2  503  501 -0.34522370443E+02  0.10820503548E+03  0.16053976700E+03  0.19665487675E+03  0.00000000000E+00 0.  1.
         21    1    1    2  504  502  0.48932214659E+02 -0.18004937196E+02 -0.16341968674E+03  0.17153580795E+03  0.00000000000E+00 0.  1.
         21    1    1    2  505  504  0.38825060919E+02 -0.51809344310E+01  0.15509305639E+03  0.15996275684E+03  0.00000000000E+00 0.  1.
          1    1    1    2  501    0 -0.53234905136E+02 -0.85019163854E+02  0.21612281256E+04  0.21635547658E+04  0.00000000000E+00 0.  1.
<scales pt_clust_3="93.17318" pt_clust_4="52.20577" pt_clust_5="39.16922" pt_clust_6="14000.00000"></scales>
<clustering>
<clus scale="   39.169">  1  5  2 -1</clus>
<clus scale="   52.206">  2  4  1 -1</clus>
<clus scale="   93.173">  2  3  1 -1</clus>
<clus scale="   52.206">  2  3  1 -1</clus>
</clustering>
</event>
<event>
 6    0  0.1631680E+002  0.6354119E+02  0.7546771E-02  0.1383544E+00
          1   -1    0    0  503    0 -0.00000000000E+00  0.00000000000E+00  0.59073422803E+03  0.59073422803E+03  0.00000000000E+00 0.  1.
         21   -1    0    0  505  502  0.00000000000E+00 -0.00000000000E+00 -0.86141971717E+02  0.86141971717E+02  0.00000000000E+00 0.  1.
         21    1    1    2  503  502 -0.46258873938E+02 -0.35157027402E+02  0.30609659511E+03  0.31156223380E+03  0.00000000000E+00 0.  1.
         21    1    1    2  504  501  0.66310444499E+01  0.79254572520E+02  0.11804321891E+03  0.14233572829E+03  0.00000000000E+00 0.  1.
         21    1    1    2  505  504 -0.37319773196E+02 -0.34833598255E+02 -0.49860388616E+02  0.71359676231E+02  0.00000000000E+00 0.  1.
          1    1    1    2  501    0  0.76947602685E+02 -0.92639468621E+01  0.13031283091E+03  0.15161856143E+03  0.00000000000E+00 0.  1.
<scales pt_clust_3="63.54119" pt_clust_4="14000.00000" pt_clust_5="51.05042" pt_clust_6="56.38210"></scales>
<clustering>
<clus scale="   51.050">  2  5  1 -1</clus>
<clus scale="   63.541">  1  3  2 -1</clus>
<clus scale="   56.382">  1  6  2 -1</clus>
<clus scale="   51.050">  2  3  1 -1</clus>
</clustering>
</event>
<event>
 6    0  0.1631680E+002  0.1063254E+03  0.7546771E-02  0.1267530E+00
          3   -1    0    0  505    0 -0.00000000000E+00  0.00000000000E+00  0.15654476389E+03  0.15654476389E+03  0.00000000000E+00 0.  1.
         21   -1    0    0  504  502  0.00000000000E+00 -0.00000000000E+00 -0.28006219549E+03  0.28006219549E+03  0.00000000000E+00 0.  1.
         21    1    1    2  503  502 -0.31149790814E+02 -0.12406688929E+03 -0.19177291973E+03  0.23052061779E+03  0.00000000000E+00 0.  1.
         21    1    1    2  504  501  0.22628811106E+01  0.77011728390E+02 -0.26736064464E+02  0.81552094293E+02  0.00000000000E+00 0. -1.
         21    1    1    2  505  503  0.38596059054E+02  0.74072436503E+01  0.52894144679E+02  0.65896233386E+02  0.00000000000E+00 0.  1.
          3    1    1    2  501    0 -0.97091493508E+01  0.39647917250E+02  0.42097407912E+02  0.58638013918E+02  0.00000000000E+00 0.  1.
<scales pt_clust_3="106.32535" pt_clust_4="14000.00000" pt_clust_5="39.30042" pt_clust_6="44.69163"></scales>
<clustering>
<clus scale="   39.300">  1  5  2 -1</clus>
<clus scale="   44.692">  1  6  2 -1</clus>
<clus scale="  106.325">  2  3  1 -1</clus>
<clus scale="  106.325">  2  3  1 -1</clus>
</clustering>
</event>
<event>
 6    0  0.1631680E+002  0.9447851E+02  0.7546771E-02  0.1292355E+00
          2   -1    0    0  503    0 -0.00000000000E+00  0.00000000000E+00  0.15168010258E+04  0.15168010258E+04  0.00000000000E+00 0.  1.
         21   -1    0    0  501  502  0.00000000000E+00 -0.00000000000E+00 -0.10128396209E+03  0.10128396209E+03  0.00000000000E+00 0.  1.
         21    1    1    2  503  505  0.98341020772E+01  0.35908339521E+02  0.37816565372E+03  0.37999392108E+03  0.00000000000E+00 0.  1.
         21    1    1    2  504  502  0.67093020885E+01 -0.67744572459E+02 -0.75707318300E+02  0.10181325983E+03  0.00000000000E+00 0.  1.
         21    1    1    2  505  504 -0.98966313161E+02  0.17905524852E+02  0.25438185739E+03  0.27354171223E+03  0.00000000000E+00 0.  1.
          2    1    1    2  501    0  0.82422908995E+02  0.13930708086E+02  0.85867687095E+03  0.86273609480E+03  0.00000000000E+00 0.  1.
<scales pt_clust_3="37.23061" pt_clust_4="67.67733" pt_clust_5="14000.00000" pt_clust_6="94.47851"></scales>
<clustering>
<clus scale="   37.231">  1  3  2 -1</clus>
<clus scale="   67.677">  2  4  1 -1</clus>
<clus scale="   94.479">  1  6  2 -1</clus>
<clus scale="   67.677">  2  3  1 -1</clus>
</clustering>
</event>
<event>
 6    0  0.1631680E+002  0.1442626E+03  0.7546771E-02  0.1207706E+00
         21   -1    0    0  504  502  0.00000000000E+00  0.00000000000E+00  0.17949959643E+03  0.17949959643E+03  0.00000000000E+00 0.  1.
          2   -1    0    0  505    0 -0.00000000000E+00 -0.00000000000E+00 -0.41172997258E+04  0.41172997258E+04  0.00000000000E+00 0.  1.
         21    1    1    2  503  502  0.35898189237E+02  0.31016454017E+02 -0.19202700613E+02  0.51180505284E+02  0.00000000000E+00 0.  1.
         21    1    1    2  504  501  0.74101649864E+02  0.65740828946E+02  0.14403676852E+03  0.17481276209E+03  0.00000000000E+00 0.  1.
         21    1    1    2  505  503  0.14857152301E+02 -0.45200580990E+02 -0.28939279782E+04  0.28943190858E+04  0.00000000000E+00 0.  1.
          2    1    1    2  501    0 -0.12485699140E+03 -0.51556701972E+02 -0.11687062191E+04  0.11764869690E+04  0.00000000000E+00 0.  1.
<scales pt_clust_3="47.44155" pt_clust_4="14000.00000" pt_clust_5="47.55789" pt_clust_6="144.26265"></scales>
<clustering>
<clus scale="   47.442">  1  3  2 -1</clus>
<clus scale="   47.558">  2  5  1 -1</clus>
<clus scale="  144.263">  2  6  1 -1</clus>
<clus scale="   47.442">  1  3  2 -1</clus>
</clustering>
</event>
<event>
 6    0  0.1631680E+002  0.9410028E+02  0.7546771E-02  0.1293215E+00
         21   -1    0    0  501  502  0.00000000000E+00  0.00000000000E+00  0.36975172512E+02  0.36975172512E+02  0.00000000000E+00 0.  1.
          1   -1    0    0  505    0 -0.00000000000E+00 -0.00000000000E+00 -0.11838474670E+04  0.11838474670E+04  0.00000000000E+00 0.  1.
         21    1    1    2  503  502  0.70817000459E+01  0.53157582516E+02 -0.36768990079E+02  0.65021824689E+02  0.00000000000E+00 0.  1.
         21    1    1    2  504  503 -0.64686239643E+02  0.25437803649E+02 -0.11104283781E+03  0.13100344760E+03  0.00000000000E+00 0.  1.
         21    1    1    2  505  504 -0.64262178393E+01 -0.11431307808E+03 -0.86003903709E+03  0.86762660253E+03  0.00000000000E+00 0.  1.
          1    1    1    2  501    0  0.64030757436E+02  0.35717691915E+02 -0.13902142952E+03  0.15717076471E+03  0.00000000000E+00 0.  1.
<scales pt_clust_3="53.62722" pt_clust_4="78.49327" pt_clust_5="94.10028" pt_clust_6="14000.00000"></scales>
<clustering>
<clus scale="   53.627">  1  3  2 -1</clus>
<clus scale="   78.493">  1  4  2 -1</clus>
<clus scale="   94.100">  2  5  1 -1</clus>
<clus scale="   53.627">  1  3  2 -1</clus>
</clustering>
</event>
<event>
 6    0  0.1631680E+002  0.1255694E+03  0.7546771E-02  0.1234182E+00
         21   -1    0    0  505  502  0.00000000000E+00  0.00000000000E+00  0.32463796027E+03  0.32463796027E+03  0.00000000000E+00 0. -1.
          2   -1    0    0  503    0 -0.00000000000E+00 -0.00000000000E+00 -0.35303111038E+03  0.35303111038E+03  0.00000000000E+00 0. -1.
         21    1    1    2  503  504 -0.87794105674E+02 -0.29409873734E+02 -0.15235914246E+03  0.17828643794E+03  0.00000000000E+00 0. -1.
         21    1    1    2  504  502  0.12021744361E+03 -0.11637756260E+03  0.15822614064E+03  0.23028565393E+03  0.00000000000E+00 0. -1.
         21    1    1    2  505  501 -0.31199539617E+00  0.58657735025E+02  0.93970056776E+02  0.11077544308E+03  0.00000000000E+00 0. -1.
          2    1    1    2  501    0 -0.32111342542E+02  0.87129701314E+02 -0.12823020506E+03  0.15832153568E+03  0.00000000000E+00 0. -1.
<scales pt_clust_3="91.57735" pt_clust_4="125.56938" pt_clust_5="58.65856" pt_clust_6="14000.00000"></scales>
<clustering>
<clus scale="   58.659">  1  5  2 -1</clus>
<clus scale="   91.577">  2  3  1 -1</clus>
<clus scale="  125.569">  1  4  2 -1</clus>
<clus scale="   58.659">  1  3  2 -1</clus>
</clustering>
</event>
<event>
 6    0  0.1631680E+002  0.1967518E+03  0.7546771E-02  0.1152509E+00
          2   -1    0    0  503    0 -0.00000000000E+00  0.00000000000E+00  0.69992959334E+03  0.69992959334E+03  0.00000000000E+00 0.  1.
         21   -1    0    0  505  502  0.00000000000E+00 -0.00000000000E+00 -0.44691455612E+03  0.44691455612E+03  0.00000000000E+00 0.  1.
         21    1    1    2  503  504  0.20112758486E+03 -0.52557536247E+02 -0.16433430668E+02  0.20852975244E+03  0.00000000000E+00 0.  1.
         21    1    1    2  504  502  0.31491216010E+01 -0.10799623350E+03 -0.25365991769E+03  0.27571082180E+03  0.00000000000E+00 0.  1.
         21    1    1    2  505  501 -0.36630185051E+02  0.58598890395E+02 -0.30287732474E+02  0.75451621261E+02  0.00000000000E+00 0.  1.
          2    1    1    2  501    0 -0.16764652141E+03  0.10195487935E+03  0.55339611806E+03  0.58715195396E+03  0.00000000000E+00 0.  1.
<scales pt_clust_3="14000.00000" pt_clust_4="71.91006" pt_clust_5="69.10572" pt_clust_6="196.75177"></scales>
<clustering>
<clus scale="   69.106">  2  5  1 -1</clus>
<clus scale="   71.910">  2  4  1 -1</clus>
<clus scale="  196.752">  1  6  2 -1</clus>
<clus scale="   69.106">  2  3  1 -1</clus>
</clustering>
</event>
<event>
 6    0  0.1631680E+002  0.1110710E+03  0.7546771E-02  0.1258599E+00
         21   -1    0    0  501  502  0.00000000000E+00  0.00000000000E+00  0.14089807408E+04  0.14089807408E+04  0.00000000000E+00 0. -1.
          2   -1    0    0  504    0 -0.00000000000E+00 -0.00000000000E+00 -0.35145700373E+03  0.35145700373E+03  0.00000000000E+00 0.  1.
         21    1    1    2  503  505  0.56796722737E+02  0.42916216719E+02  0.14005010552E+03  0.15710411016E+03  0.00000000000E+00 0.  1.
         21    1    1    2  504  503  0.23201128152E+02  0.24458159915E+02 -0.11162566101E+02  0.35511924982E+02  0.00000000000E+00 0.  1.
         21    1    1    2  505  502  0.25514403900E+02  0.38900097275E+02  0.12302216465E+04  0.12311009308E+04  0.00000000000E+00 0. -1.
          2    1    1    2  501    0 -0.10551225479E+03 -0.10627447391E+03 -0.30158544889E+03  0.33672077853E+03  0.00000000000E+00 0.  1.
<scales pt_clust_3="14000.00000" pt_clust_4="33.71193" pt_clust_5="46.56544" pt_clust_6="111.07097"></scales>
<clustering>
<clus scale="   33.712">  2  4  1 -1</clus>
<clus scale="   46.565">  1  5  2 -1</clus>
<clus scale="  111.071">  2  6  1 -1</clus>
<clus scale="   46.565">  1  3  2 -1</clus>
</clustering>
</event>
<event>
 6    0  0.1631680E+002  0.5896636E+02  0.7546771E-02  0.1402221E+00
         -2   -1    0    0    0  501 -0.00000000000E+00  0.00000000000E+00  0.10934612840E+03  0.10934612840E+03  0.00000000000E+00 0.  1.
         21   -1    0    0  503  502  0.00000000000E+00 -0.00000000000E+00 -0.14325030995E+04  0.14325030995E+04  0.00000000000E+00 0.  1.
         21    1    1    2  503  504 -0.28934970069E+02  0.32415890811E+02 -0.95558947686E+02  0.10497397274E+03  0.00000000000E+00 0.  1.
         21    1    1    2  504  501 -0.28623259261E+02 -0.50785593849E+02  0.89724105174E+02  0.10699945123E+03  0.00000000000E+00 0.  1.
         21    1    1    2  505  502  0.19105489176E+02 -0.59762281781E+02 -0.96179355866E+03  0.96383784918E+03  0.00000000000E+00 0.  1.
         -2    1    1    2    0  505  0.38452740153E+02  0.78131984819E+02 -0.35552856994E+03  0.36603795476E+03  0.00000000000E+00 0.  1.
<scales pt_clust_3="43.45138" pt_clust_4="14000.00000" pt_clust_5="36.37997" pt_clust_6="58.96636"></scales>
<clustering>
<clus scale="   43.451">  2  3  1 -1</clus>
<clus scale="   36.380">  2  5  1 -1</clus>
<clus scale="   58.966">  2  6  1 -1</clus>
<clus scale="   43.451">  2  3  1 -1</clus>
</clustering>
</event>
<event>
 6    0  0.1631680E+002  0.8606899E+02  0.7546771E-02  0.1312660E+00
          2   -1    0    0  505    0 -0.00000000000E+00  0.00000000000E+00  0.33678609117E+04  0.33678609117E+04  0.00000000000E+00 0. -1.
         21   -1    0    0  503  502  0.00000000000E+00 -0.00000000000E+00 -0.94318827749E+02  0.94318827749E+02  0.00000000000E+00 0.  1.
         21    1    1    2  503  501  0.59261935788E+02 -0.64070096999E+01 -0.70341150730E+02  0.92200348658E+02  0.00000000000E+00 0.  1.
         21    1    1    2  504  502  0.25785728786E+02  0.30937132925E+02  0.43739790308E+02  0.59457373461E+02  0.00000000000E+00 0.  1.
         21    1    1    2  505  504 -0.15695902133E+01 -0.73578291108E+02  0.30280167764E+03  0.31161688740E+03  0.00000000000E+00 0. -1.
          2    1    1    2  501    0 -0.83478074362E+02  0.49048167883E+02  0.29973417667E+04  0.29989051299E+04  0.00000000000E+00 0. -1.
<scales pt_clust_3="86.06899" pt_clust_4="40.27419" pt_clust_5="72.00161" pt_clust_6="14000.00000"></scales>
<clustering>
<clus scale="   40.274">  2  4  1 -1</clus>
<clus scale="   72.002">  1  5  2 -1</clus>
<clus scale="   86.069">  2  3  1 -1</clus>
<clus scale="   40.274">  2  3  1 -1</clus>
</clustering>
</event>
<event>
 6    0  0.1631680E+002  0.1218078E+03  0.7546771E-02  0.1240144E+00
          2   -1    0    0  505    0 -0.00000000000E+00  0.00000000000E+00  0.18060585411E+04  0.18060585411E+04  0.00000000000E+00 0. -1.
         21   -1    0    0  504  502  0.00000000000E+00 -0.00000000000E+00 -0.16833336209E+03  0.16833336209E+03  0.00000000000E+00 0.  1.
         21    1    1    2  503  502 -0.27269674498E+02 -0.41743429092E+02 -0.71589728447E+02  0.87242410780E+02  0.00000000000E+00 0.  1.
         21    1    1    2  504  501 -0.89835404065E+02  0.89789429289E+02  0.11636083435E+03  0.17225674212E+03  0.00000000000E+00 0.  1.
         21    1    1    2  505  503 -0.72404793245E+01 -0.63078661981E+02 -0.41366654457E+02  0.75779563466E+02  0.00000000000E+00 0.  1.
          2    1    1    2  501    0  0.12434555789E+03  0.15032661783E+02  0.16343207275E+04  0.16391131868E+04  0.00000000000E+00 0. -1.
<scales pt_clust_3="35.86981" pt_clust_4="121.80780" pt_clust_5="117.54582" pt_clust_6="14000.00000"></scales>
<clustering>
<clus scale="   35.870">  3  5 -1 -1</clus>
<clus scale="  117.546">  2  3  1 -1</clus>
<clus scale="  121.808">  2  4  1 -1</clus>
<clus scale="  117.546">  2  3  1 -1</clus>
</clustering>
</event>
<event>
 6    0  0.1631680E+002  0.1125039E+03  0.7546771E-02  0.1256002E+00
         21   -1    0    0  504  502  0.00000000000E+00  0.00000000000E+00  0.39595494249E+03  0.39595494249E+03  0.00000000000E+00 0.  1.
         -4   -1    0    0    0  501 -0.00000000000E+00 -0.00000000000E+00 -0.36536006175E+03  0.36536006175E+03  0.00000000000E+00 0. -1.
         21    1    1    2  503  501 -0.27882460090E+02  0.37604643646E+02 -0.19637628078E+03  0.20187913329E+03  0.00000000000E+00 0. -1.
         21    1    1    2  504  503  0.10304310536E+03 -0.51265334830E+02  0.19817207647E+01  0.11510839819E+03  0.00000000000E+00 0.  1.
         21    1    1    2  505  502 -0.94801228188E+02 -0.69594637864E+02  0.30519294444E+03  0.32706791317E+03  0.00000000000E+00 0.  1.
         -4    1    1    2    0  505  0.19640582922E+02  0.83255329048E+02 -0.80203503687E+02  0.11725955959E+03  0.00000000000E+00 0. -1.
<scales pt_clust_3="46.81390" pt_clust_4="101.15620" pt_clust_5="112.50387" pt_clust_6="14000.00000"></scales>
<clustering>
<clus scale="   46.814">  2  3  1 -1</clus>
<clus scale="  101.156">  2  4  1 -1</clus>
<clus scale="  112.504">  1  5  2 -1</clus>
<clus scale="  112.504">  1  3  2 -1</clus>
</clustering>
</event>
<event>
 6    0  0.1631680E+002  0.8227036E+02  0.7546771E-02  0.1322729E+00
         21   -1    0    0  503  502  0.00000000000E+00  0.00000000000E+00  0.50095824820E+03  0.50095824820E+03  0.00000000000E+00 0. -1.
         -3   -1    0    0    0  501 -0.00000000000E+00 -0.00000000000E+00 -0.55091498088E+03  0.55091498088E+03  0.00000000000E+00 0. -1.
         21    1    1    2  503  504 -0.47600654944E+02  0.71838812016E+02  0.29036345818E+03  0.30288211421E+03  0.00000000000E+00 0. -1.
         21    1    1    2  504  501 -0.99292753685E+02 -0.12200704218E+02 -0.98701166486E+02  0.14053408264E+03  0.00000000000E+00 0. -1.
         21    1    1    2  505  502  0.81794559678E+02 -0.88352578314E+01  0.16988088121E+03  0.18875361076E+03  0.00000000000E+00 0. -1.
         -3    1    1    2    0  505  0.65098848951E+02 -0.50802849967E+02 -0.41149990558E+03  0.41970342147E+03  0.00000000000E+00 0. -1.
<scales pt_clust_3="69.50625" pt_clust_4="14000.00000" pt_clust_5="82.27036" pt_clust_6="81.46954"></scales>
<clustering>
<clus scale="   82.270">  1  5  2 -1</clus>
<clus scale="   69.506">  1  3  2 -1</clus>
<clus scale="   81.470">  2  6  1 -1</clus>
<clus scale="   82.270">  1  3  2 -1</clus>
</clustering>
</event>
<event>
 6    0  0.1631680E+002  0.1876419E+03  0.7546771E-02  0.1160605E+00
         21   -1    0    0  501  502  0.00000000000E+00  0.00000000000E+00  0.24508528474E+03  0.24508528474E+03  0.00000000000E+00 0. -1.
          1   -1    0    0  504    0 -0.00000000000E+00 -0.00000000000E+00 -0.63037023702E+03  0.63037023702E+03  0.00000000000E+00 0. -1.
         21    1    1    2  503  502 -0.85470361819E+01  0.30211544662E+02  0.10269535850E+03  0.10738773633E+03  0.00000000000E+00 0. -1.
         21    1    1    2  504  505  0.30753904170E+02  0.16383229614E+03 -0.32607301662E+03  0.36621091744E+03  0.00000000000E+00 0. -1.
         21    1    1    2  505  503  0.31228240284E+02  0.46743016256E+02  0.51096563785E+02  0.75966909839E+02  0.00000000000E+00 0.  1.
          1    1    1    2  501    0 -0.53435108273E+02 -0.24078685706E+03 -0.21300385794E+03  0.32588995816E+03  0.00000000000E+00 0. -1.
<scales pt_clust_3="31.39728" pt_clust_4="187.64194" pt_clust_5="66.34840" pt_clust_6="14000.00000"></scales>
<clustering>
<clus scale="   31.397">  1  3  2 -1</clus>
<clus scale="   66.348">  1  5  2 -1</clus>
<clus scale="  187.642">  2  4  1 -1</clus>
<clus scale="   31.397">  1  3  2 -1</clus>
</clustering>
</event>
<event>
 6    0  0.1631680E+002  0.2602416E+03  0.7546771E-02  0.1106998E+00
         21   -1    0    0  503  502  0.00000000000E+00  0.00000000000E+00  0.28609717932E+03  0.28609717932E+03  0.00000000000E+00 0.  1.
          2   -1    0    0  504    0 -0.00000000000E+00 -0.00000000000E+00 -0.17045149582E+04  0.17045149582E+04  0.00000000000E+00 0. -1.
         21    1    1    2  503  505 -0.35340799770E+02 -0.55411643767E+02 -0.69836673326E+00  0.65726023076E+02  0.00000000000E+00 0.  1.
         21    1    1    2  504  502  0.34260069262E+02  0.14999710230E+02 -0.30161360092E+02  0.48046345287E+02  0.00000000000E+00 0.  1.
         21    1    1    2  505  501  0.99230186494E+02  0.27962095795E+03  0.13962933613E+03  0.32791898625E+03  0.00000000000E+00 0.  1.
          2    1    1    2  501    0 -0.98149455987E+02 -0.23920902442E+03 -0.15271873882E+04  0.15489207829E+04  0.00000000000E+00 0. -1.
<scales pt_clust_3="62.12553" pt_clust_4="37.39978" pt_clust_5="260.24163" pt_clust_6="14000.00000"></scales>
<clustering>
<clus scale="   37.400">  1  4  2 -1</clus>
<clus scale="   62.126">  1  3  2 -1</clus>
<clus scale="  260.242">  1  5  2 -1</clus>
<clus scale="   37.400">  1  3  2 -1</clus>
</clustering>
</event>
<event>
 6    0  0.1631680E+002  0.9781647E+02  0.7546771E-02  0.1284956E+00
          1   -1    0    0  503    0 -0.00000000000E+00  0.00000000000E+00  0.12377599756E+04  0.12377599756E+04  0.00000000000E+00 0.  1.
         21   -1    0    0  505  502  0.00000000000E+00 -0.00000000000E+00 -0.10219894851E+04  0.10219894851E+04  0.00000000000E+00 0. -1.
         21    1    1    2  503  502  0.41729664218E+02  0.59304393776E+02  0.20401075919E+03  0.21651504766E+03  0.00000000000E+00 0. -1.
         21    1    1    2  504  501 -0.72238023769E+02 -0.99173661760E+02  0.61151652716E+03  0.62370362373E+03  0.00000000000E+00 0.  1.
         21    1    1    2  505  504  0.67910354160E+00  0.60135306411E+02 -0.10079526015E+04  0.10097450981E+04  0.00000000000E+00 0. -1.
          1    1    1    2  501    0  0.29829256009E+02 -0.20266038427E+02  0.40819580571E+03  0.40978569110E+03  0.00000000000E+00 0.  1.
<scales pt_clust_3="97.81647" pt_clust_4="14000.00000" pt_clust_5="60.11760" pt_clust_6="36.06240"></scales>
<clustering>
<clus scale="   36.062">  1  6  2 -1</clus>
<clus scale="   60.118">  2  5  1 -1</clus>
<clus scale="   97.816">  2  3  1 -1</clus>
<clus scale="   60.118">  2  3  1 -1</clus>
</clustering>
</event>
<event>
 6    0  0.1631680E+002  0.1057878E+03  0.7546771E-02  0.1268575E+00
          4   -1    0    0  504    0 -0.00000000000E+00  0.00000000000E+00  0.13552245296E+03  0.13552245296E+03  0.00000000000E+00 0. -1.
         21   -1    0    0  503  502  0.00000000000E+00 -0.00000000000E+00 -0.21321903894E+04  0.21321903894E+04  0.00000000000E+00 0. -1.
         21    1    1    2  503  501 -0.94711087348E+02  0.50022583982E+02 -0.49444742768E+03  0.50591571206E+03  0.00000000000E+00 0.  1.
         21    1    1    2  504  505  0.14863620879E+02  0.46549400572E+02 -0.58797318804E+02  0.76451936651E+02  0.00000000000E+00 0.  1.
         21    1    1    2  505  502  0.10892438424E+03  0.36139963458E+02 -0.15233842674E+04  0.15277009670E+04  0.00000000000E+00 0. -1.
          4    1    1    2  501    0 -0.29076917772E+02 -0.13271194801E+03  0.79961077424E+02  0.15764422665E+03  0.00000000000E+00 0. -1.
<scales pt_clust_3="14000.00000" pt_clust_4="48.86485" pt_clust_5="105.78781" pt_clust_6="90.33990"></scales>
<clustering>
<clus scale="   48.865">  1  4  2 -1</clus>
<clus scale="   90.340">  1  6  2 -1</clus>
<clus scale="  105.788">  2  5  1 -1</clus>
<clus scale="  105.788">  2  3  1 -1</clus>
</clustering>
</event>
<event>
 6    0  0.1631680E+002  0.9340460E+02  0.7546771E-02  0.1294810E+00
         21   -1    0    0  504  502  0.00000000000E+00  0.00000000000E+00  0.84155881146E+03  0.84155881146E+03  0.00000000000E+00 0. -1.
          2   -1    0    0  503    0 -0.00000000000E+00 -0.00000000000E+00 -0.34818241388E+03  0.34818241388E+03  0.00000000000E+00 0.  1.
         21    1    1    2  503  502 -0.21229678279E+02 -0.74364297438E+02 -0.88107278371E+02  0.11723327375E+03  0.00000000000E+00 0.  1.
         21    1    1    2  504  505  0.12712273262E+02  0.38388477342E+02  0.72880204809E+03  0.72992307977E+03  0.00000000000E+00 0. -1.
         21    1    1    2  505  501 -0.93816401495E+02  0.14265985654E+02  0.58661608640E+02  0.11156262754E+03  0.00000000000E+00 0.  1.
          2    1    1    2  501    0  0.10233380651E+03  0.21709834441E+02 -0.20597998078E+03  0.23102224428E+03  0.00000000000E+00 0.  1.
<scales pt_clust_3="72.09129" pt_clust_4="40.43856" pt_clust_5="14000.00000" pt_clust_6="93.40460"></scales>
<clustering>
<clus scale="   40.439">  1  4  2 -1</clus>
<clus scale="   72.091">  2  3  1 -1</clus>
<clus scale="   93.405">  2  6  1 -1</clus>
<clus scale="   40.439">  1  3  2 -1</clus>
</clustering>
</event>
<event>
 6    0  0.1631680E+002  0.1053029E+03  0.7546771E-02  0.1269524E+00
         21   -1    0    0  504  502  0.00000000000E+00  0.00000000000E+00  0.58330377283E+03  0.58330377283E+03  0.00000000000E+00 0. -1.
         -4   -1    0    0    0  501 -0.00000000000E+00 -0.00000000000E+00 -0.22074827901E+03  0.22074827901E+03  0.00000000000E+00 0. -1.
         21    1    1    2  503  501 -0.36849215573E+00 -0.33909439712E+02 -0.11593145846E+03  0.12078944055E+03  0.00000000000E+00 0. -1.
         21    1    1    2  504  503 -0.74414554549E+02 -0.35263495196E+01  0.33888248687E+03  0.34697449615E+03  0.00000000000E+00 0. -1.
         21    1    1    2  505  502  0.56351985113E+02 -0.95504332596E+02  0.16587715169E+03  0.19952907864E+03  0.00000000000E+00 0. -1.
         -4    1    1    2    0  505  0.18431061591E+02  0.13294012183E+03 -0.26272686276E+02  0.13675903651E+03  0.00000000000E+00 0. -1.
<scales pt_clust_3="33.91144" pt_clust_4="74.58803" pt_clust_5="105.30293" pt_clust_6="14000.00000"></scales>
<clustering>
<clus scale="   33.911">  2  3  1 -1</clus>
<clus scale="   74.588">  1  4  2 -1</clus>
<clus scale="  105.303">  1  5  2 -1</clus>
<clus scale="   74.588">  1  3  2 -1</clus>
</clustering>
</event>
<event>
 6    0  0.1631680E+002  0.1681655E+03  0.7546771E-02  0.1179775E+00
         21   -1    0    0  505  502  0.00000000000E+00  0.00000000000E+00  0.28686986292E+04  0.28686986292E+04  0.00000000000E+00 0. -1.
          1   -1    0    0  504    0 -0.00000000000E+00 -0.00000000000E+00 -0.20550983624E+04  0.20550983624E+04  0.00000000000E+00 0. -1.
         21    1    1    2  503  501 -0.45248040327E+02  0.10981292799E+03  0.17523521619E+02  0.12005556262E+03  0.00000000000E+00 0.  1.
         21    1    1    2  504  502 -0.24672405875E+02  0.27784198719E+02  0.45697165463E+03  0.45847986045E+03  0.00000000000E+00 0. -1.
         21    1    1    2  505  503 -0.63728399839E+02 -0.30027433398E+02  0.23379782852E+04  0.23390394220E+04  0.00000000000E+00 0. -1.
          1    1    1    2  501    0  0.13364884604E+03 -0.10756969331E+03 -0.19988731946E+04  0.20062221465E+04  0.00000000000E+00 0. -1.
<scales pt_clust_3="14000.00000" pt_clust_4="37.15763" pt_clust_5="87.71329" pt_clust_6="168.16553"></scales>
<clustering>
<clus scale="   37.158">  1  4  2 -1</clus>
<clus scale="   87.713">  1  5  2 -1</clus>
<clus scale="  168.166">  2  6  1 -1</clus>
<clus scale="   37.158">  1  3  2 -1</clus>
</clustering>
</event>
<event>
 6    0  0.1631680E+002  0.8698178E+02  0.7546771E-02  0.1310330E+00
          2   -1    0    0  505    0 -0.00000000000E+00  0.00000000000E+00  0.12891938515E+04  0.12891938515E+04  0.00000000000E+00 0. -1.
         21   -1    0    0  501  502  0.00000000000E+00 -0.00000000000E+00 -0.20797889171E+02  0.20797889171E+02  0.00000000000E+00 0. -1.
         21    1    1    2  503  502 -0.42686778876E+02  0.12428826167E+02  0.37638870434E+02  0.58252222088E+02  0.00000000000E+00 0. -1.
         21    1    1    2  504  503  0.12178801254E+03  0.27921842232E+02  0.58413161917E+03  0.59734554304E+03  0.00000000000E+00 0. -1.
         21    1    1    2  505  504 -0.20275794653E+02 -0.29388764639E+02  0.15071725144E+03  0.15488866071E+03  0.00000000000E+00 0.  1.
          2    1    1    2  501    0 -0.58825439006E+02 -0.10961903760E+02  0.49590822131E+03  0.49950531486E+03  0.00000000000E+00 0. -1.
<scales pt_clust_3="44.95684" pt_clust_4="14000.00000" pt_clust_5="35.70444" pt_clust_6="86.98178"></scales>
<clustering>
<clus scale="   35.704">  1  5  2 -1</clus>
<clus scale="   44.957">  2  3  1 -1</clus>
<clus scale="   86.982">  1  6  2 -1</clus>
<clus scale="   44.957">  2  3  1 -1</clus>
</clustering>
</event>
<event>
 6    0  0.1631680E+002  0.2711837E+03  0.7546771E-02  0.1100604E+00
          1   -1    0    0  505    0 -0.00000000000E+00  0.00000000000E+00  0.23826597619E+03  0.23826597619E+03  0.00000000000E+00 0.  1.
         21   -1    0    0  501  502  0.00000000000E+00 -0.00000000000E+00 -0.98337227455E+03  0.98337227455E+03  0.00000000000E+00 0. -1.
         21    1    1    2  503  502  0.80127881595E+02  0.66985399387E+02 -0.62030914933E+03  0.62903971408E+03  0.00000000000E+00 0. -1.
         21    1    1    2  504  503  0.97210650466E+02  0.11330974078E+03 -0.18711755729E+03  0.23937833688E+03  0.00000000000E+00 0. -1.
         21    1    1    2  505  504  0.46711668907E+02  0.43507756157E+01 -0.20661663444E+02  0.51262204369E+02  0.00000000000E+00 0. -1.
          1    1    1    2  501    0 -0.22405020097E+03 -0.18464591579E+03  0.82982071702E+02  0.30195799541E+03  0.00000000000E+00 0.  1.
<scales pt_clust_3="104.43908" pt_clust_4="46.02831" pt_clust_5="46.02831" pt_clust_6="258.45407"></scales>
<clustering>
<clus scale="   46.028">  4  5 -1 -1</clus>
<clus scale="  104.439">  2  3  1 -1</clus>
<clus scale="  258.454">  1  6  2 -1</clus>
<clus scale="  104.439">  2  3  1 -1</clus>
</clustering>
</event>
<event>
 6    0  0.1631680E+002  0.7880298E+02  0.7546771E-02  0.1332483E+00
         21   -1    0    0  503  502  0.00000000000E+00  0.00000000000E+00  0.26428426374E+03  0.26428426374E+03  0.00000000000E+00 0.  1.
          4   -1    0    0  505    0 -0.00000000000E+00 -0.00000000000E+00 -0.27990208653E+03  0.27990208653E+03  0.00000000000E+00 0.  1.
         21    1    1    2  503  501  0.17639501276E+02  0.55362547524E+02  0.45751138213E+02  0.73954920873E+02  0.00000000000E+00 0.  1.
         21    1    1    2  504  502 -0.35731180450E+02  0.42611007908E+02  0.17770899193E+03  0.18620660854E+03  0.00000000000E+00 0.  1.
         21    1    1    2  505  504 -0.41930431073E+02 -0.55752723200E+02 -0.66007722340E+02  0.96039297180E+02  0.00000000000E+00 0.  1.
          4    1    1    2  501    0  0.60022110248E+02 -0.42220832231E+02 -0.17307023060E+03  0.18798552367E+03  0.00000000000E+00 0.  1.
<scales pt_clust_3="78.80298" pt_clust_4="55.60949" pt_clust_5="68.18592" pt_clust_6="14000.00000"></scales>
<clustering>
<clus scale="   55.609">  1  4  2 -1</clus>
<clus scale="   68.186">  2  5  1 -1</clus>
<clus scale="   78.803">  1  3  2 -1</clus>
<clus scale="   55.609">  1  3  2 -1</clus>
</clustering>
</event>
<event>
 6    0  0.1631680E+002  0.8931502E+02  0.7546771E-02  0.1304519E+00
          1   -1    0    0  504    0 -0.00000000000E+00  0.00000000000E+00  0.57710444990E+02  0.57710444990E+02  0.00000000000E+00 0.  1.
         21   -1    0    0  503  502  0.00000000000E+00 -0.00000000000E+00 -0.60444677271E+03  0.60444677271E+03  0.00000000000E+00 0. -1.
         21    1    1    2  503  505 -0.49024604807E+02  0.45592571137E+01 -0.13941115399E+03  0.14785015576E+03  0.00000000000E+00 0. -1.
         21    1    1    2  504  502 -0.35028367986E+02  0.13049976279E+02  0.16603792752E+02  0.40902009467E+02  0.00000000000E+00 0.  1.
         21    1    1    2  505  501  0.68296030560E+02 -0.96170134127E+02 -0.32713312647E+03  0.34774865194E+03  0.00000000000E+00 0. -1.
          1    1    1    2  501    0  0.15756942233E+02  0.78560900734E+02 -0.96795840013E+02  0.12565640054E+03  0.00000000000E+00 0.  1.
<scales pt_clust_3="54.51292" pt_clust_4="37.38032" pt_clust_5="14000.00000" pt_clust_6="89.31502"></scales>
<clustering>
<clus scale="   37.380">  1  4  2 -1</clus>
<clus scale="   54.513">  2  3  1 -1</clus>
<clus scale="   89.315">  1  6  2 -1</clus>
<clus scale="   54.513">  2  3  1 -1</clus>
</clustering>
</event>
<event>
 6    0  0.1631680E+002  0.8833859E+02  0.7546771E-02  0.1306926E+00
          2   -1    0    0  504    0 -0.00000000000E+00  0.00000000000E+00  0.19195208470E+04  0.19195208470E+04  0.00000000000E+00 0. -1.
         21   -1    0    0  501  502  0.00000000000E+00 -0.00000000000E+00 -0.50502264299E+02  0.50502264299E+02  0.00000000000E+00 0.  1.
         21    1    1    2  503  502 -0.55508641296E+02  0.84342241201E+02  0.52164244207E+02  0.11364827884E+03  0.00000000000E+00 0.  1.
         21    1    1    2  504  505  0.88114189185E+01  0.33412497444E+02  0.34304899766E+03  0.34478493425E+03  0.00000000000E+00 0. -1.
         21    1    1    2  505  503  0.68754240256E+02 -0.40090250792E+02  0.71580483537E+02  0.10704269889E+03  0.00000000000E+00 0. -1.
          2    1    1    2  501    0 -0.22057017878E+02 -0.77664487853E+02  0.14022248573E+04  0.14045471993E+04  0.00000000000E+00 0. -1.
<scales pt_clust_3="88.33859" pt_clust_4="34.55483" pt_clust_5="14000.00000" pt_clust_6="49.96686"></scales>
<clustering>
<clus scale="   34.555">  1  4  2 -1</clus>
<clus scale="   49.967">  1  6  2 -1</clus>
<clus scale="   88.339">  2  3  1 -1</clus>
<clus scale="   88.339">  2  3  1 -1</clus>
</clustering>
</event>
<event>
 6    0  0.1631680E+002  0.8109866E+02  0.7546771E-02  0.1325962E+00
         21   -1    0    0  503  502  0.00000000000E+00  0.00000000000E+00  0.79222237334E+02  0.79222237334E+02  0.00000000000E+00 0.  1.
          2   -1    0    0  504    0 -0.00000000000E+00 -0.00000000000E+00 -0.10069712391E+04  0.10069712391E+04  0.00000000000E+00 0. -1.
         21    1    1    2  503  505 -0.31034157814E+02  0.11536076640E+02  0.34071929274E+02  0.47508908427E+02  0.00000000000E+00 0.  1.
         21    1    1    2  504  502  0.66676523206E+02  0.21001478080E+02 -0.68843974912E+03  0.69197984725E+03  0.00000000000E+00 0.  1.
         21    1    1    2  505  501  0.73381817378E+02 -0.54377328625E+02 -0.70596632060E+02  0.11543686347E+03  0.00000000000E+00 0.  1.
          2    1    1    2  501    0 -0.10902418277E+03  0.21839773904E+02 -0.20278454986E+03  0.23126785729E+03  0.00000000000E+00 0. -1.
<scales pt_clust_3="33.10891" pt_clust_4="68.70849" pt_clust_5="14000.00000" pt_clust_6="81.09866"></scales>
<clustering>
<clus scale="   33.109">  1  3  2 -1</clus>
<clus scale="   68.708">  2  4  1 -1</clus>
<clus scale="   81.099">  2  6  1 -1</clus>
<clus scale="   33.109">  1  3  2 -1</clus>
</clustering>
</event>
<event>
 6    0  0.1631680E+002  0.9513379E+02  0.7546771E-02  0.1290875E+00
         21   -1    0    0  505  502  0.00000000000E+00  0.00000000000E+00  0.71162321970E+03  0.71162321970E+03  0.00000000000E+00 0. -1.
          2   -1    0    0  504    0 -0.00000000000E+00 -0.00000000000E+00 -0.58968201668E+03  0.58968201668E+03  0.00000000000E+00 0. -1.
         21    1    1    2  503  502 -0.26627502795E+02 -0.39346173165E+02  0.10248357391E+03  0.11296029466E+03  0.00000000000E+00 0. -1.
         21    1    1    2  504  503  0.75306610636E+02 -0.13268133186E+03 -0.29789630582E+02  0.15544402053E+03  0.00000000000E+00 0. -1.
         21    1    1    2  505  501 -0.49565620297E+02  0.88204226639E+02  0.53270565554E+03  0.54222878175E+03  0.00000000000E+00 0. -1.
          2    1    1    2  501    0  0.88651245594E+00  0.83823278385E+02 -0.48345839585E+03  0.49067213944E+03  0.00000000000E+00 0. -1.
<scales pt_clust_3="47.50942" pt_clust_4="95.13379" pt_clust_5="14000.00000" pt_clust_6="83.59144"></scales>
<clustering>
<clus scale="   47.509">  1  3  2 -1</clus>
<clus scale="   83.591">  2  6  1 -1</clus>
<clus scale="   95.134">  2  4  1 -1</clus>
<clus scale="   47.509">  1  3  2 -1</clus>
</clustering>
</event>
<event>
 6    0  0.1631680E+002  0.1765271E+03  0.7546771E-02  0.1171207E+00
         21   -1    0    0  505  502  0.00000000000E+00  0.00000000000E+00  0.13108197747E+04  0.13108197747E+04  0.00000000000E+00 0.  1.
         -2   -1    0    0    0  501 -0.00000000000E+00 -0.00000000000E+00 -0.31910213639E+03  0.31910213639E+03  0.00000000000E+00 0. -1.
         21    1    1    2  503  502  0.84161771354E+02  0.16433696281E+03  0.10806774570E+04  0.10963364480E+04  0.00000000000E+00 0.  1.
         21    1    1    2  504  501 -0.24011864233E+02  0.48722098842E+02  0.24410134300E+02  0.59550543206E+02  0.00000000000E+00 0. -1.
         21    1    1    2  505  504 -0.23174321331E+02 -0.14785871811E+03  0.14296005736E+03  0.20697059620E+03  0.00000000000E+00 0. -1.
         -2    1    1    2    0  503 -0.36975585790E+02 -0.65200343549E+02 -0.25633001040E+03  0.26706432366E+03  0.00000000000E+00 0. -1.
<scales pt_clust_3="176.52709" pt_clust_4="54.31770" pt_clust_5="14000.00000" pt_clust_6="62.19081"></scales>
<clustering>
<clus scale="   54.318">  2  4  1 -1</clus>
<clus scale="   62.191">  2  6  1 -1</clus>
<clus scale="  176.527">  1  3  2 -1</clus>
<clus scale="  176.527">  1  3  2 -1</clus>
</clustering>
</event>
<event>
 6    0  0.1631680E+002  0.1131000E+03  0.7546771E-02  0.1254935E+00
         21   -1    0    0  503  502  0.00000000000E+00  0.00000000000E+00  0.28028516476E+03  0.28028516476E+03  0.00000000000E+00 0. -1.
          2   -1    0    0  504    0 -0.00000000000E+00 -0.00000000000E+00 -0.11997297745E+04  0.11997297745E+04  0.00000000000E+00 0. -1.
         21    1    1    2  503  501 -0.85464661222E+02 -0.20132200326E+02  0.79850041005E+02  0.11868252970E+03  0.00000000000E+00 0. -1.
         21    1    1    2  504  505 -0.31159176039E+02 -0.91507622977E+01 -0.84241805708E+03  0.84304377917E+03  0.00000000000E+00 0. -1.
         21    1    1    2  505  502  0.52127937815E+02  0.12853639045E+03  0.14098052253E+03  0.19777369214E+03  0.00000000000E+00 0. -1.
          2    1    1    2  501    0  0.64495899446E+02 -0.99253427827E+02 -0.29785711622E+03  0.32051493829E+03  0.00000000000E+00 0. -1.
<scales pt_clust_3="89.56752" pt_clust_4="32.47508" pt_clust_5="113.09996" pt_clust_6="14000.00000"></scales>
<clustering>
<clus scale="   32.475">  2  4  1 -1</clus>
<clus scale="   89.568">  1  3  2 -1</clus>
<clus scale="  113.100">  1  5  2 -1</clus>
<clus scale="   89.568">  1  3  2 -1</clus>
</clustering>
</event>
<event>
 6    0  0.1631680E+002  0.7286406E+02  0.7546771E-02  0.1350616E+00
         21   -1    0    0  505  502  0.00000000000E+00  0.00000000000E+00  0.16773367279E+02  0.16773367279E+02  0.00000000000E+00 0.  1.
          2   -1    0    0  503    0 -0.00000000000E+00 -0.00000000000E+00 -0.16732293217E+04  0.16732293217E+04  0.00000000000E+00 0.  1.
         21    1    1    2  503  504  0.55117533015E+02  0.34692609833E+01 -0.20364586348E+03  0.21100145955E+03  0.00000000000E+00 0.  1.
         21    1    1    2  504  502 -0.11125995153E+02  0.43991412753E+02 -0.51625701141E+02  0.68733144715E+02  0.00000000000E+00 0.  1.
         21    1    1    2  505  501 -0.21308641698E+02  0.47364221486E+02 -0.27430145198E+03  0.27917506021E+03  0.00000000000E+00 0.  1.
          2    1    1    2  501    0 -0.22682896164E+02 -0.94824895222E+02 -0.11268829378E+04  0.11310930245E+04  0.00000000000E+00 0.  1.
<scales pt_clust_3="55.22683" pt_clust_4="45.37656" pt_clust_5="72.86406" pt_clust_6="14000.00000"></scales>
<clustering>
<clus scale="   45.377">  1  4  2 -1</clus>
<clus scale="   55.227">  1  3  2 -1</clus>
<clus scale="   72.864">  1  5  2 -1</clus>
<clus scale="   45.377">  1  3  2 -1</clus>
</clustering>
</event>
<event>
 6    0  0.1631680E+002  0.8777936E+02  0.7546771E-02  0.1308320E+00
          2   -1    0    0  504    0 -0.00000000000E+00  0.00000000000E+00  0.45257342507E+04  0.45257342507E+04  0.00000000000E+00 0. -1.
         21   -1    0    0  503  502  0.00000000000E+00 -0.00000000000E+00 -0.17331502049E+03  0.17331502049E+03  0.00000000000E+00 0. -1.
         21    1    1    2  503  505  0.57341163513E+02 -0.42925741545E+02 -0.13044759748E+03  0.14881936705E+03  0.00000000000E+00 0. -1.
         21    1    1    2  504  502 -0.65309736452E+02  0.21528212458E+02  0.39550178249E+03  0.40143553101E+03  0.00000000000E+00 0. -1.
         21    1    1    2  505  501 -0.12719828782E+03  0.75809433332E+02  0.15730985132E+03  0.21603903335E+03  0.00000000000E+00 0. -1.
          2    1    1    2  501    0  0.13516686076E+03 -0.54411904244E+02  0.39300551939E+04  0.39327553398E+04  0.00000000000E+00 0. -1.
<scales pt_clust_3="71.48334" pt_clust_4="68.76646" pt_clust_5="87.77936" pt_clust_6="14000.00000"></scales>
<clustering>
<clus scale="   68.766">  1  4  2 -1</clus>
<clus scale="   71.483">  2  3  1 -1</clus>
<clus scale="   87.779">  2  5  1 -1</clus>
<clus scale="   71.483">  2  3  1 -1</clus>
</clustering>
</event>
<event>
 6    0  0.1631680E+002  0.9349748E+02  0.7546771E-02  0.1294596E+00
         21   -1    0    0  504  502  0.00000000000E+00  0.00000000000E+00  0.12895327929E+04  0.12895327929E+04  0.00000000000E+00 0.  1.
          2   -1    0    0  503    0 -0.00000000000E+00 -0.00000000000E+00 -0.49630673309E+03  0.49630673309E+03  0.00000000000E+00 0. -1.
         21    1    1    2  503  505  0.31449323629E+02  0.79103928075E+01 -0.39077905595E+03  0.39212230852E+03  0.00000000000E+00 0.  1.
         21    1    1    2  504  501  0.50338124579E+02 -0.79441268294E+02  0.11830690902E+04  0.11868012951E+04  0.00000000000E+00 0.  1.
         21    1    1    2  505  502 -0.66395578301E+02  0.23045062083E+01  0.77819048772E+02  0.10232051563E+03  0.00000000000E+00 0.  1.
          2    1    1    2  501    0 -0.15391869906E+02  0.69226369279E+02 -0.76883023172E+02  0.10459540676E+03  0.00000000000E+00 0. -1.
<scales pt_clust_3="32.42891" pt_clust_4="14000.00000" pt_clust_5="62.80428" pt_clust_6="93.49748"></scales>
<clustering>
<clus scale="   32.429">  2  3  1 -1</clus>
<clus scale="   62.804">  2  5  1 -1</clus>
<clus scale="   93.497">  2  6  1 -1</clus>
<clus scale="   93.497">  1  3  2 -1</clus>
</clustering>
</event>
<event>
 6    0  0.1631680E+002  0.9674013E+02  0.7546771E-02  0.1287304E+00
         21   -1    0    0  501  502  0.00000000000E+00  0.00000000000E+00  0.88446272341E+02  0.88446272341E+02  0.00000000000E+00 0.  1.
          1   -1    0    0  505    0 -0.00000000000E+00 -0.00000000000E+00 -0.58023081014E+03  0.58023081014E+03  0.00000000000E+00 0. -1.
         21    1    1    2  503  502 -0.44412094532E+01  0.38749053165E+02  0.18209857133E+02  0.43044306934E+02  0.00000000000E+00 0.  1.
         21    1    1    2  504  503 -0.91849853664E+02 -0.52613556999E+01  0.84303435734E+01  0.92385865665E+02  0.00000000000E+00 0.  1.
         21    1    1    2  505  504  0.30458761077E+02  0.21880122187E+02 -0.12380747662E+03  0.12936292799E+03  0.00000000000E+00 0.  1.
          1    1    1    2  501    0  0.65832302040E+02 -0.55367819653E+02 -0.39461726189E+03  0.40388398189E+03  0.00000000000E+00 0. -1.
<scales pt_clust_3="39.51298" pt_clust_4="14000.00000" pt_clust_5="37.50301" pt_clust_6="96.74013"></scales>
<clustering>
<clus scale="   37.503">  2  5  1 -1</clus>
<clus scale="   39.513">  1  3  2 -1</clus>
<clus scale="   96.740">  2  6  1 -1</clus>
<clus scale="   39.513">  1  3  2 -1</clus>
</clustering>
</event>
<event>
 6    0  0.1631680E+002  0.8209220E+02  0.7546771E-02  0.1323217E+00
         21   -1    0    0  505  502  0.00000000000E+00  0.00000000000E+00  0.18199383338E+03  0.18199383338E+03  0.00000000000E+00 0.  1.
          2   -1    0    0  504    0 -0.00000000000E+00 -0.00000000000E+00 -0.38483262880E+04  0.38483262880E+04  0.00000000000E+00 0. -1.
         21    1    1    2  503  502 -0.22976966410E+02 -0.54951637426E+02  0.12644971623E+03  0.13977537042E+03  0.00000000000E+00 0.  1.
         21    1    1    2  504  503 -0.78317606605E+02  0.66960193117E+01  0.73172524089E+01  0.78943184390E+02  0.00000000000E+00 0. -1.
         21    1    1    2  505  501  0.25767987289E+02  0.15749872088E+02 -0.37703940796E+02  0.48307709440E+02  0.00000000000E+00 0.  1.
          2    1    1    2  501    0  0.75526585725E+02  0.32505746026E+02 -0.37623954824E+04  0.37632938571E+04  0.00000000000E+00 0. -1.
<scales pt_clust_3="43.23351" pt_clust_4="82.09220" pt_clust_5="30.20013" pt_clust_6="14000.00000"></scales>
<clustering>
<clus scale="   30.200">  1  5  2 -1</clus>
<clus scale="   43.234">  1  3  2 -1</clus>
<clus scale="   82.092">  1  4  2 -1</clus>
<clus scale="   30.200">  1  3  2 -1</clus>
</clustering>
</event>
<event>
 6    0  0.1631680E+002  0.1414346E+03  0.7546771E-02  0.1211412E+00
          3   -1    0    0  504    0 -0.00000000000E+00  0.00000000000E+00  0.14906006598E+03  0.14906006598E+03  0.00000000000E+00 0.  1.
         21   -1    0    0  503  502  0.00000000000E+00 -0.00000000000E+00 -0.88430254841E+03  0.88430254841E+03  0.00000000000E+00 0.  1.
         21    1    1    2  503  501  0.14383784138E+03  0.23408734256E+02 -0.74706271469E+03  0.76114387150E+03  0.00000000000E+00 0.  1.
         21    1    1    2  504  505 -0.20048047264E+02  0.40116573679E+02  0.43172427412E+02  0.62250479287E+02  0.00000000000E+00 0. -1.
         21    1    1    2  505  502 -0.30008770199E+02 -0.56525987229E+02 -0.81314524544E+02  0.10347833311E+03  0.00000000000E+00 0.  1.
          3    1    1    2  501    0 -0.93781023912E+02 -0.69993207067E+01  0.49962329390E+02  0.10648993048E+03  0.00000000000E+00 0.  1.
<scales pt_clust_3="141.43458" pt_clust_4="44.84711" pt_clust_5="61.14798" pt_clust_6="14000.00000"></scales>
<clustering>
<clus scale="   44.847">  1  4  2 -1</clus>
<clus scale="   61.148">  1  5  2 -1</clus>
<clus scale="  141.435">  2  3  1 -1</clus>
<clus scale="  141.435">  2  3  1 -1</clus>
</clustering>
</event>
<event>
 6    0  0.1631680E+002  0.8009859E+02  0.7546771E-02  0.1328772E+00
         21   -1    0    0  501  502  0.00000000000E+00  0.00000000000E+00  0.85525955001E+03  0.85525955001E+03  0.00000000000E+00 0. -1.
          2   -1    0    0  504    0 -0.00000000000E+00 -0.00000000000E+00 -0.20221385571E+04  0.20221385571E+04  0.00000000000E+00 0.  1.
         21    1    1    2  503  505  0.81249202179E+01 -0.12906889155E+03  0.18193558532E+03  0.22321592752E+03  0.00000000000E+00 0.  1.
         21    1    1    2  504  503  0.30672187334E+02  0.80935679396E+01 -0.38844715198E+03  0.38974027095E+03  0.00000000000E+00 0. -1.
         21    1    1    2  505  502 -0.42934561576E+02  0.56934673253E+02  0.64944637623E+03  0.65334946942E+03  0.00000000000E+00 0. -1.
          2    1    1    2  501    0  0.41374540236E+01  0.64040650357E+02 -0.16098138166E+04  0.16110924392E+04  0.00000000000E+00 0.  1.
<scales pt_clust_3="14000.00000" pt_clust_4="31.72206" pt_clust_5="71.29438" pt_clust_6="80.09859"></scales>
<clustering>
<clus scale="   31.722">  2  4  1 -1</clus>
<clus scale="   71.294">  1  5  2 -1</clus>
<clus scale="   80.099">  2  6  1 -1</clus>
<clus scale="   71.294">  1  3  2 -1</clus>
</clustering>
</event>
<event>
 6    0  0.1631680E+002  0.9685044E+02  0.7546771E-02  0.1287062E+00
         21   -1    0    0  501  502  0.00000000000E+00  0.00000000000E+00  0.63351132628E+02  0.63351132628E+02  0.00000000000E+00 0. -1.
          2   -1    0    0  503    0 -0.00000000000E+00 -0.00000000000E+00 -0.11863557500E+04  0.11863557500E+04  0.00000000000E+00 0. -1.
         21    1    1    2  503  504  0.27783511608E+02 -0.40696913985E+02 -0.37617953453E+03  0.37939320569E+03  0.00000000000E+00 0. -1.
         21    1    1    2  504  505 -0.39275184855E+02 -0.33078990845E+02  0.68439686683E+00  0.51353949992E+02  0.00000000000E+00 0. -1.
         21    1    1    2  505  502  0.32510582717E+01 -0.42709752907E+02  0.16630313755E+02  0.45948446207E+02  0.00000000000E+00 0. -1.
          2    1    1    2  501    0  0.82406149747E+01  0.11648565774E+03 -0.76413979348E+03  0.77301128076E+03  0.00000000000E+00 0. -1.
<scales pt_clust_3="49.27639" pt_clust_4="42.11473" pt_clust_5="42.11473" pt_clust_6="85.16878"></scales>
<clustering>
<clus scale="   42.115">  4  5 -1 -1</clus>
<clus scale="   49.276">  2  3  1 -1</clus>
<clus scale="   85.169">  2  6  1 -1</clus>
<clus scale="   96.850">  1  3  2 -1</clus>
</clustering>
</event>
<event>
 6    0  0.1631680E+002  0.8252300E+02  0.7546771E-02  0.1322040E+00
         21   -1    0    0  504  502  0.00000000000E+00  0.00000000000E+00  0.59482143805E+02  0.59482143805E+02  0.00000000000E+00 0. -1.
          2   -1    0    0  505    0 -0.00000000000E+00 -0.00000000000E+00 -0.25576569826E+04  0.25576569826E+04  0.00000000000E+00 0. -1.
         21    1    1    2  503  502 -0.39954311543E+02 -0.22482310511E+02 -0.11787953576E+03  0.12648077422E+03  0.00000000000E+00 0. -1.
         21    1    1    2  504  501  0.12394263992E+03  0.53749664580E+02 -0.31804440104E+02  0.13878878500E+03  0.00000000000E+00 0. -1.
         21    1    1    2  505  503 -0.54918090915E+02  0.11227467316E+02 -0.59792505083E+03  0.60054676683E+03  0.00000000000E+00 0. -1.
          2    1    1    2  501    0 -0.29070237460E+02 -0.42494821386E+02 -0.17505658121E+04  0.17513228004E+04  0.00000000000E+00 0. -1.
<scales pt_clust_3="45.84541" pt_clust_4="82.52300" pt_clust_5="14000.00000" pt_clust_6="51.76898"></scales>
<clustering>
<clus scale="   45.845">  1  3  2 -1</clus>
<clus scale="   51.769">  2  6  1 -1</clus>
<clus scale="   82.523">  1  4  2 -1</clus>
<clus scale="   45.845">  1  3  2 -1</clus>
</clustering>
</event>
<event>
 6    0  0.1631680E+002  0.1368468E+03  0.7546771E-02  0.1217636E+00
          1   -1    0    0  505    0 -0.00000000000E+00  0.00000000000E+00  0.17819502913E+04  0.17819502913E+04  0.00000000000E+00 0. -1.
         21   -1    0    0  503  502  0.00000000000E+00 -0.00000000000E+00 -0.13675749719E+03  0.13675749719E+03  0.00000000000E+00 0. -1.
         21    1    1    2  503  504  0.77563656199E+02 -0.33838241021E+02  0.60983387892E+01  0.84843014175E+02  0.00000000000E+00 0.  1.
         21    1    1    2  504  501 -0.16173635435E+03  0.14297917117E+03  0.31309973295E+02  0.21813300102E+03  0.00000000000E+00 0. -1.
         21    1    1    2  505  502  0.56173995146E+02 -0.10390449150E+02  0.52932921723E+03  0.53240294832E+03  0.00000000000E+00 0.  1.
          1    1    1    2  501    0  0.27998703002E+02 -0.98750481003E+02  0.10784552648E+04  0.10833288249E+04  0.00000000000E+00 0. -1.
<scales pt_clust_3="86.64716" pt_clust_4="14000.00000" pt_clust_5="57.12687" pt_clust_6="136.84681"></scales>
<clustering>
<clus scale="   57.127">  1  5  2 -1</clus>
<clus scale="   86.647">  2  3  1 -1</clus>
<clus scale="  136.847">  1  6  2 -1</clus>
<clus scale="   86.647">  2  3  1 -1</clus>
</clustering>
</event>
<event>
 6    0  0.1631680E+002  0.1012043E+03  0.7546771E-02  0.1277784E+00
         21   -1    0    0  504  502  0.00000000000E+00  0.00000000000E+00  0.28345316470E+03  0.28345316470E+03  0.00000000000E+00 0.  1.
          1   -1    0    0  502    0 -0.00000000000E+00 -0.00000000000E+00 -0.29178834912E+03  0.29178834912E+03  0.00000000000E+00 0. -1.
         21    1    1    2  503  505  0.27409766993E+02  0.22455734962E+02  0.13607585065E+03  0.14061362839E+03  0.00000000000E+00 0.  1.
         21    1    1    2  504  503 -0.55369489657E+01  0.34915691150E+02  0.10043593893E+03  0.10647601195E+03  0.00000000000E+00 0.  1.
         21    1    1    2  505  501  0.60203642923E+02  0.32872338737E+02 -0.18528956530E+02  0.71052033787E+02  0.00000000000E+00 0.  1.
          1    1    1    2  501    0 -0.82076460950E+02 -0.90243764849E+02 -0.22631801747E+03  0.25709983969E+03  0.00000000000E+00 0. -1.
<scales pt_clust_3="54.45903" pt_clust_4="35.35199" pt_clust_5="101.20428" pt_clust_6="14000.00000"></scales>
<clustering>
<clus scale="   35.352">  1  4  2 -1</clus>
<clus scale="   54.459">  1  3  2 -1</clus>
<clus scale="  101.204">  1  5  2 -1</clus>
<clus scale="   35.352">  1  3  2 -1</clus>
</clustering>
</event>
<event>
 6    0  0.1631680E+002  0.2433297E+03  0.7546771E-02  0.1117594E+00
         21   -1    0    0  503  502  0.00000000000E+00  0.00000000000E+00  0.32685200027E+03  0.32685200027E+03  0.00000000000E+00 0.  1.
          1   -1    0    0  505    0 -0.00000000000E+00 -0.00000000000E+00 -0.10091002819E+04  0.10091002819E+04  0.00000000000E+00 0.  1.
         21    1    1    2  503  504 -0.44083508594E+02 -0.13924761890E+03  0.17008354828E+03  0.22419114277E+03  0.00000000000E+00 0.  1.
         21    1    1    2  504  501 -0.80022800660E+02 -0.51838537409E+02  0.76906339563E+02  0.12249680670E+03  0.00000000000E+00 0.  1.
         21    1    1    2  505  502 -0.29217193593E+02  0.18740423469E+02 -0.50647455618E+03  0.50766260837E+03  0.00000000000E+00 0.  1.
          1    1    1    2  501    0  0.15332350285E+03  0.17234573284E+03 -0.42276361326E+03  0.48160172430E+03  0.00000000000E+00 0.  1.
<scales pt_clust_3="69.25194" pt_clust_4="69.25194" pt_clust_5="34.71092" pt_clust_6="227.89715"></scales>
<clustering>
<clus scale="   34.711">  2  5  1 -1</clus>
<clus scale="   69.252">  3  4 -1 -1</clus>
<clus scale="  227.897">  2  6  1 -1</clus>
<clus scale="  243.330">  1  3  2 -1</clus>
</clustering>
</event>
<event>
 6    0  0.1631680E+002  0.9009090E+02  0.7546771E-02  0.1302632E+00
         21   -1    0    0  503  502  0.00000000000E+00  0.00000000000E+00  0.54806868412E+03  0.54806868412E+03  0.00000000000E+00 0.  1.
          1   -1    0    0  504    0 -0.00000000000E+00 -0.00000000000E+00 -0.64264119196E+02  0.64264119196E+02  0.00000000000E+00 0.  1.
         21    1    1    2  503  501  0.15203364939E+01 -0.38608744731E+02  0.51101152391E+02  0.64064610890E+02  0.00000000000E+00 0.  1.
         21    1    1    2  504  505  0.65496176970E+02  0.52048732640E+02  0.10250485403E+02  0.84284590633E+02  0.00000000000E+00 0.  1.
         21    1    1    2  505  502  0.36658823508E+02  0.46979624527E+02  0.22650669814E+03  0.23421408745E+03  0.00000000000E+00 0.  1.
          1    1    1    2  501    0 -0.10367533697E+03 -0.60419612435E+02  0.19594622899E+03  0.22976951434E+03  0.00000000000E+00 0.  1.
<scales pt_clust_3="38.63867" pt_clust_4="90.09090" pt_clust_5="47.21085" pt_clust_6="14000.00000"></scales>
<clustering>
<clus scale="   38.639">  1  3  2 -1</clus>
<clus scale="   47.211">  1  5  2 -1</clus>
<clus scale="   90.091">  2  4  1 -1</clus>
<clus scale="   38.639">  1  3  2 -1</clus>
</clustering>
</event>
<event>
 6    0  0.1631680E+002  0.1587580E+03  0.7546771E-02  0.1190106E+00
          2   -1    0    0  505    0 -0.00000000000E+00  0.00000000000E+00  0.29535017521E+04  0.29535017521E+04  0.00000000000E+00 0. -1.
         21   -1    0    0  501  502  0.00000000000E+00 -0.00000000000E+00 -0.48823108145E+03  0.48823108145E+03  0.00000000000E+00 0. -1.
         21    1    1    2  503  502  0.37232210515E+02 -0.26372115623E+02 -0.16248553610E+03  0.16876988897E+03  0.00000000000E+00 0. -1.
         21    1    1    2  504  503  0.23330004503E+02 -0.11052781179E+03 -0.30855359301E+03  0.32858181029E+03  0.00000000000E+00 0. -1.
         21    1    1    2  505  504  0.13339005247E+02  0.64991388442E+02  0.21874278314E+04  0.21884337612E+04  0.00000000000E+00 0. -1.
          2    1    1    2  501    0 -0.73901220265E+02  0.71908538974E+02  0.74888196835E+03  0.75594737307E+03  0.00000000000E+00 0. -1.
<scales pt_clust_3="35.22177" pt_clust_4="35.22177" pt_clust_5="66.34614" pt_clust_6="148.77042"></scales>
<clustering>
<clus scale="   35.222">  3  4 -1 -1</clus>
<clus scale="   66.346">  1  5  2 -1</clus>
<clus scale="  148.770">  1  6  2 -1</clus>
<clus scale="  158.758">  2  3  1 -1</clus>
</clustering>
</event>
<event>
 6    0  0.1631680E+002  0.9925479E+02  0.7546771E-02  0.1281871E+00
          2   -1    0    0  503    0 -0.00000000000E+00  0.00000000000E+00  0.29149460253E+03  0.29149460253E+03  0.00000000000E+00 0. -1.
         21   -1    0    0  501  502  0.00000000000E+00 -0.00000000000E+00 -0.32856719931E+03  0.32856719931E+03  0.00000000000E+00 0.  1.
         21    1    1    2  503  504 -0.47448422211E+02  0.21528185100E+02  0.50687817624E+02  0.72691611480E+02  0.00000000000E+00 0.  1.
         21    1    1    2  504  505  0.85005515410E+02  0.15897627191E+02 -0.76791360053E+02  0.11565286499E+03  0.00000000000E+00 0.  1.
         21    1    1    2  505  502  0.18706009304E+02 -0.60827804189E+02 -0.21216094696E+03  0.22149989608E+03  0.00000000000E+00 0.  1.
          2    1    1    2  501    0 -0.56263102503E+02  0.23401991898E+02  0.20119189261E+03  0.21021742930E+03  0.00000000000E+00 0. -1.
<scales pt_clust_3="52.10389" pt_clust_4="14000.00000" pt_clust_5="62.94260" pt_clust_6="99.25479"></scales>
<clustering>
<clus scale="   52.104">  1  3  2 -1</clus>
<clus scale="   62.943">  2  5  1 -1</clus>
<clus scale="   99.255">  1  6  2 -1</clus>
<clus scale="   62.943">  2  3  1 -1</clus>
</clustering>
</event>
<event>
 6    0  0.1631680E+002  0.1303187E+03  0.7546771E-02  0.1226984E+00
         -1   -1    0    0    0  501 -0.00000000000E+00  0.00000000000E+00  0.13111521920E+04  0.13111521920E+04  0.00000000000E+00 0.  1.
         21   -1    0    0  505  502  0.00000000000E+00 -0.00000000000E+00 -0.87739793349E+02  0.87739793349E+02  0.00000000000E+00 0.  1.
         21    1    1    2  503  501  0.38167985514E+02  0.13285639609E+02  0.32252628921E+03  0.32504847418E+03  0.00000000000E+00 0.  1.
         21    1    1    2  504  503  0.66383868914E+02  0.14552102631E+03  0.21563088642E+02  0.16139440493E+03  0.00000000000E+00 0.  1.
         21    1    1    2  505  504 -0.19618673756E+02 -0.30573748371E+02  0.24307470966E+02  0.43709262109E+02  0.00000000000E+00 0.  1.
         -1    1    1    2    0  502 -0.84933180672E+02 -0.12823291755E+03  0.85501554986E+03  0.86873984415E+03  0.00000000000E+00 0.  1.
<scales pt_clust_3="39.95396" pt_clust_4="130.31867" pt_clust_5="36.32694" pt_clust_6="14000.00000"></scales>
<clustering>
<clus scale="   36.327">  2  5  1 -1</clus>
<clus scale="   39.954">  1  3  2 -1</clus>
<clus scale="  130.319">  2  4  1 -1</clus>
<clus scale="   36.327">  2  3  1 -1</clus>
</clustering>
</event>
<event>
 6    0  0.1631680E+002  0.4113717E+03  0.7546771E-02  0.1039912E+00
          2   -1    0    0  503    0 -0.00000000000E+00  0.00000000000E+00  0.18837765261E+04  0.18837765261E+04  0.00000000000E+00 0.  1.
         21   -1    0    0  501  502  0.00000000000E+00 -0.00000000000E+00 -0.12622026108E+03  0.12622026108E+03  0.00000000000E+00 0. -1.
         21    1    1    2  503  504 -0.33356131145E+02  0.36867226841E+01  0.20225773925E+03  0.20502296577E+03  0.00000000000E+00 0.  1.
         21    1    1    2  504  505  0.25172068175E+02 -0.34153456844E+03  0.34058385582E+03  0.48298742976E+03  0.00000000000E+00 0. -1.
         21    1    1    2  505  502 -0.19775482775E+02 -0.61838102442E+02  0.30312916046E+02  0.71651193373E+02  0.00000000000E+00 0. -1.
          2    1    1    2  501    0  0.27959545744E+02  0.39968594820E+03  0.11844017539E+04  0.12503351983E+04  0.00000000000E+00 0.  1.
<scales pt_clust_3="33.55925" pt_clust_4="37.39133" pt_clust_5="37.39133" pt_clust_6="402.37508"></scales>
<clustering>
<clus scale="   33.559">  1  3  2 -1</clus>
<clus scale="   37.391">  4  5 -1 -1</clus>
<clus scale="  402.375">  1  6  2 -1</clus>
<clus scale="  411.372">  2  3  1 -1</clus>
</clustering>
</event>
<event>
 6    0  0.1631680E+002  0.1276981E+03  0.7546771E-02  0.1230912E+00
         21   -1    0    0  501  502  0.00000000000E+00  0.00000000000E+00  0.38033173395E+03  0.38033173395E+03  0.00000000000E+00 0.  1.
          2   -1    0    0  503    0 -0.00000000000E+00 -0.00000000000E+00 -0.19096083413E+04  0.19096083413E+04  0.00000000000E+00 0.  1.
         21    1    1    2  503  505  0.24424112711E-01 -0.30735321678E+02 -0.55845688316E+03  0.55930202122E+03  0.00000000000E+00 0.  1.
         21    1    1    2  504  502  0.11234859038E+03 -0.61513421199E+02  0.35422196278E+03  0.37666869483E+03  0.00000000000E+00 0.  1.
         21    1    1    2  505  504 -0.51854937382E+02  0.28530429826E+02 -0.54699517060E+02  0.80591296823E+02  0.00000000000E+00 0.  1.
          2    1    1    2  501    0 -0.60518077107E+02  0.63718313051E+02 -0.12703421699E+04  0.12733780623E+04  0.00000000000E+00 0.  1.
<scales pt_clust_3="30.73533" pt_clust_4="14000.00000" pt_clust_5="58.45795" pt_clust_6="127.69814"></scales>
<clustering>
<clus scale="   30.735">  2  3  1 -1</clus>
<clus scale="   58.458">  2  5  1 -1</clus>
<clus scale="  127.698">  2  6  1 -1</clus>
<clus scale="  127.698">  1  3  2 -1</clus>
</clustering>
</event>
<event>
 6    0  0.1631680E+002  0.2096937E+03  0.7546771E-02  0.1141809E+00
          1   -1    0    0  505    0 -0.00000000000E+00  0.00000000000E+00  0.25388892063E+04  0.25388892063E+04  0.00000000000E+00 0. -1.
         21   -1    0    0  501  502  0.00000000000E+00 -0.00000000000E+00 -0.24198074645E+04  0.24198074645E+04  0.00000000000E+00 0. -1.
         21    1    1    2  503  504 -0.10674780042E+03  0.13051295957E+03 -0.11999725978E+04  0.12117602737E+04  0.00000000000E+00 0. -1.
         21    1    1    2  504  502 -0.10689954011E+02  0.43907254701E+02 -0.12068186706E+04  0.12076644509E+04  0.00000000000E+00 0. -1.
         21    1    1    2  505  503 -0.27686386474E+02 -0.86313360175E+02  0.91179396478E+03  0.91628858246E+03  0.00000000000E+00 0. -1.
          1    1    1    2  501    0  0.14512414091E+03 -0.88106854092E+02  0.16140790455E+04  0.16229833638E+04  0.00000000000E+00 0. -1.
<scales pt_clust_3="209.69369" pt_clust_4="45.18985" pt_clust_5="90.57366" pt_clust_6="14000.00000"></scales>
<clustering>
<clus scale="   45.190">  2  4  1 -1</clus>
<clus scale="   90.574">  1  5  2 -1</clus>
<clus scale="  209.694">  2  3  1 -1</clus>
<clus scale="   45.190">  2  3  1 -1</clus>
</clustering>
</event>
<event>
 6    0  0.1631680E+002  0.1170556E+03  0.7546771E-02  0.1248035E+00
         21   -1    0    0  504  502  0.00000000000E+00  0.00000000000E+00  0.50938678063E+02  0.50938678063E+02  0.00000000000E+00 0.  1.
          2   -1    0    0  505    0 -0.00000000000E+00 -0.00000000000E+00 -0.86692109085E+03  0.86692109085E+03  0.00000000000E+00 0. -1.
         21    1    1    2  503  502 -0.11458910683E+03  0.37456831612E+02 -0.71576043741E+02  0.14020273776E+03  0.00000000000E+00 0.  1.
         21    1    1    2  504  501  0.26888315490E+02  0.28170258535E+02 -0.69387734822E+02  0.79568855211E+02  0.00000000000E+00 0.  1.
         21    1    1    2  505  503 -0.21780393100E+02  0.22698117727E+02 -0.67115315727E+02  0.74121897420E+02  0.00000000000E+00 0.  1.
          2    1    1    2  501    0  0.10948118444E+03 -0.88325207874E+02 -0.60790331850E+03  0.62396627853E+03  0.00000000000E+00 0. -1.
<scales pt_clust_3="117.05562" pt_clust_4="39.18240" pt_clust_5="31.45775" pt_clust_6="14000.00000"></scales>
<clustering>
<clus scale="   31.458">  2  5  1 -1</clus>
<clus scale="   39.182">  1  4  2 -1</clus>
<clus scale="  117.056">  1  3  2 -1</clus>
<clus scale="   39.182">  1  3  2 -1</clus>
</clustering>
</event>
<event>
 6    0  0.1631680E+002  0.9888853E+02  0.7546771E-02  0.1282651E+00
          3   -1    0    0  504    0 -0.00000000000E+00  0.00000000000E+00  0.53329741730E+03  0.53329741730E+03  0.00000000000E+00 0. -1.
         21   -1    0    0  505  502  0.00000000000E+00 -0.00000000000E+00 -0.14578056011E+03  0.14578056011E+03  0.00000000000E+00 0. -1.
         21    1    1    2  503  502  0.52746297388E+00 -0.74154283623E+02 -0.67540574780E+02  0.10030386452E+03  0.00000000000E+00 0. -1.
         21    1    1    2  504  503 -0.28298131968E+02 -0.16829976851E+02  0.55731951958E+02  0.64730849390E+02  0.00000000000E+00 0.  1.
         21    1    1    2  505  501  0.95260754222E+02  0.26950228700E+02 -0.50260167323E+01  0.99127125280E+02  0.00000000000E+00 0. -1.
          3    1    1    2  501    0 -0.67490085228E+02  0.64034031774E+02  0.40435149674E+03  0.41491613821E+03  0.00000000000E+00 0. -1.
<scales pt_clust_3="74.73845" pt_clust_4="32.92465" pt_clust_5="14000.00000" pt_clust_6="98.88853"></scales>
<clustering>
<clus scale="   32.925">  1  4  2 -1</clus>
<clus scale="   74.738">  2  3  1 -1</clus>
<clus scale="   98.889">  1  6  2 -1</clus>
<clus scale="   74.738">  2  3  1 -1</clus>
</clustering>
</event>
<event>
 6    0  0.1631680E+002  0.1274543E+03  0.7546771E-02  0.1231283E+00
         21   -1    0    0  503  502  0.00000000000E+00  0.00000000000E+00  0.61302254465E+03  0.61302254465E+03  0.00000000000E+00 0. -1.
         -3   -1    0    0    0  501 -0.00000000000E+00 -0.00000000000E+00 -0.23424052813E+03  0.23424052813E+03  0.00000000000E+00 0. -1.
         21    1    1    2  503  505 -0.21254329608E+02  0.32708857119E+02  0.12288961953E+03  0.12893205361E+03  0.00000000000E+00 0. -1.
         21    1    1    2  504  502  0.36265276518E+02  0.18893188575E+02  0.37789664286E+03  0.38010261186E+03  0.00000000000E+00 0. -1.
         21    1    1    2  505  501 -0.43848512957E+02  0.82792597480E+02  0.59174040162E+02  0.11081007768E+03  0.00000000000E+00 0. -1.
         -3    1    1    2    0  504  0.28837566047E+02 -0.13439464317E+03 -0.18117828602E+03  0.22741832964E+03  0.00000000000E+00 0. -1.
<scales pt_clust_3="39.00789" pt_clust_4="48.53307" pt_clust_5="14000.00000" pt_clust_6="127.45431"></scales>
<clustering>
<clus scale="   39.008">  1  3  2 -1</clus>
<clus scale="   48.533">  1  4  2 -1</clus>
<clus scale="  127.454">  2  6  1 -1</clus>
<clus scale="   39.008">  1  3  2 -1</clus>
</clustering>
</event>
<event>
 6    0  0.1631680E+002  0.1263531E+03  0.7546771E-02  0.1232970E+00
          1   -1    0    0  505    0 -0.00000000000E+00  0.00000000000E+00  0.12189662161E+04  0.12189662161E+04  0.00000000000E+00 0.  1.
         21   -1    0    0  501  502  0.00000000000E+00 -0.00000000000E+00 -0.15579611789E+04  0.15579611789E+04  0.00000000000E+00 0.  1.
         21    1    1    2  503  504 -0.93610845323E+02 -0.34886645766E+02 -0.10251223076E+03  0.14313918356E+03  0.00000000000E+00 0.  1.
         21    1    1    2  504  502 -0.32892896004E+02  0.76982013482E+01 -0.14270763235E+04  0.14274761077E+04  0.00000000000E+00 0.  1.
         21    1    1    2  505  503  0.89357379785E+02  0.69150031154E+01  0.11229551106E+04  0.11265259602E+04  0.00000000000E+00 0.  1.
          1    1    1    2  501    0  0.37146361542E+02  0.20273441303E+02  0.67638480843E+02  0.79786143463E+02  0.00000000000E+00 0.  1.
<scales pt_clust_3="126.35313" pt_clust_4="33.78172" pt_clust_5="14000.00000" pt_clust_6="41.16140"></scales>
<clustering>
<clus scale="   33.782">  2  4  1 -1</clus>
<clus scale="   41.161">  1  6  2 -1</clus>
<clus scale="  126.353">  2  3  1 -1</clus>
<clus scale="   33.782">  2  3  1 -1</clus>
</clustering>
</event>
<event>
 6    0  0.1631680E+002  0.1028470E+03  0.7546771E-02  0.1274421E+00
          2   -1    0    0  505    0 -0.00000000000E+00  0.00000000000E+00  0.27166853272E+04  0.27166853272E+04  0.00000000000E+00 0. -1.
         21   -1    0    0  504  502  0.00000000000E+00 -0.00000000000E+00 -0.63330826719E+02  0.63330826719E+02  0.00000000000E+00 0. -1.
         21    1    1    2  503  502 -0.12767430260E+03  0.30767651640E+02  0.14190435070E+03  0.19334999529E+03  0.00000000000E+00 0. -1.
         21    1    1    2  504  501  0.32698255815E+02 -0.92051223163E+02  0.37674968193E+02  0.10469960290E+03  0.00000000000E+00 0. -1.
         21    1    1    2  505  503  0.71908183121E+02 -0.45495732402E+02  0.14190930560E+04  0.14216419204E+04  0.00000000000E+00 0. -1.
          2    1    1    2  501    0  0.23067863665E+02  0.10677930393E+03  0.10546821256E+04  0.10603246353E+04  0.00000000000E+00 0. -1.
<scales pt_clust_3="102.84695" pt_clust_4="101.40335" pt_clust_5="85.09200" pt_clust_6="14000.00000"></scales>
<clustering>
<clus scale="   85.092">  1  5  2 -1</clus>
<clus scale="  101.403">  2  4  1 -1</clus>
<clus scale="  102.847">  2  3  1 -1</clus>
<clus scale="  101.403">  2  3  1 -1</clus>
</clustering>
</event>
<event>
 6    0  0.1631680E+002  0.1231978E+03  0.7546771E-02  0.1237913E+00
         21   -1    0    0  501  502  0.00000000000E+00  0.00000000000E+00  0.85718195417E+03  0.85718195417E+03  0.00000000000E+00 0. -1.
          3   -1    0    0  505    0 -0.00000000000E+00 -0.00000000000E+00 -0.38923657816E+03  0.38923657816E+03  0.00000000000E+00 0.  1.
         21    1    1    2  503  502  0.46594618930E+01 -0.59369705822E+02  0.63375436762E+03  0.63654620495E+03  0.00000000000E+00 0. -1.
         21    1    1    2  504  503  0.75232080190E+02 -0.39908878094E+02  0.16905536241E+03  0.18929421544E+03  0.00000000000E+00 0.  1.
         21    1    1    2  505  504  0.40841806159E+02 -0.47040309397E+02 -0.59124319198E+02  0.85886721670E+02  0.00000000000E+00 0. -1.
          3    1    1    2  501    0 -0.12073334824E+03  0.14631889331E+03 -0.27574003482E+03  0.33469139027E+03  0.00000000000E+00 0.  1.
<scales pt_clust_3="59.55227" pt_clust_4="123.19775" pt_clust_5="65.21723" pt_clust_6="14000.00000"></scales>
<clustering>
<clus scale="   59.552">  1  3  2 -1</clus>
<clus scale="   65.217">  2  5  1 -1</clus>
<clus scale="  123.198">  1  4  2 -1</clus>
<clus scale="   59.552">  1  3  2 -1</clus>
</clustering>
</event>
<event>
 6    0  0.1631680E+002  0.1036997E+03  0.7546771E-02  0.1272703E+00
          2   -1    0    0  505    0 -0.00000000000E+00  0.00000000000E+00  0.19903360549E+04  0.19903360549E+04  0.00000000000E+00 0. -1.
         21   -1    0    0  503  502  0.00000000000E+00 -0.00000000000E+00 -0.23943039904E+02  0.23943039904E+02  0.00000000000E+00 0. -1.
         21    1    1    2  503  504 -0.12593193479E+02  0.31948764181E+02  0.77216764560E+02  0.84508820746E+02  0.00000000000E+00 0. -1.
         21    1    1    2  504  501  0.95630475103E+02  0.45386999076E+02  0.59512978337E+03  0.60447053402E+03  0.00000000000E+00 0. -1.
         21    1    1    2  505  502 -0.30605437120E+02  0.18911201348E+02  0.11057319792E+02  0.37637622649E+02  0.00000000000E+00 0. -1.
          2    1    1    2  501    0 -0.52431844504E+02 -0.96246964605E+02  0.12829891472E+04  0.12876621173E+04  0.00000000000E+00 0. -1.
<scales pt_clust_3="34.34111" pt_clust_4="14000.00000" pt_clust_5="55.64088" pt_clust_6="103.69973"></scales>
<clustering>
<clus scale="   34.341">  2  3  1 -1</clus>
<clus scale="   55.641">  2  5  1 -1</clus>
<clus scale="  103.700">  1  6  2 -1</clus>
<clus scale="   34.341">  2  3  1 -1</clus>
</clustering>
</event>
<event>
 6    0  0.1631680E+002  0.1141434E+03  0.7546771E-02  0.1253084E+00
         -1   -1    0    0    0  501 -0.00000000000E+00  0.00000000000E+00  0.57853853289E+03  0.57853853289E+03  0.00000000000E+00 0.  1.
         21   -1    0    0  505  502  0.00000000000E+00 -0.00000000000E+00 -0.31301833931E+03  0.31301833931E+03  0.00000000000E+00 0.  1.
         21    1    1    2  503  502  0.27196184756E+02  0.27014398427E+02 -0.77077054458E+02  0.86082997808E+02  0.00000000000E+00 0.  1.
         21    1    1    2  504  501 -0.21862760077E+02 -0.73187039073E+02 -0.48221166619E+02  0.90330525718E+02  0.00000000000E+00 0. -1.
         21    1    1    2  505  504 -0.26443622935E+02 -0.69567891590E+02 -0.14691478522E+03  0.16469034838E+03  0.00000000000E+00 0.  1.
         -1    1    1    2    0  503  0.21110198256E+02  0.11574053224E+03  0.53773319988E+03  0.55045300029E+03  0.00000000000E+00 0.  1.
<scales pt_clust_3="38.33289" pt_clust_4="14000.00000" pt_clust_5="52.02205" pt_clust_6="114.14340"></scales>
<clustering>
<clus scale="   38.333">  2  3  1 -1</clus>
<clus scale="   52.022">  2  5  1 -1</clus>
<clus scale="  114.143">  1  6  2 -1</clus>
<clus scale="   38.333">  2  3  1 -1</clus>
</clustering>
</event>
<event>
 6    0  0.1631680E+002  0.1476558E+03  0.7546771E-02  0.1203383E+00
         21   -1    0    0  504  502  0.00000000000E+00  0.00000000000E+00  0.80781016531E+02  0.80781016531E+02  0.00000000000E+00 0.  1.
          2   -1    0    0  503    0 -0.00000000000E+00 -0.00000000000E+00 -0.40592297780E+04  0.40592297780E+04  0.00000000000E+00 0.  1.
         21    1    1    2  503  505 -0.70734572517E+02  0.44718195541E+02 -0.24948454372E+04  0.24962485558E+04  0.00000000000E+00 0.  1.
         21    1    1    2  504  501 -0.33405035352E+02 -0.38838657785E+01  0.30907558455E+02  0.45675573011E+02  0.00000000000E+00 0.  1.
         21    1    1    2  505  502  0.32930354225E+02  0.14615978925E+03 -0.12754268582E+03  0.19675931726E+03  0.00000000000E+00 0.  1.
          2    1    1    2  501    0  0.71209253644E+02 -0.18699411901E+03 -0.13869681969E+04  0.14013273485E+04  0.00000000000E+00 0.  1.
<scales pt_clust_3="84.11717" pt_clust_4="33.63006" pt_clust_5="14000.00000" pt_clust_6="147.65578"></scales>
<clustering>
<clus scale="   33.630">  1  4  2 -1</clus>
<clus scale="   84.117">  2  3  1 -1</clus>
<clus scale="  147.656">  2  6  1 -1</clus>
<clus scale="   33.630">  1  3  2 -1</clus>
</clustering>
</event>
<event>
 6    0  0.1631680E+002  0.6544772E+02  0.7546771E-02  0.1376295E+00
          1   -1    0    0  504    0 -0.00000000000E+00  0.00000000000E+00  0.34488458941E+04  0.34488458941E+04  0.00000000000E+00 0.  1.
         21   -1    0    0  503  502  0.00000000000E+00 -0.00000000000E+00 -0.11072834326E+04  0.11072834326E+04  0.00000000000E+00 0.  1.
         21    1    1    2  503  505 -0.65289391141E+02  0.40314974589E+01 -0.10928467634E+04  0.10948027246E+04  0.00000000000E+00 0.  1.
         21    1    1    2  504  502 -0.49060153050E+02 -0.51161978408E+01  0.10837927003E+04  0.10849146009E+04  0.00000000000E+00 0.  1.
         21    1    1    2  505  501  0.74175731367E+02  0.50422563130E+02  0.14925205222E+03  0.17412825471E+03  0.00000000000E+00 0.  1.
          1    1    1    2  501    0  0.40173812824E+02 -0.49337862748E+02  0.22013644723E+04  0.22022837464E+04  0.00000000000E+00 0.  1.
<scales pt_clust_3="65.44772" pt_clust_4="49.32620" pt_clust_5="14000.00000" pt_clust_6="54.38206"></scales>
<clustering>
<clus scale="   49.326">  1  4  2 -1</clus>
<clus scale="   54.382">  1  6  2 -1</clus>
<clus scale="   65.448">  2  3  1 -1</clus>
<clus scale="   65.448">  2  3  1 -1</clus>
</clustering>
</event>
<event>
 6    0  0.2006182E+002  0.7905937E+02  0.7546771E-02  0.1331742E+00
          2   -1    0    0  503    0 -0.00000000000E+00  0.00000000000E+00  0.13073773094E+04  0.13073773094E+04  0.00000000000E+00 0. -1.
         21   -1    0    0  504  502  0.00000000000E+00 -0.00000000000E+00 -0.56748963694E+03  0.56748963694E+03  0.00000000000E+00 0. -1.
         21    1    1    2  503  505 -0.37904080643E+02 -0.11291557159E+02  0.50276942095E+02  0.63968660286E+02  0.00000000000E+00 0. -1.
         21    1    1    2  504  501 -0.92482099099E+02 -0.14020313235E+01 -0.51166744196E+03  0.51996007107E+03  0.00000000000E+00 0. -1.
         21    1    1    2  505  502  0.39266282779E+02  0.59579172629E+02 -0.12841886632E+02  0.72501260863E+02  0.00000000000E+00 0. -1.
          2    1    1    2  501    0  0.91119896962E+02 -0.46885584146E+02  0.12141200590E+04  0.12184369542E+04  0.00000000000E+00 0. -1.
<scales pt_clust_3="39.55020" pt_clust_4="79.05937" pt_clust_5="70.63488" pt_clust_6="14000.00000"></scales>
<clustering>
<clus scale="   39.550">  1  3  2 -1</clus>
<clus scale="   70.635">  2  5  1 -1</clus>
<clus scale="   79.059">  2  4  1 -1</clus>
<clus scale="   70.635">  2  3  1 -1</clus>
</clustering>
</event>
<event>
 6    0  0.1631680E+002  0.1081831E+03  0.7546771E-02  0.1263972E+00
         21   -1    0    0  505  502  0.00000000000E+00  0.00000000000E+00  0.40149626760E+03  0.40149626760E+03  0.00000000000E+00 0.  1.
         -4   -1    0    0    0  501 -0.00000000000E+00 -0.00000000000E+00 -0.13132896748E+03  0.13132896748E+03  0.00000000000E+00 0.  1.
         21    1    1    2  503  502  0.32201571017E+02  0.57848607691E+02  0.14054095649E+03  0.15535495820E+03  0.00000000000E+00 0. -1.
         21    1    1    2  504  503 -0.13788476013E+03 -0.25941040016E+02  0.18983020716E+03  0.23605222342E+03  0.00000000000E+00 0.  1.
         21    1    1    2  505  501  0.18362617972E+02 -0.24749180056E+02  0.62607225153E+01  0.31446848788E+02  0.00000000000E+00 0. -1.
         -4    1    1    2    0  504  0.87320571143E+02 -0.71583876184E+01 -0.66464586043E+02  0.10997120467E+03  0.00000000000E+00 0.  1.
<scales pt_clust_3="65.43888" pt_clust_4="108.18306" pt_clust_5="30.81733" pt_clust_6="14000.00000"></scales>
<clustering>
<clus scale="   30.817">  2  5  1 -1</clus>
<clus scale="   65.439">  1  3  2 -1</clus>
<clus scale="  108.183">  1  4  2 -1</clus>
<clus scale="   65.439">  1  3  2 -1</clus>
</clustering>
</event>
<event>
 6    0  0.1631680E+002  0.8964852E+02  0.7546771E-02  0.1303705E+00
          1   -1    0    0  505    0 -0.00000000000E+00  0.00000000000E+00  0.22515219088E+04  0.22515219088E+04  0.00000000000E+00 0.  1.
         21   -1    0    0  503  502  0.00000000000E+00 -0.00000000000E+00 -0.70922717277E+02  0.70922717277E+02  0.00000000000E+00 0.  1.
         21    1    1    2  503  501 -0.76308557194E+02  0.45311589977E+02 -0.87059942901E+01  0.89173597124E+02  0.00000000000E+00 0.  1.
         21    1    1    2  504  502  0.94896956637E+02  0.51721654901E+02  0.13940424350E+03  0.17639190761E+03  0.00000000000E+00 0.  1.
         21    1    1    2  505  504 -0.42920050276E+02 -0.36510482247E+02  0.27167312800E+03  0.27745528380E+03  0.00000000000E+00 0.  1.
          1    1    1    2  501    0  0.24331650833E+02 -0.60522762631E+02  0.17782278143E+04  0.17794238376E+04  0.00000000000E+00 0.  1.
<scales pt_clust_3="89.12588" pt_clust_4="14000.00000" pt_clust_5="56.34843" pt_clust_6="89.64852"></scales>
<clustering>
<clus scale="   56.348">  1  5  2 -1</clus>
<clus scale="   89.126">  2  3  1 -1</clus>
<clus scale="   89.649">  1  6  2 -1</clus>
<clus scale="   89.126">  2  3  1 -1</clus>
</clustering>
</event>
<event>
 6    0  0.1631680E+002  0.1448472E+03  0.7546771E-02  0.1206952E+00
          2   -1    0    0  504    0 -0.00000000000E+00  0.00000000000E+00  0.99826419603E+03  0.99826419603E+03  0.00000000000E+00 0. -1.
         21   -1    0    0  505  502  0.00000000000E+00 -0.00000000000E+00 -0.20635064789E+03  0.20635064789E+03  0.00000000000E+00 0.  1.
         21    1    1    2  503  502  0.38892561332E+02 -0.10177785669E+03  0.47916405685E+03  0.49139551974E+03  0.00000000000E+00 0. -1.
         21    1    1    2  504  503 -0.75058317831E+01 -0.36254109144E+02  0.40052779699E+03  0.40223527208E+03  0.00000000000E+00 0.  1.
         21    1    1    2  505  501 -0.73672455899E+02  0.12719031837E+03 -0.16580450531E+03  0.22157649204E+03  0.00000000000E+00 0.  1.
          2    1    1    2  501    0  0.42285726349E+02  0.10841647467E+02  0.78026199598E+02  0.89407560063E+02  0.00000000000E+00 0. -1.
<scales pt_clust_3="14000.00000" pt_clust_4="37.02294" pt_clust_5="144.84724" pt_clust_6="41.63291"></scales>
<clustering>
<clus scale="   37.023">  1  4  2 -1</clus>
<clus scale="   41.633">  1  6  2 -1</clus>
<clus scale="  144.847">  2  5  1 -1</clus>
<clus scale="  144.847">  2  3  1 -1</clus>
</clustering>
</event>
<event>
 6    0  0.1631680E+002  0.1109945E+03  0.7546771E-02  0.1258739E+00
         21   -1    0    0  505  502  0.00000000000E+00  0.00000000000E+00  0.44761275709E+02  0.44761275709E+02  0.00000000000E+00 0. -1.
          1   -1    0    0  503    0 -0.00000000000E+00 -0.00000000000E+00 -0.13701563065E+04  0.13701563065E+04  0.00000000000E+00 0.  1.
         21    1    1    2  503  504 -0.33791062203E+02  0.27752091011E+00 -0.36281616708E+03  0.36438644870E+03  0.00000000000E+00 0.  1.
         21    1    1    2  504  502  0.11955230836E+03  0.87972080999E+00 -0.90948169696E+02  0.15021683632E+03  0.00000000000E+00 0. -1.
         21    1    1    2  505  501 -0.95513975560E+02 -0.34653422786E+02 -0.17167382451E+03  0.19948854919E+03  0.00000000000E+00 0. -1.
          1    1    1    2  501    0  0.97527293988E+01  0.33496181066E+02 -0.69995686950E+03  0.70082574799E+03  0.00000000000E+00 0.  1.
<scales pt_clust_3="33.79220" pt_clust_4="14000.00000" pt_clust_5="110.99451" pt_clust_6="36.39105"></scales>
<clustering>
<clus scale="   33.792">  2  3  1 -1</clus>
<clus scale="   36.391">  2  6  1 -1</clus>
<clus scale="  110.995">  2  5  1 -1</clus>
<clus scale="  110.995">  1  3  2 -1</clus>
</clustering>
</event>
<event>
 6    0  0.1631680E+002  0.9291277E+02  0.7546771E-02  0.1295947E+00
         21   -1    0    0  505  502  0.00000000000E+00  0.00000000000E+00  0.99862227693E+02  0.99862227693E+02  0.00000000000E+00 0.  1.
          2   -1    0    0  503    0 -0.00000000000E+00 -0.00000000000E+00 -0.16625758131E+04  0.16625758131E+04  0.00000000000E+00 0.  1.
         21    1    1    2  503  504  0.12243081993E+03  0.92555331593E+01 -0.31307157364E+03  0.33628675380E+03  0.00000000000E+00 0.  1.
         21    1    1    2  504  502 -0.36743453897E+02 -0.32994948724E+02  0.75167523278E+02  0.89938337773E+02  0.00000000000E+00 0.  1.
         21    1    1    2  505  501  0.28305018941E+01  0.32032398771E+02 -0.58249280031E+02  0.66536192678E+02  0.00000000000E+00 0.  1.
          2    1    1    2  501    0 -0.88517867923E+02 -0.82929832060E+01 -0.12665602550E+04  0.12696767565E+04  0.00000000000E+00 0.  1.
<scales pt_clust_3="92.91277" pt_clust_4="34.71984" pt_clust_5="32.15721" pt_clust_6="14000.00000"></scales>
<clustering>
<clus scale="   32.157">  1  5  2 -1</clus>
<clus scale="   34.720">  1  4  2 -1</clus>
<clus scale="   92.913">  1  3  2 -1</clus>
<clus scale="   32.157">  1  3  2 -1</clus>
</clustering>
</event>
<event>
 6    0  0.1631680E+002  0.1433172E+03  0.7546771E-02  0.1208934E+00
         21   -1    0    0  504  502  0.00000000000E+00  0.00000000000E+00  0.30022763507E+02  0.30022763507E+02  0.00000000000E+00 0. -1.
          1   -1    0    0  503    0 -0.00000000000E+00 -0.00000000000E+00 -0.15414378249E+04  0.15414378249E+04  0.00000000000E+00 0. -1.
         21    1    1    2  503  505  0.42911663337E+02 -0.19434968317E+02 -0.34492058549E+03  0.34812259211E+03  0.00000000000E+00 0. -1.
         21    1    1    2  504  501 -0.37242900075E+02  0.32970580182E+01 -0.40220227724E+02  0.54914214150E+02  0.00000000000E+00 0. -1.
         21    1    1    2  505  502  0.18489169357E+02 -0.12619574328E+03 -0.81963217810E+03  0.82949630643E+03  0.00000000000E+00 0. -1.
          1    1    1    2  501    0 -0.24157932618E+02  0.14233365358E+03 -0.30664207005E+03  0.33892747569E+03  0.00000000000E+00 0. -1.
<scales pt_clust_3="44.62484" pt_clust_4="37.38856" pt_clust_5="143.31715" pt_clust_6="14000.00000"></scales>
<clustering>
<clus scale="   37.389">  1  4  2 -1</clus>
<clus scale="   44.625">  2  3  1 -1</clus>
<clus scale="  143.317">  2  5  1 -1</clus>
<clus scale="   37.389">  1  3  2 -1</clus>
</clustering>
</event>
<event>
 6    0  0.1631680E+002  0.7921286E+02  0.7546771E-02  0.1331300E+00
         21   -1    0    0  503  502  0.00000000000E+00  0.00000000000E+00  0.27935766541E+04  0.27935766541E+04  0.00000000000E+00 0. -1.
          2   -1    0    0  504    0 -0.00000000000E+00 -0.00000000000E+00 -0.21810254452E+03  0.21810254452E+03  0.00000000000E+00 0.  1.
         21    1    1    2  503  505 -0.55209368418E+02 -0.10368755252E+02  0.57292480869E+03  0.57567214789E+03  0.00000000000E+00 0.  1.
         21    1    1    2  504  502  0.10664340298E+02 -0.55313446355E+02  0.21901704334E+04  0.21908947562E+04  0.00000000000E+00 0. -1.
         21    1    1    2  505  501  0.19530106294E+02  0.10366312540E+03 -0.95137075624E+02  0.14205115902E+03  0.00000000000E+00 0.  1.
          2    1    1    2  501    0  0.25014921826E+02 -0.37980923796E+02 -0.92484056841E+02  0.10306113553E+03  0.00000000000E+00 0.  1.
<scales pt_clust_3="55.97602" pt_clust_4="14000.00000" pt_clust_5="79.21286" pt_clust_6="45.47853"></scales>
<clustering>
<clus scale="   45.479">  2  6  1 -1</clus>
<clus scale="   55.976">  1  3  2 -1</clus>
<clus scale="   79.213">  2  5  1 -1</clus>
<clus scale="   55.976">  1  3  2 -1</clus>
</clustering>
</event>
<event>
 6    0  0.1631680E+002  0.7671846E+02  0.7546771E-02  0.1338631E+00
          2   -1    0    0  505    0 -0.00000000000E+00  0.00000000000E+00  0.43089461929E+03  0.43089461929E+03  0.00000000000E+00 0.  1.
         21   -1    0    0  503  502  0.00000000000E+00 -0.00000000000E+00 -0.58861899428E+02  0.58861899428E+02  0.00000000000E+00 0.  1.
         21    1    1    2  503  501  0.71526111783E+02 -0.13162450038E+02  0.19571300978E+02  0.75314477890E+02  0.00000000000E+00 0.  1.
         21    1    1    2  504  502 -0.83338854809E+02  0.16692461846E+02  0.79914663150E+02  0.11666343210E+03  0.00000000000E+00 0.  1.
         21    1    1    2  505  504 -0.28425706050E+02  0.47116803473E+02  0.11580925829E+03  0.12821777661E+03  0.00000000000E+00 0.  1.
          2    1    1    2  501    0  0.40238449076E+02 -0.50646815281E+02  0.15673749744E+03  0.16956083211E+03  0.00000000000E+00 0.  1.
<scales pt_clust_3="14000.00000" pt_clust_4="76.71846" pt_clust_5="55.02739" pt_clust_6="36.05324"></scales>
<clustering>
<clus scale="   55.027">  1  5  2 -1</clus>
<clus scale="   36.053">  1  6  2 -1</clus>
<clus scale="   76.718">  1  4  2 -1</clus>
<clus scale="   76.718">  2  3  1 -1</clus>
</clustering>
</event>
<event>
 6    0  0.1631680E+002  0.8019484E+02  0.7546771E-02  0.1328499E+00
          2   -1    0    0  504    0 -0.00000000000E+00  0.00000000000E+00  0.65312722769E+03  0.65312722769E+03  0.00000000000E+00 0.  1.
         21   -1    0    0  505  502  0.00000000000E+00 -0.00000000000E+00 -0.20384902135E+03  0.20384902135E+03  0.00000000000E+00 0.  1.
         21    1    1    2  503  502  0.76737543442E+02 -0.13443647641E+02 -0.15391120228E+03  0.17250518956E+03  0.00000000000E+00 0.  1.
         21    1    1    2  504  503  0.29908338067E+02 -0.43783664681E+02  0.56701012650E+02  0.77630682171E+02  0.00000000000E+00 0. -1.
         21    1    1    2  505  501 -0.49427334728E+02 -0.11879800249E+02 -0.21829081796E+01  0.50881786136E+02  0.00000000000E+00 0. -1.
          2    1    1    2  501    0 -0.57218546781E+02  0.69107112570E+02  0.54867130415E+03  0.55595859118E+03  0.00000000000E+00 0.  1.
<scales pt_clust_3="39.62853" pt_clust_4="80.19484" pt_clust_5="50.83494" pt_clust_6="14000.00000"></scales>
<clustering>
<clus scale="   50.835">  2  5  1 -1</clus>
<clus scale="   39.629">  2  3  1 -1</clus>
<clus scale="   80.195">  2  4  1 -1</clus>
<clus scale="   50.835">  2  3  1 -1</clus>
</clustering>
</event>
<event>
 6    0  0.1631680E+002  0.8451011E+02  0.7546771E-02  0.1316719E+00
          2   -1    0    0  504    0 -0.00000000000E+00  0.00000000000E+00  0.62648573163E+03  0.62648573163E+03  0.00000000000E+00 0.  1.
         21   -1    0    0  503  502  0.00000000000E+00 -0.00000000000E+00 -0.73208157566E+03  0.73208157566E+03  0.00000000000E+00 0.  1.
         21    1    1    2  503  505  0.37628306841E+02  0.17264388605E+02 -0.66164214800E+03  0.66293610597E+03  0.00000000000E+00 0.  1.
         21    1    1    2  504  502  0.66025163488E+02  0.16671204119E+02  0.21350464917E+03  0.22410150931E+03  0.00000000000E+00 0.  1.
         21    1    1    2  505  501  0.12779728644E+02 -0.60606104112E+02 -0.38010084831E+02  0.72671781791E+02  0.00000000000E+00 0.  1.
          2    1    1    2  501    0 -0.11643319897E+03  0.26670511389E+02  0.38055173964E+03  0.39885791021E+03  0.00000000000E+00 0.  1.
<scales pt_clust_3="41.39986" pt_clust_4="84.51011" pt_clust_5="63.38244" pt_clust_6="14000.00000"></scales>
<clustering>
<clus scale="   41.400">  2  3  1 -1</clus>
<clus scale="   63.382">  2  5  1 -1</clus>
<clus scale="   84.510">  1  4  2 -1</clus>
<clus scale="   41.400">  2  3  1 -1</clus>
</clustering>
</event>
<event>
 6    0  0.1631680E+002  0.9297869E+02  0.7546771E-02  0.1295795E+00
         21   -1    0    0  505  502  0.00000000000E+00  0.00000000000E+00  0.28149932124E+03  0.28149932124E+03  0.00000000000E+00 0.  1.
          2   -1    0    0  503    0 -0.00000000000E+00 -0.00000000000E+00 -0.27231265292E+03  0.27231265292E+03  0.00000000000E+00 0.  1.
         21    1    1    2  503  502 -0.25198096024E+02  0.81357097067E+02 -0.11520934766E+03  0.14327286929E+03  0.00000000000E+00 0.  1.
         21    1    1    2  504  501  0.36548764316E+02  0.11148990286E+02 -0.33417309432E+02  0.50762473611E+02  0.00000000000E+00 0.  1.
         21    1    1    2  505  504 -0.34753105368E+02  0.15230432916E+02  0.22664876968E+03  0.22980297913E+03  0.00000000000E+00 0.  1.
          2    1    1    2  501    0  0.23402437076E+02 -0.10773652027E+03 -0.68835444271E+02  0.12997365213E+03  0.00000000000E+00 0.  1.
<scales pt_clust_3="92.97869" pt_clust_4="33.76386" pt_clust_5="37.94396" pt_clust_6="14000.00000"></scales>
<clustering>
<clus scale="   37.944">  1  5  2 -1</clus>
<clus scale="   33.764">  1  4  2 -1</clus>
<clus scale="   92.979">  2  3  1 -1</clus>
<clus scale="   37.944">  1  3  2 -1</clus>
</clustering>
</event>
<event>
 6    0  0.1631680E+002  0.1873920E+03  0.7546771E-02  0.1160835E+00
         21   -1    0    0  503  502  0.00000000000E+00  0.00000000000E+00  0.25190739036E+04  0.25190739036E+04  0.00000000000E+00 0.  1.
         -2   -1    0    0    0  501 -0.00000000000E+00 -0.00000000000E+00 -0.94731596405E+03  0.94731596405E+03  0.00000000000E+00 0. -1.
         21    1    1    2  503  504 -0.48931843593E+02  0.22498932580E+03  0.17292669032E+04  0.17445281725E+04  0.00000000000E+00 0.  1.
         21    1    1    2  504  501  0.16002437974E+02 -0.39798144509E+02 -0.73493388630E+02  0.85095525733E+02  0.00000000000E+00 0. -1.
         21    1    1    2  505  502  0.56980302266E+02 -0.37691068757E+02  0.76835851280E+03  0.77138976899E+03  0.00000000000E+00 0.  1.
         -2    1    1    2    0  505 -0.24050896646E+02 -0.14750011254E+03 -0.85237408783E+03  0.86537640044E+03  0.00000000000E+00 0. -1.
<scales pt_clust_3="187.39204" pt_clust_4="42.89488" pt_clust_5="68.37982" pt_clust_6="14000.00000"></scales>
<clustering>
<clus scale="   42.895">  2  4  1 -1</clus>
<clus scale="   68.380">  1  5  2 -1</clus>
<clus scale="  187.392">  1  3  2 -1</clus>
<clus scale="   68.380">  1  3  2 -1</clus>
</clustering>
</event>
<event>
 6    0  0.1631680E+002  0.1037783E+03  0.7546771E-02  0.1272546E+00
         21   -1    0    0  503  502  0.00000000000E+00  0.00000000000E+00  0.23622350156E+02  0.23622350156E+02  0.00000000000E+00 0. -1.
          2   -1    0    0  505    0 -0.00000000000E+00 -0.00000000000E+00 -0.31447540163E+04  0.31447540163E+04  0.00000000000E+00 0. -1.
         21    1    1    2  503  504 -0.10230913448E+02 -0.85538240822E+02 -0.79510333782E+02  0.11723205795E+03  0.00000000000E+00 0. -1.
         21    1    1    2  504  501 -0.31074860220E+02  0.83360238139E+02 -0.80261386355E+03  0.80752931229E+03  0.00000000000E+00 0. -1.
         21    1    1    2  505  502 -0.18877144830E+02 -0.33537449152E+02 -0.21628768648E+03  0.21968493443E+03  0.00000000000E+00 0. -1.
          2    1    1    2  501    0  0.60182918499E+02  0.35715451835E+02 -0.20227197823E+04  0.20239300618E+04  0.00000000000E+00 0. -1.
<scales pt_clust_3="103.77828" pt_clust_4="14000.00000" pt_clust_5="38.48515" pt_clust_6="69.06421"></scales>
<clustering>
<clus scale="   38.485">  1  5  2 -1</clus>
<clus scale="   69.064">  2  6  1 -1</clus>
<clus scale="  103.778">  1  3  2 -1</clus>
<clus scale="   38.485">  1  3  2 -1</clus>
</clustering>
</event>
<event>
 6    0  0.1631680E+002  0.9256608E+02  0.7546771E-02  0.1296754E+00
         21   -1    0    0  505  502  0.00000000000E+00  0.00000000000E+00  0.77798272884E+03  0.77798272884E+03  0.00000000000E+00 0. -1.
         -3   -1    0    0    0  501 -0.00000000000E+00 -0.00000000000E+00 -0.34171334418E+03  0.34171334418E+03  0.00000000000E+00 0.  1.
         21    1    1    2  503  502  0.20677528648E+02 -0.26224128792E+02  0.64725261027E+03  0.64811357540E+03  0.00000000000E+00 0. -1.
         21    1    1    2  504  503 -0.40348703108E+02 -0.18149918110E+02  0.57560087039E+02  0.72598904880E+02  0.00000000000E+00 0.  1.
         21    1    1    2  505  501  0.10273489750E+03  0.33808109745E+01  0.12051946662E+02  0.10349463013E+03  0.00000000000E+00 0.  1.
         -3    1    1    2    0  504 -0.83063723041E+02  0.40993235927E+02 -0.28059525931E+03  0.29548896261E+03  0.00000000000E+00 0.  1.
<scales pt_clust_3="33.39559" pt_clust_4="43.33236" pt_clust_5="92.56608" pt_clust_6="14000.00000"></scales>
<clustering>
<clus scale="   33.396">  1  3  2 -1</clus>
<clus scale="   43.332">  1  4  2 -1</clus>
<clus scale="   92.566">  1  5  2 -1</clus>
<clus scale="   33.396">  1  3  2 -1</clus>
</clustering>
</event>
<event>
 6    0  0.1631680E+002  0.1270417E+03  0.7546771E-02  0.1231913E+00
         21   -1    0    0  504  502  0.00000000000E+00  0.00000000000E+00  0.42029470305E+02  0.42029470305E+02  0.00000000000E+00 0. -1.
         -4   -1    0    0    0  501 -0.00000000000E+00 -0.00000000000E+00 -0.22557194233E+04  0.22557194233E+04  0.00000000000E+00 0.  1.
         21    1    1    2  503  502 -0.63459186739E+02  0.20581403293E+02 -0.12894330599E+03  0.14517933291E+03  0.00000000000E+00 0. -1.
         21    1    1    2  504  501 -0.13028771226E+02 -0.41411048107E+02 -0.93645751617E+03  0.93746322775E+03  0.00000000000E+00 0.  1.
         21    1    1    2  505  503 -0.68075886637E+02  0.14013241815E+02 -0.13097537772E+02  0.70726535213E+02  0.00000000000E+00 0. -1.
         -4    1    1    2    0  505  0.14456384460E+03  0.68164029989E+01 -0.11351915930E+04  0.11443797977E+04  0.00000000000E+00 0.  1.
<scales pt_clust_3="66.82604" pt_clust_4="43.41225" pt_clust_5="14000.00000" pt_clust_6="127.04169"></scales>
<clustering>
<clus scale="   43.412">  2  4  1 -1</clus>
<clus scale="   66.826">  1  3  2 -1</clus>
<clus scale="  127.042">  2  6  1 -1</clus>
<clus scale="   66.826">  1  3  2 -1</clus>
</clustering>
</event>
<event>
 6    0  0.1631680E+002  0.7916261E+02  0.7546771E-02  0.1331445E+00
          4   -1    0    0  504    0 -0.00000000000E+00  0.00000000000E+00  0.10775482640E+03  0.10775482640E+03  0.00000000000E+00 0. -1.
         21   -1    0    0  501  502  0.00000000000E+00 -0.00000000000E+00 -0.30611605758E+03  0.30611605758E+03  0.00000000000E+00 0. -1.
         21    1    1    2  503  502 -0.15774016012E+02  0.64851503834E+02 -0.77314248030E+02  0.10213730993E+03  0.00000000000E+00 0. -1.
         21    1    1    2  504  505  0.75870853366E+02  0.14132891932E+02  0.84132616808E+01  0.77633162997E+02  0.00000000000E+00 0. -1.
         21    1    1    2  505  503 -0.79469929855E+02 -0.17064833186E+02  0.84218468295E+01  0.81716618792E+02  0.00000000000E+00 0. -1.
          4    1    1    2  501    0  0.19373092501E+02 -0.61919562579E+02 -0.13788209167E+03  0.15238379226E+03  0.00000000000E+00 0. -1.
<scales pt_clust_3="30.74531" pt_clust_4="79.16261" pt_clust_5="14000.00000" pt_clust_6="64.87950"></scales>
<clustering>
<clus scale="   64.879">  2  6  1 -1</clus>
<clus scale="   30.745">  2  3  1 -1</clus>
<clus scale="   79.163">  1  4  2 -1</clus>
<clus scale="   64.879">  2  3  1 -1</clus>
</clustering>
</event>
<event>
 6    0  0.1631680E+002  0.1431306E+03  0.7546771E-02  0.1209178E+00
         21   -1    0    0  505  502  0.00000000000E+00  0.00000000000E+00  0.64364377030E+02  0.64364377030E+02  0.00000000000E+00 0. -1.
          2   -1    0    0  503    0 -0.00000000000E+00 -0.00000000000E+00 -0.87897718020E+03  0.87897718020E+03  0.00000000000E+00 0. -1.
         21    1    1    2  503  504 -0.36560268645E+02  0.78076386774E+02 -0.51804803415E+03  0.52517267741E+03  0.00000000000E+00 0. -1.
         21    1    1    2  504  502 -0.20285240854E+02  0.98463420817E+02 -0.11205307188E+03  0.15054045022E+03  0.00000000000E+00 0. -1.
         21    1    1    2  505  501  0.11576977508E+02 -0.58424113066E+02 -0.26412211370E+02  0.65153728253E+02  0.00000000000E+00 0. -1.
          2    1    1    2  501    0  0.45268531991E+02 -0.11811569453E+03 -0.15809948577E+03  0.20247470134E+03  0.00000000000E+00 0. -1.
<scales pt_clust_3="86.21239" pt_clust_4="131.54341" pt_clust_5="38.71162" pt_clust_6="38.71162"></scales>
<clustering>
<clus scale="   38.712">  5  6 -1 -1</clus>
<clus scale="   86.212">  2  3  1 -1</clus>
<clus scale="  131.543">  1  4  2 -1</clus>
<clus scale="  131.543">  1  3  2 -1</clus>
</clustering>
</event>
<event>
 6    0  0.1631680E+002  0.9050634E+02  0.7546771E-02  0.1301630E+00
         21   -1    0    0  504  502  0.00000000000E+00  0.00000000000E+00  0.42340421818E+03  0.42340421818E+03  0.00000000000E+00 0.  1.
          2   -1    0    0  505    0 -0.00000000000E+00 -0.00000000000E+00 -0.10382896172E+04  0.10382896172E+04  0.00000000000E+00 0.  1.
         21    1    1    2  503  501 -0.10082234669E+03 -0.44654583064E+02  0.61280746647E+02  0.12615271416E+03  0.00000000000E+00 0.  1.
         21    1    1    2  504  503  0.83300117391E+02 -0.42158131910E+02  0.31670221521E+03  0.33017648427E+03  0.00000000000E+00 0.  1.
         21    1    1    2  505  502  0.31454876282E+02 -0.20768744748E+02 -0.11998400029E+03  0.12576529857E+03  0.00000000000E+00 0.  1.
          2    1    1    2  501    0 -0.13932646986E+02  0.10758145972E+03 -0.87288436059E+03  0.87959933839E+03  0.00000000000E+00 0.  1.
<scales pt_clust_3="90.50634" pt_clust_4="14000.00000" pt_clust_5="37.69284" pt_clust_6="89.18081"></scales>
<clustering>
<clus scale="   37.693">  2  5  1 -1</clus>
<clus scale="   89.181">  2  6  1 -1</clus>
<clus scale="   90.506">  2  3  1 -1</clus>
<clus scale="   90.506">  1  3  2 -1</clus>
</clustering>
</event>
<event>
 6    0  0.1631680E+002  0.6239596E+02  0.7546771E-02  0.1388043E+00
         21   -1    0    0  504  502  0.00000000000E+00  0.00000000000E+00  0.53553267437E+03  0.53553267437E+03  0.00000000000E+00 0.  1.
         -3   -1    0    0    0  501 -0.00000000000E+00 -0.00000000000E+00 -0.17908034183E+03  0.17908034183E+03  0.00000000000E+00 0.  1.
         21    1    1    2  503  502  0.17543579910E+02 -0.29202022502E+02  0.90818570675E+02  0.96997670558E+02  0.00000000000E+00 0.  1.
         21    1    1    2  504  505 -0.67358011902E+02  0.60888937539E+02  0.40574052608E+03  0.41577630883E+03  0.00000000000E+00 0.  1.
         21    1    1    2  505  501 -0.41020757337E+02 -0.30537830683E+01 -0.13263691104E+02  0.43219829075E+02  0.00000000000E+00 0. -1.
         -3    1    1    2    0  503  0.90835189329E+02 -0.28633131968E+02 -0.12684307311E+03  0.15861920774E+03  0.00000000000E+00 0.  1.
<scales pt_clust_3="34.06663" pt_clust_4="62.39596" pt_clust_5="40.62754" pt_clust_6="14000.00000"></scales>
<clustering>
<clus scale="   34.067">  1  3  2 -1</clus>
<clus scale="   40.628">  2  5  1 -1</clus>
<clus scale="   62.396">  1  4  2 -1</clus>
<clus scale="   34.067">  1  3  2 -1</clus>
</clustering>
</event>
<event>
 6    0  0.1631680E+002  0.1262037E+03  0.7546771E-02  0.1233200E+00
          2   -1    0    0  505    0 -0.00000000000E+00  0.00000000000E+00  0.72646338098E+03  0.72646338098E+03  0.00000000000E+00 0. -1.
         21   -1    0    0  503  502  0.00000000000E+00 -0.00000000000E+00 -0.20398912390E+04  0.20398912390E+04  0.00000000000E+00 0.  1.
         21    1    1    2  503  501  0.74849792346E+02  0.21804351256E+01 -0.17486907980E+04  0.17502933334E+04  0.00000000000E+00 0.  1.
         21    1    1    2  504  502 -0.60725419365E+01  0.48060100250E+02 -0.34958712593E+02  0.59739104343E+02  0.00000000000E+00 0.  1.
         21    1    1    2  505  504  0.72568707938E+01  0.50807615070E+02 -0.23464964998E+03  0.24019686542E+03  0.00000000000E+00 0. -1.
          2    1    1    2  501    0 -0.76034121203E+02 -0.10104815045E+03  0.70487130256E+03  0.71612531688E+03  0.00000000000E+00 0. -1.
<scales pt_clust_3="126.20372" pt_clust_4="48.44222" pt_clust_5="56.91051" pt_clust_6="14000.00000"></scales>
<clustering>
<clus scale="   48.442">  2  4  1 -1</clus>
<clus scale="   56.911">  2  5  1 -1</clus>
<clus scale="  126.204">  2  3  1 -1</clus>
<clus scale="   48.442">  2  3  1 -1</clus>
</clustering>
</event>
<event>
 6    0  0.1631680E+002  0.2022082E+03  0.7546771E-02  0.1147889E+00
          2   -1    0    0  505    0 -0.00000000000E+00  0.00000000000E+00  0.83124793649E+03  0.83124793649E+03  0.00000000000E+00 0.  1.
         21   -1    0    0  503  502  0.00000000000E+00 -0.00000000000E+00 -0.14613380543E+04  0.14613380543E+04  0.00000000000E+00 0.  1.
         21    1    1    2  503  501  0.10282230216E+03  0.20432095480E+03 -0.95580937963E+03  0.98279756236E+03  0.00000000000E+00 0.  1.
         21    1    1    2  504  502  0.11071384509E+03 -0.19168632056E+03 -0.44581719357E+03  0.49774910453E+03  0.00000000000E+00 0.  1.
         21    1    1    2  505  504 -0.30979579098E+02 -0.56945269270E+02  0.22266159631E+03  0.23190662880E+03  0.00000000000E+00 0.  1.
          2    1    1    2  501    0 -0.18255656815E+03  0.44310635027E+02  0.54887485910E+03  0.58013269508E+03  0.00000000000E+00 0.  1.
<scales pt_clust_3="14000.00000" pt_clust_4="202.20817" pt_clust_5="64.82668" pt_clust_6="211.69985"></scales>
<clustering>
<clus scale="   64.827">  1  5  2 -1</clus>
<clus scale="  211.700">  1  6  2 -1</clus>
<clus scale="  202.208">  1  4  2 -1</clus>
<clus scale="  202.208">  2  3  1 -1</clus>
</clustering>
</event>
<event>
 6    0  0.1631680E+002  0.3222642E+03  0.7546771E-02  0.1074612E+00
         -3   -1    0    0    0  501 -0.00000000000E+00  0.00000000000E+00  0.36566637509E+03  0.36566637509E+03  0.00000000000E+00 0. -1.
         21   -1    0    0  505  502  0.00000000000E+00 -0.00000000000E+00 -0.61824408150E+03  0.61824408150E+03  0.00000000000E+00 0. -1.
         21    1    1    2  503  502 -0.16667336657E+02 -0.26668177173E+02 -0.53243198215E+02  0.61837124295E+02  0.00000000000E+00 0. -1.
         21    1    1    2  504  501 -0.23854521586E+02  0.21760765418E+02  0.11586476771E+03  0.12027973025E+03  0.00000000000E+00 0. -1.
         21    1    1    2  505  504 -0.59316057785E+02  0.32587294595E+03 -0.32700713486E+03  0.46545164933E+03  0.00000000000E+00 0. -1.
         -3    1    1    2    0  503  0.99837916027E+02 -0.32096553420E+03  0.11807858953E+02  0.33634195271E+03  0.00000000000E+00 0. -1.
<scales pt_clust_3="31.44824" pt_clust_4="32.26679" pt_clust_5="14000.00000" pt_clust_6="322.26420"></scales>
<clustering>
<clus scale="   31.448">  2  3  1 -1</clus>
<clus scale="   32.267">  1  4  2 -1</clus>
<clus scale="  322.264">  1  6  2 -1</clus>
<clus scale="   31.448">  2  3  1 -1</clus>
</clustering>
</event>
<event>
 6    0  0.1631680E+002  0.8621875E+02  0.7546771E-02  0.1312276E+00
         21   -1    0    0  504  502  0.00000000000E+00  0.00000000000E+00  0.52231411922E+03  0.52231411922E+03  0.00000000000E+00 0. -1.
          2   -1    0    0  505    0 -0.00000000000E+00 -0.00000000000E+00 -0.78236784786E+03  0.78236784786E+03  0.00000000000E+00 0.  1.
         21    1    1    2  503  501  0.23709660239E+01 -0.11188037980E+03  0.16250454181E+03  0.19730830437E+03  0.00000000000E+00 0. -1.
         21    1    1    2  504  503 -0.67465038043E+02  0.52768793461E+02  0.32010722959E+03  0.33136794558E+03  0.00000000000E+00 0. -1.
         21    1    1    2  505  502  0.47153086007E+02 -0.97929322601E+01 -0.23975371315E+02  0.53797151151E+02  0.00000000000E+00 0. -1.
          2    1    1    2  501    0  0.17940986012E+02  0.68904518598E+02 -0.71869012872E+03  0.72220856598E+03  0.00000000000E+00 0.  1.
<scales pt_clust_3="86.21875" pt_clust_4="85.32409" pt_clust_5="48.15927" pt_clust_6="14000.00000"></scales>
<clustering>
<clus scale="   48.159">  2  5  1 -1</clus>
<clus scale="   85.324">  1  4  2 -1</clus>
<clus scale="   86.219">  1  3  2 -1</clus>
<clus scale="   85.324">  1  3  2 -1</clus>
</clustering>
</event>
<event>
 6    0  0.1631680E+002  0.1037109E+03  0.7546771E-02  0.1272681E+00
          2   -1    0    0  503    0 -0.00000000000E+00  0.00000000000E+00  0.27058999982E+04  0.27058999982E+04  0.00000000000E+00 0. -1.
         21   -1    0    0  504  502  0.00000000000E+00 -0.00000000000E+00 -0.51066543330E+02  0.51066543330E+02  0.00000000000E+00 0.  1.
         21    1    1    2  503  502 -0.19379643239E+02 -0.38409698936E+02  0.83758644162E+03  0.83869060012E+03  0.00000000000E+00 0. -1.
         21    1    1    2  504  505 -0.10535693586E+03 -0.26468368438E+02  0.29410911907E+02  0.11254181535E+03  0.00000000000E+00 0.  1.
         21    1    1    2  505  501  0.45819790665E+02  0.10241857580E+03  0.40839052950E+03  0.42352313098E+03  0.00000000000E+00 0.  1.
          2    1    1    2  501    0  0.78916788437E+02 -0.37540508421E+02  0.13794455718E+04  0.13822109951E+04  0.00000000000E+00 0. -1.
<scales pt_clust_3="43.02180" pt_clust_4="14000.00000" pt_clust_5="103.71088" pt_clust_6="92.30083"></scales>
<clustering>
<clus scale="   43.022">  1  3  2 -1</clus>
<clus scale="   92.301">  1  6  2 -1</clus>
<clus scale="  103.711">  1  5  2 -1</clus>
<clus scale="  103.711">  2  3  1 -1</clus>
</clustering>
</event>
<event>
 6    0  0.1631680E+002  0.1193625E+03  0.7546771E-02  0.1244153E+00
          2   -1    0    0  505    0 -0.00000000000E+00  0.00000000000E+00  0.16133889890E+04  0.16133889890E+04  0.00000000000E+00 0. -1.
         21   -1    0    0  503  502  0.00000000000E+00 -0.00000000000E+00 -0.18794585623E+03  0.18794585623E+03  0.00000000000E+00 0. -1.
         21    1    1    2  503  501 -0.72965655941E+02 -0.92017214009E+02 -0.15123649094E+03  0.19147749427E+03  0.00000000000E+00 0. -1.
         21    1    1    2  504  502  0.16314011359E+02 -0.63038635255E+02  0.88315708828E+03  0.88555432305E+03  0.00000000000E+00 0. -1.
         21    1    1    2  505  504 -0.31005256384E+02  0.78558809876E+00  0.12129538818E+03  0.12519790041E+03  0.00000000000E+00 0.  1.
          2    1    1    2  501    0  0.87656900966E+02  0.15427026117E+03  0.57222714725E+03  0.59910512752E+03  0.00000000000E+00 0. -1.
<scales pt_clust_3="14000.00000" pt_clust_4="62.60720" pt_clust_5="31.01521" pt_clust_6="119.36246"></scales>
<clustering>
<clus scale="   31.015">  1  5  2 -1</clus>
<clus scale="   62.607">  1  4  2 -1</clus>
<clus scale="  119.362">  1  6  2 -1</clus>
<clus scale="  119.362">  2  3  1 -1</clus>
</clustering>
</event>
<event>
 6    0  0.1631680E+002  0.1030831E+03  0.7546771E-02  0.1273943E+00
         21   -1    0    0  504  502  0.00000000000E+00  0.00000000000E+00  0.13430562778E+03  0.13430562778E+03  0.00000000000E+00 0. -1.
          2   -1    0    0  503    0 -0.00000000000E+00 -0.00000000000E+00 -0.35716392938E+03  0.35716392938E+03  0.00000000000E+00 0. -1.
         21    1    1    2  503  505 -0.90176196199E+01 -0.28891734838E+02 -0.58304386327E+02  0.65692094429E+02  0.00000000000E+00 0. -1.
         21    1    1    2  504  501  0.39803833501E+02  0.93246748083E+01  0.45881716940E+02  0.61452637624E+02  0.00000000000E+00 0. -1.
         21    1    1    2  505  502  0.33462774126E+02 -0.83945046396E+02  0.29640066118E+02  0.95105528683E+02  0.00000000000E+00 0. -1.
          2    1    1    2  501    0 -0.64248988008E+02  0.10351210642E+03 -0.24007569833E+03  0.26921929642E+03  0.00000000000E+00 0. -1.
<scales pt_clust_3="30.26631" pt_clust_4="40.48191" pt_clust_5="103.08312" pt_clust_6="14000.00000"></scales>
<clustering>
<clus scale="   30.266">  2  3  1 -1</clus>
<clus scale="   40.482">  1  4  2 -1</clus>
<clus scale="  103.083">  1  5  2 -1</clus>
<clus scale="   40.482">  1  3  2 -1</clus>
</clustering>
</event>
<event>
 6    0  0.1631680E+002  0.8497634E+02  0.7546771E-02  0.1315494E+00
         21   -1    0    0  505  502  0.00000000000E+00  0.00000000000E+00  0.34555941443E+02  0.34555941443E+02  0.00000000000E+00 0. -1.
          2   -1    0    0  504    0 -0.00000000000E+00 -0.00000000000E+00 -0.13787530353E+04  0.13787530353E+04  0.00000000000E+00 0. -1.
         21    1    1    2  503  501 -0.50162917606E+02 -0.47835550782E+02 -0.74916257890E+03  0.75236236472E+03  0.00000000000E+00 0. -1.
         21    1    1    2  504  502  0.64048287721E+02 -0.39586224919E+02 -0.91372818308E+02  0.11839866675E+03  0.00000000000E+00 0. -1.
         21    1    1    2  505  503 -0.59896478597E+02  0.82974438784E+02 -0.12718177723E+03  0.16324077340E+03  0.00000000000E+00 0. -1.
          2    1    1    2  501    0  0.46011108482E+02  0.44473369172E+01 -0.37647991940E+03  0.37930717186E+03  0.00000000000E+00 0. -1.
<scales pt_clust_3="47.17101" pt_clust_4="84.97634" pt_clust_5="14000.00000" pt_clust_6="46.22554"></scales>
<clustering>
<clus scale="   46.226">  2  6  1 -1</clus>
<clus scale="   47.171">  2  3  1 -1</clus>
<clus scale="   84.976">  1  4  2 -1</clus>
<clus scale="   84.976">  1  3  2 -1</clus>
</clustering>
</event>
<event>
 6    0  0.1631680E+002  0.1077668E+03  0.7546771E-02  0.1264762E+00
         21   -1    0    0  505  502  0.00000000000E+00  0.00000000000E+00  0.15297503736E+04  0.15297503736E+04  0.00000000000E+00 0. -1.
          2   -1    0    0  503    0 -0.00000000000E+00 -0.00000000000E+00 -0.31721710316E+03  0.31721710316E+03  0.00000000000E+00 0. -1.
         21    1    1    2  503  504  0.31889416434E+02  0.91352718193E+01 -0.92079933854E+01  0.34426373813E+02  0.00000000000E+00 0.  1.
         21    1    1    2  504  502  0.56194585838E+01 -0.99420823650E+02  0.89196640017E+03  0.89750773675E+03  0.00000000000E+00 0. -1.
         21    1    1    2  505  501 -0.62757790213E+02  0.12340988902E+03  0.61316367581E+03  0.62860021816E+03  0.00000000000E+00 0. -1.
          2    1    1    2  501    0  0.25248915195E+02 -0.33124337190E+02 -0.28338881216E+03  0.28643314803E+03  0.00000000000E+00 0. -1.
<scales pt_clust_3="33.17210" pt_clust_4="107.76677" pt_clust_5="14000.00000" pt_clust_6="61.05585"></scales>
<clustering>
<clus scale="   33.172">  2  3  1 -1</clus>
<clus scale="   61.056">  2  6  1 -1</clus>
<clus scale="  107.767">  1  4  2 -1</clus>
<clus scale="  107.767">  1  3  2 -1</clus>
</clustering>
</event>
<event>
 6    0  0.1631680E+002  0.1315970E+03  0.7546771E-02  0.1225105E+00
         21   -1    0    0  505  502  0.00000000000E+00  0.00000000000E+00  0.23872144481E+03  0.23872144481E+03  0.00000000000E+00 0.  1.
         -2   -1    0    0    0  501 -0.00000000000E+00 -0.00000000000E+00 -0.21515938932E+03  0.21515938932E+03  0.00000000000E+00 0. -1.
         21    1    1    2  503  501  0.25720468663E+02 -0.17033603647E+02 -0.32739195599E+01  0.31022648351E+02  0.00000000000E+00 0.  1.
         21    1    1    2  504  502  0.11288512850E+03  0.60441720785E+02  0.14525540352E+03  0.19363725390E+03  0.00000000000E+00 0.  1.
         21    1    1    2  505  503 -0.14066701874E+02  0.42181339605E+02 -0.35170403507E+02  0.56692987179E+02  0.00000000000E+00 0.  1.
         -2    1    1    2    0  504 -0.12453889529E+03 -0.85589456743E+02 -0.83249024962E+02  0.17252794470E+03  0.00000000000E+00 0. -1.
<scales pt_clust_3="30.84941" pt_clust_4="131.59699" pt_clust_5="39.07890" pt_clust_6="14000.00000"></scales>
<clustering>
<clus scale="   30.849">  2  3  1 -1</clus>
<clus scale="   39.079">  2  5  1 -1</clus>
<clus scale="  131.597">  1  4  2 -1</clus>
<clus scale="  131.597">  1  3  2 -1</clus>
</clustering>
</event>
<event>
 6    0  0.1631680E+002  0.1279683E+03  0.7546771E-02  0.1230502E+00
         21   -1    0    0  503  502  0.00000000000E+00  0.00000000000E+00  0.14692482298E+04  0.14692482298E+04  0.00000000000E+00 0. -1.
         -3   -1    0    0    0  501 -0.00000000000E+00 -0.00000000000E+00 -0.74380981324E+02  0.74380981324E+02  0.00000000000E+00 0.  1.
         21    1    1    2  503  505 -0.95775610388E+02 -0.86586261037E+02  0.12180752202E+04  0.12248989306E+04  0.00000000000E+00 0. -1.
         21    1    1    2  504  502 -0.27422920295E+02  0.27818971605E+02  0.83735521921E+02  0.92398860220E+02  0.00000000000E+00 0. -1.
         21    1    1    2  505  501  0.73899927740E+02 -0.89089332443E+01  0.11751356181E+03  0.13910429763E+03  0.00000000000E+00 0.  1.
         -3    1    1    2    0  504  0.49298602943E+02  0.67676222676E+02 -0.24457055444E+02  0.87227122667E+02  0.00000000000E+00 0.  1.
<scales pt_clust_3="14000.00000" pt_clust_4="39.06292" pt_clust_5="71.63215" pt_clust_6="127.96829"></scales>
<clustering>
<clus scale="   39.063">  1  4  2 -1</clus>
<clus scale="   71.632">  2  5  1 -1</clus>
<clus scale="  127.968">  2  6  1 -1</clus>
<clus scale="   39.063">  1  3  2 -1</clus>
</clustering>
</event>
<event>
 6    0  0.1631680E+002  0.1128871E+03  0.7546771E-02  0.1255315E+00
         21   -1    0    0  504  502  0.00000000000E+00  0.00000000000E+00  0.18149457961E+03  0.18149457961E+03  0.00000000000E+00 0. -1.
          1   -1    0    0  503    0 -0.00000000000E+00 -0.00000000000E+00 -0.25708158447E+04  0.25708158447E+04  0.00000000000E+00 0. -1.
         21    1    1    2  503  505 -0.57529588616E+02 -0.53932520353E+02 -0.48319744651E+03  0.48958976974E+03  0.00000000000E+00 0. -1.
         21    1    1    2  504  501 -0.23712522126E+02 -0.23535793934E+02  0.60923748007E+02  0.69483238072E+02  0.00000000000E+00 0. -1.
         21    1    1    2  505  502  0.27579855129E+02 -0.55371247058E+02  0.10196942423E+03  0.11926603409E+03  0.00000000000E+00 0. -1.
          1    1    1    2  501    0  0.53662255613E+02  0.13283956135E+03 -0.20690169908E+04  0.20739713824E+04  0.00000000000E+00 0. -1.
<scales pt_clust_3="14000.00000" pt_clust_4="33.40984" pt_clust_5="77.92097" pt_clust_6="112.88709"></scales>
<clustering>
<clus scale="   33.410">  1  4  2 -1</clus>
<clus scale="   77.921">  1  5  2 -1</clus>
<clus scale="  112.887">  2  6  1 -1</clus>
<clus scale="   33.410">  1  3  2 -1</clus>
</clustering>
</event>
<event>
 6    0  0.1631680E+002  0.9548691E+02  0.7546771E-02  0.1290083E+00
          1   -1    0    0  503    0 -0.00000000000E+00  0.00000000000E+00  0.24525248301E+04  0.24525248301E+04  0.00000000000E+00 0.  1.
         21   -1    0    0  504  502  0.00000000000E+00 -0.00000000000E+00 -0.29706577110E+02  0.29706577110E+02  0.00000000000E+00 0. -1.
         21    1    1    2  503  502  0.70298571909E+01 -0.41025731637E+02  0.98486167477E+03  0.98574086249E+03  0.00000000000E+00 0. -1.
         21    1    1    2  504  505  0.30554297075E+02 -0.41952165548E+02  0.15531139753E+02  0.54173476591E+02  0.00000000000E+00 0. -1.
         21    1    1    2  505  501  0.50976343971E+02 -0.27341749874E+02  0.13146880353E+03  0.14363218731E+03  0.00000000000E+00 0. -1.
          1    1    1    2  501    0 -0.88560498237E+02  0.11031964706E+03  0.12909566349E+04  0.12986848808E+04  0.00000000000E+00 0.  1.
<scales pt_clust_3="41.62367" pt_clust_4="52.78729" pt_clust_5="14000.00000" pt_clust_6="95.48691"></scales>
<clustering>
<clus scale="   41.624">  1  3  2 -1</clus>
<clus scale="   52.787">  2  4  1 -1</clus>
<clus scale="   95.487">  1  6  2 -1</clus>
<clus scale="   52.787">  2  3  1 -1</clus>
</clustering>
</event>
<event>
 6    0  0.1631680E+002  0.1806307E+03  0.7546771E-02  0.1167194E+00
         21   -1    0    0  503  502  0.00000000000E+00  0.00000000000E+00  0.47802138119E+03  0.47802138119E+03  0.00000000000E+00 0.  1.
         -1   -1    0    0    0  501 -0.00000000000E+00 -0.00000000000E+00 -0.16036875478E+03  0.16036875478E+03  0.00000000000E+00 0.  1.
         21    1    1    2  503  501  0.31025673552E+02  0.15372276910E+03  0.26340195514E+03  0.30655158151E+03  0.00000000000E+00 0.  1.
         21    1    1    2  504  502  0.90681893272E+02 -0.26964318026E+02  0.10062075625E+03  0.13811160994E+03  0.00000000000E+00 0. -1.
         21    1    1    2  505  504 -0.54633017448E+01 -0.32710372748E+02 -0.27370474682E+02  0.42999523667E+02  0.00000000000E+00 0. -1.
         -1    1    1    2    0  505 -0.11624426508E+03 -0.94048078327E+02 -0.18999610289E+02  0.15072742084E+03  0.00000000000E+00 0.  1.
<scales pt_clust_3="167.71383" pt_clust_4="94.60592" pt_clust_5="31.59042" pt_clust_6="31.59042"></scales>
<clustering>
<clus scale="   31.590">  5  6 -1 -1</clus>
<clus scale="   94.606">  1  4  2 -1</clus>
<clus scale="  167.714">  1  3  2 -1</clus>
<clus scale="   94.606">  1  3  2 -1</clus>
</clustering>
</event>
<event>
 6    0  0.1631680E+002  0.1312788E+03  0.7546771E-02  0.1225571E+00
          1   -1    0    0  504    0 -0.00000000000E+00  0.00000000000E+00  0.95443896821E+03  0.95443896821E+03  0.00000000000E+00 0. -1.
         21   -1    0    0  501  502  0.00000000000E+00 -0.00000000000E+00 -0.41542565224E+03  0.41542565224E+03  0.00000000000E+00 0.  1.
         21    1    1    2  503  505 -0.91146667518E+02  0.55363948116E+02 -0.48280627437E+02  0.11706366104E+03  0.00000000000E+00 0.  1.
         21    1    1    2  504  503  0.11141018598E+03 -0.14729691783E+02  0.47131099431E+03  0.48452373184E+03  0.00000000000E+00 0. -1.
         21    1    1    2  505  502  0.61181801432E+01  0.61669177419E+02 -0.31679015114E+03  0.32279485658E+03  0.00000000000E+00 0.  1.
          1    1    1    2  501    0 -0.26381698610E+02 -0.10230343375E+03  0.43277310024E+03  0.44548237099E+03  0.00000000000E+00 0. -1.
<scales pt_clust_3="14000.00000" pt_clust_4="131.27878" pt_clust_5="61.97193" pt_clust_6="101.58275"></scales>
<clustering>
<clus scale="   61.972">  2  5  1 -1</clus>
<clus scale="  101.583">  1  6  2 -1</clus>
<clus scale="  131.279">  1  4  2 -1</clus>
<clus scale="   61.972">  2  3  1 -1</clus>
</clustering>
</event>
<event>
 6    0  0.1631680E+002  0.1481654E+03  0.7546771E-02  0.1202746E+00
          4   -1    0    0  504    0 -0.00000000000E+00  0.00000000000E+00  0.57046743850E+03  0.57046743850E+03  0.00000000000E+00 0. -1.
         21   -1    0    0  505  502  0.00000000000E+00 -0.00000000000E+00 -0.12685566401E+04  0.12685566401E+04  0.00000000000E+00 0. -1.
         21    1    1    2  503  502  0.10698667419E+03 -0.45309189651E+02 -0.11865565126E+04  0.11922312815E+04  0.00000000000E+00 0. -1.
         21    1    1    2  504  503 -0.11959768349E+02 -0.32250536575E+02  0.55094975740E+02  0.64950669897E+02  0.00000000000E+00 0.  1.
         21    1    1    2  505  501  0.25404570732E+02 -0.22070928592E+02 -0.57534192077E+02  0.66653592259E+02  0.00000000000E+00 0.  1.
          4    1    1    2  501    0 -0.12043147657E+03  0.99630654818E+02  0.49090652733E+03  0.51518853491E+03  0.00000000000E+00 0. -1.
<scales pt_clust_3="14000.00000" pt_clust_4="34.44539" pt_clust_5="33.65291" pt_clust_6="148.16543"></scales>
<clustering>
<clus scale="   33.653">  2  5  1 -1</clus>
<clus scale="   34.445">  1  4  2 -1</clus>
<clus scale="  148.165">  1  6  2 -1</clus>
<clus scale="   33.653">  2  3  1 -1</clus>
</clustering>
</event>
<event>
 6    0  0.1631680E+002  0.1057318E+03  0.7546771E-02  0.1268684E+00
         21   -1    0    0  505  502  0.00000000000E+00  0.00000000000E+00  0.28327277214E+03  0.28327277214E+03  0.00000000000E+00 0. -1.
         -1   -1    0    0    0  501 -0.00000000000E+00 -0.00000000000E+00 -0.49893341162E+03  0.49893341162E+03  0.00000000000E+00 0. -1.
         21    1    1    2  503  504  0.54245825793E+02  0.91675636347E+01  0.17466091883E+03  0.18312042597E+03  0.00000000000E+00 0. -1.
         21    1    1    2  504  502  0.17492608563E+02  0.31684223085E+02  0.73925581817E+02  0.82309616655E+02  0.00000000000E+00 0. -1.
         21    1    1    2  505  501  0.48633060093E+02 -0.83947894643E+02 -0.16585726551E+03  0.19214852608E+03  0.00000000000E+00 0. -1.
         -1    1    1    2    0  503 -0.12037149445E+03  0.43096107923E+02 -0.29838987461E+03  0.32462761507E+03  0.00000000000E+00 0. -1.
<scales pt_clust_3="93.04762" pt_clust_4="34.81620" pt_clust_5="14000.00000" pt_clust_6="105.73180"></scales>
<clustering>
<clus scale="   34.816">  3  4 -1 -1</clus>
<clus scale="   93.048">  1  3  2 -1</clus>
<clus scale="  105.732">  2  6  1 -1</clus>
<clus scale="   93.048">  1  3  2 -1</clus>
</clustering>
</event>
<event>
 6    0  0.1631680E+002  0.1277202E+03  0.7546771E-02  0.1230878E+00
         21   -1    0    0  505  502  0.00000000000E+00  0.00000000000E+00  0.57606927164E+03  0.57606927164E+03  0.00000000000E+00 0. -1.
          2   -1    0    0  504    0 -0.00000000000E+00 -0.00000000000E+00 -0.19705196307E+03  0.19705196307E+03  0.00000000000E+00 0. -1.
         21    1    1    2  503  502  0.72279016633E+01  0.34617914954E+02  0.76213045341E+02  0.84018277049E+02  0.00000000000E+00 0. -1.
         21    1    1    2  504  503  0.37093973079E+02 -0.91692834091E+01  0.11236263246E+02  0.39828284030E+02  0.00000000000E+00 0. -1.
         21    1    1    2  505  501 -0.13711764631E+03 -0.29510427218E+02  0.44684313030E+03  0.46833844316E+03  0.00000000000E+00 0. -1.
          2    1    1    2  501    0  0.92795771564E+02  0.40617956734E+01 -0.15527513031E+03  0.18093623047E+03  0.00000000000E+00 0. -1.
<scales pt_clust_3="35.36443" pt_clust_4="38.18738" pt_clust_5="127.72017" pt_clust_6="14000.00000"></scales>
<clustering>
<clus scale="   35.364">  1  3  2 -1</clus>
<clus scale="   38.187">  2  4  1 -1</clus>
<clus scale="  127.720">  1  5  2 -1</clus>
<clus scale="   35.364">  1  3  2 -1</clus>
</clustering>
</event>
<event>
 6    0  0.1631680E+002  0.7882257E+02  0.7546771E-02  0.1332426E+00
         21   -1    0    0  505  502  0.00000000000E+00  0.00000000000E+00  0.10852151006E+03  0.10852151006E+03  0.00000000000E+00 0.  1.
         -1   -1    0    0    0  501 -0.00000000000E+00 -0.00000000000E+00 -0.29183523095E+03  0.29183523095E+03  0.00000000000E+00 0.  1.
         21    1    1    2  503  501 -0.88349125944E+02  0.25541167002E+02 -0.11610459225E+03  0.14811548065E+03  0.00000000000E+00 0.  1.
         21    1    1    2  504  502  0.54556815771E+02  0.71900812288E+02 -0.87828146852E+01  0.90682472334E+02  0.00000000000E+00 0.  1.
         21    1    1    2  505  503 -0.11125503983E+02 -0.36890067534E+02  0.27430586395E+02  0.47297896270E+02  0.00000000000E+00 0.  1.
         -1    1    1    2    0  504  0.44917814157E+02 -0.60551911756E+02 -0.85856900357E+02  0.11426089176E+03  0.00000000000E+00 0.  1.
<scales pt_clust_3="14000.00000" pt_clust_4="69.90281" pt_clust_5="38.53121" pt_clust_6="78.82257"></scales>
<clustering>
<clus scale="   38.531">  1  5  2 -1</clus>
<clus scale="   69.903">  1  4  2 -1</clus>
<clus scale="   78.823">  2  6  1 -1</clus>
<clus scale="   38.531">  1  3  2 -1</clus>
</clustering>
</event>
<event>
 6    0  0.1631680E+002  0.1750317E+03  0.7546771E-02  0.1172700E+00
         21   -1    0    0  503  502  0.00000000000E+00  0.00000000000E+00  0.43158638132E+03  0.43158638132E+03  0.00000000000E+00 0. -1.
          1   -1    0    0  504    0 -0.00000000000E+00 -0.00000000000E+00 -0.29144773899E+03  0.29144773899E+03  0.00000000000E+00 0.  1.
         21    1    1    2  503  505  0.65855773342E+02  0.21156483112E+02  0.16146885102E+03  0.17566095044E+03  0.00000000000E+00 0. -1.
         21    1    1    2  504  502 -0.30590572147E+02 -0.50662626306E+01 -0.94704880461E+01  0.32421293391E+02  0.00000000000E+00 0.  1.
         21    1    1    2  505  501 -0.25784674709E+02  0.15627918607E+03  0.19129406860E+03  0.24835751273E+03  0.00000000000E+00 0. -1.
          1    1    1    2  501    0 -0.94805264859E+01 -0.17236940655E+03 -0.20315378925E+03  0.26659436375E+03  0.00000000000E+00 0.  1.
<scales pt_clust_3="68.36609" pt_clust_4="31.00726" pt_clust_5="175.03172" pt_clust_6="14000.00000"></scales>
<clustering>
<clus scale="   31.007">  2  4  1 -1</clus>
<clus scale="   68.366">  1  3  2 -1</clus>
<clus scale="  175.032">  1  5  2 -1</clus>
<clus scale="   68.366">  1  3  2 -1</clus>
</clustering>
</event>
<event>
 6    0  0.1631680E+002  0.1213122E+03  0.7546771E-02  0.1240948E+00
          2   -1    0    0  504    0 -0.00000000000E+00  0.00000000000E+00  0.29303212737E+04  0.29303212737E+04  0.00000000000E+00 0.  1.
         21   -1    0    0  505  502  0.00000000000E+00 -0.00000000000E+00 -0.21965921029E+03  0.21965921029E+03  0.00000000000E+00 0. -1.
         21    1    1    2  503  502 -0.69237123687E+02 -0.94888478326E+02 -0.18535866566E+03  0.21944347234E+03  0.00000000000E+00 0. -1.
         21    1    1    2  504  503  0.34447698278E+02 -0.34409735049E+02  0.65079217559E+03  0.65261100940E+03  0.00000000000E+00 0.  1.
         21    1    1    2  505  501 -0.25003122736E+02  0.18220476035E+02  0.18387920965E+01  0.30992306301E+02  0.00000000000E+00 0.  1.
          2    1    1    2  501    0  0.59792548145E+02  0.11107773734E+03  0.22433897614E+04  0.22469336960E+04  0.00000000000E+00 0.  1.
<scales pt_clust_3="14000.00000" pt_clust_4="48.55403" pt_clust_5="30.93771" pt_clust_6="121.31219"></scales>
<clustering>
<clus scale="   30.938">  2  5  1 -1</clus>
<clus scale="   48.554">  1  4  2 -1</clus>
<clus scale="  121.312">  1  6  2 -1</clus>
<clus scale="   30.938">  2  3  1 -1</clus>
</clustering>
</event>
<event>
 6    0  0.1631680E+002  0.8843989E+02  0.7546771E-02  0.1306674E+00
         21   -1    0    0  505  502  0.00000000000E+00  0.00000000000E+00  0.38669756687E+03  0.38669756687E+03  0.00000000000E+00 0.  1.
          1   -1    0    0  503    0 -0.00000000000E+00 -0.00000000000E+00 -0.17779466637E+04  0.17779466637E+04  0.00000000000E+00 0.  1.
         21    1    1    2  503  502  0.37140887048E+02 -0.25287744159E+02 -0.26855012565E+03  0.27228309805E+03  0.00000000000E+00 0. -1.
         21    1    1    2  504  501 -0.46421542368E+01  0.58183437218E+02  0.26590439443E+02  0.64139796010E+02  0.00000000000E+00 0. -1.
         21    1    1    2  505  504 -0.31998500650E+01 -0.10045312986E+03  0.33109176278E+03  0.34600986362E+03  0.00000000000E+00 0.  1.
          1    1    1    2  501    0 -0.29298882746E+02  0.67557436805E+02 -0.14803811734E+04  0.14822114728E+04  0.00000000000E+00 0.  1.
<scales pt_clust_3="44.93234" pt_clust_4="14000.00000" pt_clust_5="88.43989" pt_clust_6="43.31166"></scales>
<clustering>
<clus scale="   44.932">  2  3  1 -1</clus>
<clus scale="   43.312">  2  6  1 -1</clus>
<clus scale="   88.440">  1  5  2 -1</clus>
<clus scale="   88.440">  1  3  2 -1</clus>
</clustering>
</event>
<event>
 6    0  0.2288116E+002  0.9242930E+02  0.7546771E-02  0.1297073E+00
          2   -1    0    0  503    0 -0.00000000000E+00  0.00000000000E+00  0.21265935986E+04  0.21265935986E+04  0.00000000000E+00 0.  1.
         21   -1    0    0  501  502  0.00000000000E+00 -0.00000000000E+00 -0.29576752439E+03  0.29576752439E+03  0.00000000000E+00 0. -1.
         21    1    1    2  503  505 -0.27217228587E+02 -0.12921650598E+02  0.14858154400E+03  0.15160548078E+03  0.00000000000E+00 0.  1.
         21    1    1    2  504  502 -0.40645395101E+02 -0.81717775220E+02 -0.25210031320E+03  0.26811268311E+03  0.00000000000E+00 0. -1.
         21    1    1    2  505  504  0.98334862993E+02  0.70434217553E+02  0.73805723652E+02  0.14169689173E+03  0.00000000000E+00 0.  1.
          2    1    1    2  501    0 -0.30472239305E+02  0.24205208266E+02  0.18605391197E+04  0.18609460673E+04  0.00000000000E+00 0.  1.
<scales pt_clust_3="30.12883" pt_clust_4="14000.00000" pt_clust_5="92.42930" pt_clust_6="57.37306"></scales>
<clustering>
<clus scale="   30.129">  1  3  2 -1</clus>
<clus scale="   57.373">  1  6  2 -1</clus>
<clus scale="   92.429">  1  5  2 -1</clus>
<clus scale="   92.429">  2  3  1 -1</clus>
</clustering>
</event>
<event>
 6    0  0.1631680E+002  0.3313403E+03  0.7546771E-02  0.1070545E+00
          2   -1    0    0  503    0 -0.00000000000E+00  0.00000000000E+00  0.45837304820E+03  0.45837304820E+03  0.00000000000E+00 0.  1.
         21   -1    0    0  505  502  0.00000000000E+00 -0.00000000000E+00 -0.67574945276E+03  0.67574945276E+03  0.00000000000E+00 0. -1.
         21    1    1    2  503  504  0.15610644690E+03 -0.29015181010E+03 -0.21912465575E+03  0.39569294967E+03  0.00000000000E+00 0. -1.
         21    1    1    2  504  502  0.49832545611E+01  0.37591112701E+02 -0.99772789226E+02  0.10673581428E+03  0.00000000000E+00 0.  1.
         21    1    1    2  505  501 -0.87207998504E+01 -0.42192183155E+02 -0.18705540590E+03  0.19195300869E+03  0.00000000000E+00 0.  1.
          2    1    1    2  501    0 -0.15236890161E+03  0.29475288055E+03  0.28857644631E+03  0.43974072831E+03  0.00000000000E+00 0.  1.
<scales pt_clust_3="331.34032" pt_clust_4="37.91998" pt_clust_5="30.57785" pt_clust_6="14000.00000"></scales>
<clustering>
<clus scale="   37.920">  2  4  1 -1</clus>
<clus scale="   30.578">  2  5  1 -1</clus>
<clus scale="  331.340">  2  3  1 -1</clus>
<clus scale="   37.920">  2  3  1 -1</clus>
</clustering>
</event>
<event>
 6    0  0.1631680E+002  0.1007523E+03  0.7546771E-02  0.1278722E+00
         21   -1    0    0  501  502  0.00000000000E+00  0.00000000000E+00  0.23306057681E+03  0.23306057681E+03  0.00000000000E+00 0.  1.
          2   -1    0    0  505    0 -0.00000000000E+00 -0.00000000000E+00 -0.34489739786E+03  0.34489739786E+03  0.00000000000E+00 0. -1.
         21    1    1    2  503  504  0.48067534861E+02 -0.23334520830E+02 -0.10338068678E+02  0.54423004639E+02  0.00000000000E+00 0.  1.
         21    1    1    2  504  502 -0.12372649998E+02 -0.34974461493E+02  0.17258929081E+03  0.17653146668E+03  0.00000000000E+00 0.  1.
         21    1    1    2  505  503 -0.54604085888E+01 -0.71299533285E+02 -0.53229088533E+02  0.89144687866E+02  0.00000000000E+00 0. -1.
          2    1    1    2  501    0 -0.30234476274E+02  0.12960851561E+03 -0.22085895466E+03  0.25785881549E+03  0.00000000000E+00 0. -1.
<scales pt_clust_3="56.72055" pt_clust_4="37.09846" pt_clust_5="14000.00000" pt_clust_6="100.75234"></scales>
<clustering>
<clus scale="   37.098">  1  4  2 -1</clus>
<clus scale="   56.721">  1  3  2 -1</clus>
<clus scale="  100.752">  1  6  2 -1</clus>
<clus scale="   37.098">  1  3  2 -1</clus>
</clustering>
</event>
<event>
 6    0  0.1631680E+002  0.1320728E+03  0.7546771E-02  0.1224412E+00
          2   -1    0    0  504    0 -0.00000000000E+00  0.00000000000E+00  0.32309034106E+04  0.32309034106E+04  0.00000000000E+00 0.  1.
         21   -1    0    0  503  502  0.00000000000E+00 -0.00000000000E+00 -0.19251263196E+03  0.19251263196E+03  0.00000000000E+00 0.  1.
         21    1    1    2  503  505  0.31673161341E+02 -0.16144316933E+02 -0.16155205802E+03  0.16541733757E+03  0.00000000000E+00 0.  1.
         21    1    1    2  504  502  0.43367508434E+02  0.18058273797E+03  0.39342146497E+03  0.43505323254E+03  0.00000000000E+00 0.  1.
         21    1    1    2  505  501 -0.27940343022E+02 -0.88508957347E+02  0.28276814992E+03  0.29761102955E+03  0.00000000000E+00 0.  1.
          2    1    1    2  501    0 -0.47100326752E+02 -0.75929463686E+02  0.25237532217E+04  0.25253344429E+04  0.00000000000E+00 0.  1.
<scales pt_clust_3="35.55036" pt_clust_4="14000.00000" pt_clust_5="132.07283" pt_clust_6="89.27582"></scales>
<clustering>
<clus scale="   35.550">  2  3  1 -1</clus>
<clus scale="   89.276">  1  6  2 -1</clus>
<clus scale="  132.073">  2  5  1 -1</clus>
<clus scale="   35.550">  2  3  1 -1</clus>
</clustering>
</event>
<event>
 6    0  0.1631680E+002  0.7930646E+02  0.7546771E-02  0.1331031E+00
          2   -1    0    0  503    0 -0.00000000000E+00  0.00000000000E+00  0.74108969398E+03  0.74108969398E+03  0.00000000000E+00 0. -1.
         21   -1    0    0  505  502  0.00000000000E+00 -0.00000000000E+00 -0.57542613195E+02  0.57542613195E+02  0.00000000000E+00 0. -1.
         21    1    1    2  503  504 -0.81865045939E+02 -0.21527389434E+02  0.12276529132E+02  0.85533779350E+02  0.00000000000E+00 0. -1.
         21    1    1    2  504  502 -0.27137986471E+02 -0.37751242208E+02  0.71470607281E+02  0.85262385042E+02  0.00000000000E+00 0. -1.
         21    1    1    2  505  501  0.32875554557E+02  0.38550595022E+02  0.45962118847E+02  0.68406628575E+02  0.00000000000E+00 0. -1.
          2    1    1    2  501    0  0.76127477853E+02  0.20728036620E+02  0.55383782553E+03  0.55942951421E+03  0.00000000000E+00 0. -1.
<scales pt_clust_3="79.30646" pt_clust_4="46.49330" pt_clust_5="40.40746" pt_clust_6="14000.00000"></scales>
<clustering>
<clus scale="   46.493">  2  4  1 -1</clus>
<clus scale="   40.407">  2  5  1 -1</clus>
<clus scale="   79.306">  2  3  1 -1</clus>
<clus scale="   46.493">  2  3  1 -1</clus>
</clustering>
</event>
<event>
 6    0  0.1631680E+002  0.1214706E+03  0.7546771E-02  0.1240691E+00
         21   -1    0    0  503  502  0.00000000000E+00  0.00000000000E+00  0.76446753351E+03  0.76446753351E+03  0.00000000000E+00 0.  1.
          1   -1    0    0  505    0 -0.00000000000E+00 -0.00000000000E+00 -0.19653270345E+04  0.19653270345E+04  0.00000000000E+00 0.  1.
         21    1    1    2  503  501  0.90030892869E+02 -0.16626517395E+02  0.10861859855E+03  0.14205633637E+03  0.00000000000E+00 0.  1.
         21    1    1    2  504  502  0.61324559036E+01 -0.60492560824E+02  0.63389483621E+03  0.63680422448E+03  0.00000000000E+00 0.  1.
         21    1    1    2  505  504 -0.73754953676E+01  0.35470334058E+02 -0.13122503971E+03  0.13613432182E+03  0.00000000000E+00 0.  1.
          1    1    1    2  501    0 -0.88787853405E+02  0.41648744160E+02 -0.18121478960E+04  0.18147996853E+04  0.00000000000E+00 0.  1.
<scales pt_clust_3="14000.00000" pt_clust_4="60.77399" pt_clust_5="36.22903" pt_clust_6="121.47060"></scales>
<clustering>
<clus scale="   36.229">  2  5  1 -1</clus>
<clus scale="   60.774">  1  4  2 -1</clus>
<clus scale="  121.471">  2  6  1 -1</clus>
<clus scale="   60.774">  1  3  2 -1</clus>
</clustering>
</event>
<event>
 6    0  0.1631680E+002  0.4183486E+03  0.7546771E-02  0.1037605E+00
         21   -1    0    0  503  502  0.00000000000E+00  0.00000000000E+00  0.20832289648E+04  0.20832289648E+04  0.00000000000E+00 0.  1.
          2   -1    0    0  502    0 -0.00000000000E+00 -0.00000000000E+00 -0.48919667769E+03  0.48919667769E+03  0.00000000000E+00 0. -1.
         21    1    1    2  503  504 -0.41118460201E+03 -0.41087287116E+02  0.16811856089E+04  0.17312267309E+04  0.00000000000E+00 0.  1.
         21    1    1    2  504  505  0.46332540596E+03 -0.13351000508E+03  0.17775693895E+03  0.51389968146E+03  0.00000000000E+00 0.  1.
         21    1    1    2  505  501  0.39398333014E+01  0.80996336312E+02 -0.13669500686E+03  0.15893852170E+03  0.00000000000E+00 0. -1.
          2    1    1    2  501    0 -0.56080637257E+02  0.93600955884E+02 -0.12821525389E+03  0.16836070844E+03  0.00000000000E+00 0. -1.
<scales pt_clust_3="14000.00000" pt_clust_4="418.34855" pt_clust_5="52.75224" pt_clust_6="192.21691"></scales>
<clustering>
<clus scale="   52.752">  5  6 -1 -1</clus>
<clus scale="  192.217">  2  5  1 -1</clus>
<clus scale="  418.349">  2  4  1 -1</clus>
<clus scale="  418.349">  1  3  2 -1</clus>
</clustering>
</event>
<event>
 6    0  0.1631680E+002  0.2140763E+03  0.7546771E-02  0.1138378E+00
         -1   -1    0    0    0  501 -0.00000000000E+00  0.00000000000E+00  0.14995870090E+04  0.14995870090E+04  0.00000000000E+00 0. -1.
         21   -1    0    0  505  502  0.00000000000E+00 -0.00000000000E+00 -0.13921149405E+03  0.13921149405E+03  0.00000000000E+00 0.  1.
         21    1    1    2  503  501 -0.55711480614E+02 -0.45604799651E+02  0.15167113798E+03  0.16789193226E+03  0.00000000000E+00 0.  1.
         21    1    1    2  504  502  0.13436813375E+03 -0.17127480161E+03  0.72264404057E+02  0.22937305231E+03  0.00000000000E+00 0.  1.
         21    1    1    2  505  503 -0.36325070193E+02 -0.16652171581E+02 -0.30772548150E+02  0.50435654675E+02  0.00000000000E+00 0.  1.
         -1    1    1    2    0  504 -0.42331582939E+02  0.23353177284E+03  0.11672125210E+04  0.11910978638E+04  0.00000000000E+00 0. -1.
<scales pt_clust_3="75.18107" pt_clust_4="14000.00000" pt_clust_5="39.96005" pt_clust_6="214.07631"></scales>
<clustering>
<clus scale="   39.960">  2  5  1 -1</clus>
<clus scale="   75.181">  1  3  2 -1</clus>
<clus scale="  214.076">  1  6  2 -1</clus>
<clus scale="   39.960">  2  3  1 -1</clus>
</clustering>
</event>
<event>
 6    0  0.1631680E+002  0.8032282E+02  0.7546771E-02  0.1328138E+00
         21   -1    0    0  503  502  0.00000000000E+00  0.00000000000E+00  0.42624318195E+03  0.42624318195E+03  0.00000000000E+00 0. -1.
          2   -1    0    0  505    0 -0.00000000000E+00 -0.00000000000E+00 -0.64378998056E+03  0.64378998056E+03  0.00000000000E+00 0. -1.
         21    1    1    2  503  504 -0.43718805567E+02  0.54188655180E+02  0.39171015727E+03  0.39784996119E+03  0.00000000000E+00 0. -1.
         21    1    1    2  504  501  0.11532934825E+03 -0.19402784076E+02 -0.10978095708E+03  0.16040319552E+03  0.00000000000E+00 0. -1.
         21    1    1    2  505  502 -0.37836316287E+01 -0.42808931061E+02 -0.17583739027E+03  0.18101300578E+03  0.00000000000E+00 0.  1.
          2    1    1    2  501    0 -0.67826911053E+02  0.80230599566E+01 -0.32363860855E+03  0.33076700001E+03  0.00000000000E+00 0. -1.
<scales pt_clust_3="69.42191" pt_clust_4="14000.00000" pt_clust_5="42.97581" pt_clust_6="80.32282"></scales>
<clustering>
<clus scale="   42.976">  2  5  1 -1</clus>
<clus scale="   69.422">  1  3  2 -1</clus>
<clus scale="   80.323">  2  6  1 -1</clus>
<clus scale="   69.422">  1  3  2 -1</clus>
</clustering>
</event>
<event>
 6    0  0.1631680E+002  0.8566076E+02  0.7546771E-02  0.1313714E+00
         21   -1    0    0  503  502  0.00000000000E+00  0.00000000000E+00  0.56779472580E+03  0.56779472580E+03  0.00000000000E+00 0. -1.
          2   -1    0    0  504    0 -0.00000000000E+00 -0.00000000000E+00 -0.81588683456E+02  0.81588683456E+02  0.00000000000E+00 0. -1.
         21    1    1    2  503  501  0.36774054591E+02  0.52612719702E+02  0.34958527090E+03  0.35542972723E+03  0.00000000000E+00 0. -1.
         21    1    1    2  504  505  0.22918107757E+02 -0.75921572818E+02  0.22063194308E+02  0.82317127169E+02  0.00000000000E+00 0. -1.
         21    1    1    2  505  502  0.19228938740E+02 -0.40133038194E+02  0.99845876186E+02  0.10931428009E+03  0.00000000000E+00 0. -1.
          2    1    1    2  501    0 -0.78921101088E+02  0.63441891311E+02  0.14711700951E+02  0.10232227477E+03  0.00000000000E+00 0. -1.
<scales pt_clust_3="55.94514" pt_clust_4="14000.00000" pt_clust_5="44.50183" pt_clust_6="85.66076"></scales>
<clustering>
<clus scale="   44.502">  1  5  2 -1</clus>
<clus scale="   55.945">  1  3  2 -1</clus>
<clus scale="   85.661">  1  6  2 -1</clus>
<clus scale="   44.502">  1  3  2 -1</clus>
</clustering>
</event>
<event>
 6    0  0.1631680E+002  0.6433103E+02  0.7546771E-02  0.1380506E+00
         -2   -1    0    0    0  501 -0.00000000000E+00  0.00000000000E+00  0.52020117032E+03  0.52020117032E+03  0.00000000000E+00 0.  1.
         21   -1    0    0  504  502  0.00000000000E+00 -0.00000000000E+00 -0.70107772534E+03  0.70107772534E+03  0.00000000000E+00 0.  1.
         21    1    1    2  503  501 -0.55596573213E+02  0.32785072916E+02  0.32976986513E+03  0.33602679046E+03  0.00000000000E+00 0.  1.
         21    1    1    2  504  503 -0.32704743874E+02 -0.38554291484E+02 -0.58437550967E+03  0.58655841138E+03  0.00000000000E+00 0.  1.
         21    1    1    2  505  502  0.91142924634E+02  0.60438596571E+02 -0.80006411474E+02  0.13550233409E+03  0.00000000000E+00 0.  1.
         -2    1    1    2    0  505 -0.28416075475E+01 -0.54669378002E+02  0.15373550099E+03  0.16319135973E+03  0.00000000000E+00 0.  1.
<scales pt_clust_3="64.33103" pt_clust_4="50.55723" pt_clust_5="14000.00000" pt_clust_6="56.40110"></scales>
<clustering>
<clus scale="   50.557">  2  4  1 -1</clus>
<clus scale="   56.401">  1  6  2 -1</clus>
<clus scale="   64.331">  1  3  2 -1</clus>
<clus scale="   50.557">  2  3  1 -1</clus>
</clustering>
</event>
<event>
 6    0  0.1631680E+002  0.8279190E+02  0.7546771E-02  0.1321310E+00
         21   -1    0    0  505  502  0.00000000000E+00  0.00000000000E+00  0.59228012676E+03  0.59228012676E+03  0.00000000000E+00 0.  1.
          2   -1    0    0  504    0 -0.00000000000E+00 -0.00000000000E+00 -0.93293515060E+03  0.93293515060E+03  0.00000000000E+00 0.  1.
         21    1    1    2  503  501 -0.65762788130E+02 -0.80631621137E+02  0.46321293681E+03  0.47475512368E+03  0.00000000000E+00 0.  1.
         21    1    1    2  504  502 -0.73764536572E+02 -0.27320406679E+01 -0.72377482333E+02  0.10337877370E+03  0.00000000000E+00 0.  1.
         21    1    1    2  505  503 -0.65048119858E+01  0.43113746344E+02  0.96212727385E+02  0.10563141869E+03  0.00000000000E+00 0. -1.
          2    1    1    2  501    0  0.14603213669E+03  0.40249915461E+02 -0.82770320570E+03  0.84144996130E+03  0.00000000000E+00 0.  1.
<scales pt_clust_3="82.79190" pt_clust_4="73.98246" pt_clust_5="43.60169" pt_clust_6="14000.00000"></scales>
<clustering>
<clus scale="   43.602">  1  5  2 -1</clus>
<clus scale="   73.982">  2  4  1 -1</clus>
<clus scale="   82.792">  1  3  2 -1</clus>
<clus scale="   43.602">  1  3  2 -1</clus>
</clustering>
</event>
<event>
 6    0  0.1631680E+002  0.1018351E+03  0.7546771E-02  0.1276484E+00
         21   -1    0    0  504  502  0.00000000000E+00  0.00000000000E+00  0.13578502335E+03  0.13578502335E+03  0.00000000000E+00 0.  1.
          2   -1    0    0  503    0 -0.00000000000E+00 -0.00000000000E+00 -0.94584079323E+03  0.94584079323E+03  0.00000000000E+00 0.  1.
         21    1    1    2  503  505  0.16728151302E+01 -0.62219909081E+02 -0.70735276966E+02  0.94220989190E+02  0.00000000000E+00 0.  1.
         21    1    1    2  504  501  0.11802814446E+03  0.82478592272E+01  0.24567639862E+02  0.12083972441E+03  0.00000000000E+00 0.  1.
         21    1    1    2  505  502 -0.25530121954E+02  0.15792798304E+02  0.43474893565E+02  0.52832432991E+02  0.00000000000E+00 0.  1.
          2    1    1    2  501    0 -0.94170837637E+02  0.38179251549E+02 -0.80736302634E+03  0.81373266999E+03  0.00000000000E+00 0.  1.
<scales pt_clust_3="60.12905" pt_clust_4="101.83514" pt_clust_5="30.01999" pt_clust_6="14000.00000"></scales>
<clustering>
<clus scale="   30.020">  1  5  2 -1</clus>
<clus scale="   60.129">  1  3  2 -1</clus>
<clus scale="  101.835">  1  4  2 -1</clus>
<clus scale="   30.020">  1  3  2 -1</clus>
</clustering>
</event>
<event>
 6    0  0.1631680E+002  0.2526933E+03  0.7546771E-02  0.1111614E+00
         21   -1    0    0  504  502  0.00000000000E+00  0.00000000000E+00  0.95987029107E+02  0.95987029107E+02  0.00000000000E+00 0. -1.
          2   -1    0    0  505    0 -0.00000000000E+00 -0.00000000000E+00 -0.46576029280E+04  0.46576029280E+04  0.00000000000E+00 0. -1.
         21    1    1    2  503  501 -0.24264534016E+03 -0.10311911516E+03 -0.22360690083E+03  0.34570270336E+03  0.00000000000E+00 0. -1.
         21    1    1    2  504  503 -0.12403159501E+02  0.87785361341E+02 -0.36934512487E+02  0.96043043705E+02  0.00000000000E+00 0. -1.
         21    1    1    2  505  502  0.23129917480E+02 -0.28721076388E+02 -0.16137101831E+04  0.16141314842E+04  0.00000000000E+00 0.  1.
          2    1    1    2  501    0  0.23191858219E+03  0.44054830205E+02 -0.26873643025E+04  0.26977127258E+04  0.00000000000E+00 0. -1.
<scales pt_clust_3="252.69330" pt_clust_4="87.96629" pt_clust_5="36.87673" pt_clust_6="14000.00000"></scales>
<clustering>
<clus scale="   36.877">  2  5  1 -1</clus>
<clus scale="   87.966">  1  4  2 -1</clus>
<clus scale="  252.693">  1  3  2 -1</clus>
<clus scale="   87.966">  1  3  2 -1</clus>
</clustering>
</event>
<event>
 6    0  0.2856747E+002  0.1194453E+03  0.7546771E-02  0.1244015E+00
          2   -1    0    0  505    0 -0.00000000000E+00  0.00000000000E+00  0.70581717136E+03  0.70581717136E+03  0.00000000000E+00 0. -1.
         21   -1    0    0  504  502  0.00000000000E+00 -0.00000000000E+00 -0.85860878776E+03  0.85860878776E+03  0.00000000000E+00 0. -1.
         21    1    1    2  503  502 -0.35458472829E+02  0.12739641570E+02 -0.30607727960E+02  0.48543122825E+02  0.00000000000E+00 0.  1.
         21    1    1    2  504  501 -0.69794754939E+02  0.46198783138E+02 -0.80047939295E+03  0.80484339714E+03  0.00000000000E+00 0. -1.
         21    1    1    2  505  503  0.86616619275E+01 -0.31259838935E+02  0.82074384240E+01  0.33459885880E+02  0.00000000000E+00 0. -1.
          2    1    1    2  501    0  0.96591565841E+02 -0.27678585773E+02  0.67008806608E+03  0.67757955327E+03  0.00000000000E+00 0. -1.
<scales pt_clust_3="37.43411" pt_clust_4="119.44528" pt_clust_5="32.43766" pt_clust_6="14000.00000"></scales>
<clustering>
<clus scale="   32.438">  1  5  2 -1</clus>
<clus scale="   37.434">  2  3  1 -1</clus>
<clus scale="  119.445">  2  4  1 -1</clus>
<clus scale="   37.434">  2  3  1 -1</clus>
</clustering>
</event>
<event>
 6    0  0.1631680E+002  0.9542241E+02  0.7546771E-02  0.1290228E+00
         21   -1    0    0  504  502  0.00000000000E+00  0.00000000000E+00  0.57571501565E+03  0.57571501565E+03  0.00000000000E+00 0. -1.
          2   -1    0    0  503    0 -0.00000000000E+00 -0.00000000000E+00 -0.16017340841E+04  0.16017340841E+04  0.00000000000E+00 0.  1.
         21    1    1    2  503  505  0.23591518401E+02  0.27893329943E+02 -0.29090959489E+03  0.29319445765E+03  0.00000000000E+00 0.  1.
         21    1    1    2  504  501  0.14702393952E+02 -0.87258878285E+02 -0.16873111993E+02  0.90083151232E+02  0.00000000000E+00 0. -1.
         21    1    1    2  505  502 -0.71036203292E+02  0.16314179013E+03  0.52080395439E+03  0.55036183077E+03  0.00000000000E+00 0. -1.
          2    1    1    2  501    0  0.32742290939E+02 -0.10377624179E+03 -0.12390403159E+04  0.12438096601E+04  0.00000000000E+00 0.  1.
<scales pt_clust_3="36.53214" pt_clust_4="87.53316" pt_clust_5="95.42241" pt_clust_6="14000.00000"></scales>
<clustering>
<clus scale="   36.532">  2  3  1 -1</clus>
<clus scale="   87.533">  1  4  2 -1</clus>
<clus scale="   95.422">  1  5  2 -1</clus>
<clus scale="   87.533">  1  3  2 -1</clus>
</clustering>
</event>
<event>
 6    0  0.1631680E+002  0.7891133E+02  0.7546771E-02  0.1332170E+00
         21   -1    0    0  501  502  0.00000000000E+00  0.00000000000E+00  0.20924567762E+03  0.20924567762E+03  0.00000000000E+00 0.  1.
          1   -1    0    0  503    0 -0.00000000000E+00 -0.00000000000E+00 -0.26769422504E+04  0.26769422504E+04  0.00000000000E+00 0.  1.
         21    1    1    2  503  504  0.31159768809E+02 -0.30792890578E+01 -0.19545891321E+04  0.19548399138E+04  0.00000000000E+00 0.  1.
         21    1    1    2  504  505 -0.90247100474E+02  0.77519311009E+02  0.66192179386E+01  0.11915366872E+03  0.00000000000E+00 0.  1.
         21    1    1    2  505  502  0.60121348355E+02 -0.40661489957E+02  0.13676636676E+03  0.15483207798E+03  0.00000000000E+00 0.  1.
          1    1    1    2  501    0 -0.10340166903E+01 -0.33778531994E+02 -0.65649302535E+03  0.65736226751E+03  0.00000000000E+00 0.  1.
<scales pt_clust_3="31.31155" pt_clust_4="78.91133" pt_clust_5="14000.00000" pt_clust_6="45.64871"></scales>
<clustering>
<clus scale="   31.312">  2  3  1 -1</clus>
<clus scale="   45.649">  2  6  1 -1</clus>
<clus scale="   78.911">  2  4  1 -1</clus>
<clus scale="   78.911">  1  3  2 -1</clus>
</clustering>
</event>
<event>
 6    0  0.1631680E+002  0.6301691E+02  0.7546771E-02  0.1385590E+00
          2   -1    0    0  505    0 -0.00000000000E+00  0.00000000000E+00  0.19985252373E+04  0.19985252373E+04  0.00000000000E+00 0. -1.
         21   -1    0    0  504  502  0.00000000000E+00 -0.00000000000E+00 -0.21968983772E+02  0.21968983772E+02  0.00000000000E+00 0.  1.
         21    1    1    2  503  502 -0.44575717231E+02 -0.31455760114E+02  0.33245158064E+02  0.63888183146E+02  0.00000000000E+00 0.  1.
         21    1    1    2  504  501  0.27472026489E+02 -0.26636924058E+02  0.12617102569E+03  0.13184599230E+03  0.00000000000E+00 0.  1.
         21    1    1    2  505  503 -0.22106993500E+02 -0.44188518055E+02  0.34097675847E+03  0.34453808803E+03  0.00000000000E+00 0.  1.
          2    1    1    2  501    0  0.39210684242E+02  0.10228120223E+03  0.14761633113E+04  0.14802219575E+04  0.00000000000E+00 0. -1.
<scales pt_clust_3="14000.00000" pt_clust_4="38.26536" pt_clust_5="50.59726" pt_clust_6="63.01691"></scales>
<clustering>
<clus scale="   38.265">  2  4  1 -1</clus>
<clus scale="   50.597">  1  5  2 -1</clus>
<clus scale="   63.017">  1  6  2 -1</clus>
<clus scale="   38.265">  2  3  1 -1</clus>
</clustering>
</event>
<event>
 6    0  0.1631680E+002  0.7934500E+02  0.7546771E-02  0.1330921E+00
         21   -1    0    0  503  502  0.00000000000E+00  0.00000000000E+00  0.46286205592E+02  0.46286205592E+02  0.00000000000E+00 0. -1.
          1   -1    0    0  504    0 -0.00000000000E+00 -0.00000000000E+00 -0.24215018869E+04  0.24215018869E+04  0.00000000000E+00 0. -1.
         21    1    1    2  503  501  0.37155418666E+02 -0.48882455686E+01 -0.49176408698E+02  0.61828304630E+02  0.00000000000E+00 0. -1.
         21    1    1    2  504  505 -0.19665710784E+02  0.30130391249E+02 -0.24530207122E+03  0.24792677710E+03  0.00000000000E+00 0. -1.
         21    1    1    2  505  502 -0.50064599119E+02  0.80788762210E+02 -0.23629465774E+02  0.97936917642E+02  0.00000000000E+00 0. -1.
          1    1    1    2  501    0  0.32574891237E+02 -0.10603090789E+03 -0.20571077356E+04  0.20600960931E+04  0.00000000000E+00 0. -1.
<scales pt_clust_3="36.88431" pt_clust_4="35.98028" pt_clust_5="79.34500" pt_clust_6="14000.00000"></scales>
<clustering>
<clus scale="   35.980">  2  4  1 -1</clus>
<clus scale="   36.884">  1  3  2 -1</clus>
<clus scale="   79.345">  1  5  2 -1</clus>
<clus scale="   36.884">  1  3  2 -1</clus>
</clustering>
</event>
<event>
 6    0  0.1631680E+002  0.9022743E+02  0.7546771E-02  0.1302302E+00
         21   -1    0    0  501  502  0.00000000000E+00  0.00000000000E+00  0.40623626378E+03  0.40623626378E+03  0.00000000000E+00 0.  1.
          1   -1    0    0  503    0 -0.00000000000E+00 -0.00000000000E+00 -0.40197174096E+03  0.40197174096E+03  0.00000000000E+00 0.  1.
         21    1    1    2  503  504  0.62947989783E+01 -0.29476499369E+02 -0.15119712963E+02  0.33720827826E+02  0.00000000000E+00 0.  1.
         21    1    1    2  504  505  0.41979055567E+02  0.26568657401E+02 -0.77523390335E+02  0.92076113685E+02  0.00000000000E+00 0.  1.
         21    1    1    2  505  502  0.86036708911E+02  0.24263794697E+02  0.36822326807E+03  0.37891875404E+03  0.00000000000E+00 0.  1.
          1    1    1    2  501    0 -0.13431056346E+03 -0.21355952729E+02 -0.27131564195E+03  0.30349230919E+03  0.00000000000E+00 0.  1.
<scales pt_clust_3="30.14114" pt_clust_4="47.75846" pt_clust_5="90.22743" pt_clust_6="14000.00000"></scales>
<clustering>
<clus scale="   30.141">  2  3  1 -1</clus>
<clus scale="   47.758">  2  4  1 -1</clus>
<clus scale="   90.227">  1  5  2 -1</clus>
<clus scale="   90.227">  1  3  2 -1</clus>
</clustering>
</event>
<event>
 6    0  0.1631680E+002  0.2147556E+03  0.7546771E-02  0.1137854E+00
          2   -1    0    0  503    0 -0.00000000000E+00  0.00000000000E+00  0.21564241587E+04  0.21564241587E+04  0.00000000000E+00 0.  1.
         21   -1    0    0  501  502  0.00000000000E+00 -0.00000000000E+00 -0.60244764644E+02  0.60244764644E+02  0.00000000000E+00 0. -1.
         21    1    1    2  503  505  0.19672724075E+02 -0.36201135008E+02  0.35305405017E+03  0.35544999731E+03  0.00000000000E+00 0.  1.
         21    1    1    2  504  502 -0.13168217160E+02  0.36587459216E+02  0.46265153501E+02  0.60435987156E+02  0.00000000000E+00 0.  1.
         21    1    1    2  505  504 -0.17914157709E+03 -0.13031752730E+03  0.23466774057E+03  0.32271242775E+03  0.00000000000E+00 0. -1.
          2    1    1    2  501    0  0.17263707018E+03  0.12993120309E+03  0.14621924498E+04  0.14780705111E+04  0.00000000000E+00 0.  1.
<scales pt_clust_3="40.33526" pt_clust_4="38.88501" pt_clust_5="214.75556" pt_clust_6="14000.00000"></scales>
<clustering>
<clus scale="   38.885">  2  4  1 -1</clus>
<clus scale="   40.335">  1  3  2 -1</clus>
<clus scale="  214.756">  2  5  1 -1</clus>
<clus scale="   38.885">  2  3  1 -1</clus>
</clustering>
</event>
<event>
 6    0  0.1631680E+002  0.7615173E+02  0.7546771E-02  0.1340341E+00
          1   -1    0    0  505    0 -0.00000000000E+00  0.00000000000E+00  0.18170892873E+03  0.18170892873E+03  0.00000000000E+00 0.  1.
         21   -1    0    0  503  502  0.00000000000E+00 -0.00000000000E+00 -0.21534680739E+03  0.21534680739E+03  0.00000000000E+00 0.  1.
         21    1    1    2  503  501 -0.79351915044E+02 -0.38976409854E+01 -0.76107716406E+02  0.11001955518E+03  0.00000000000E+00 0.  1.
         21    1    1    2  504  502  0.39159216765E+02  0.62738907459E+02 -0.74534948893E+02  0.10500034940E+03  0.00000000000E+00 0.  1.
         21    1    1    2  505  504  0.21681440624E+02  0.33112479004E+02  0.61227388711E+02  0.72906201806E+02  0.00000000000E+00 0.  1.
          1    1    1    2  501    0  0.18511257655E+02 -0.91953745478E+02  0.55777397927E+02  0.10912962974E+03  0.00000000000E+00 0.  1.
<scales pt_clust_3="76.15173" pt_clust_4="70.84266" pt_clust_5="39.57930" pt_clust_6="14000.00000"></scales>
<clustering>
<clus scale="   39.579">  1  5  2 -1</clus>
<clus scale="   76.152">  2  3  1 -1</clus>
<clus scale="   70.843">  2  4  1 -1</clus>
<clus scale="   76.152">  2  3  1 -1</clus>
</clustering>
</event>
<event>
 6    0  0.1631680E+002  0.8087042E+02  0.7546771E-02  0.1326599E+00
          2   -1    0    0  503    0 -0.00000000000E+00  0.00000000000E+00  0.13785800643E+04  0.13785800643E+04  0.00000000000E+00 0.  1.
         21   -1    0    0  505  502  0.00000000000E+00 -0.00000000000E+00 -0.33124148964E+03  0.33124148964E+03  0.00000000000E+00 0.  1.
         21    1    1    2  503  502 -0.52121042659E+02 -0.86699915380E+02 -0.14783323889E+03  0.17913164136E+03  0.00000000000E+00 0.  1.
         21    1    1    2  504  501  0.38841633204E+02  0.25550197193E+02  0.23154969919E+03  0.23617101482E+03  0.00000000000E+00 0.  1.
         21    1    1    2  505  504 -0.29779391792E+02  0.76949205419E+02 -0.15466179938E+03  0.17529479336E+03  0.00000000000E+00 0.  1.
          2    1    1    2  501    0  0.43058801248E+02 -0.15799487232E+02  0.11182839137E+04  0.11192241044E+04  0.00000000000E+00 0.  1.
<scales pt_clust_3="14000.00000" pt_clust_4="78.42009" pt_clust_5="80.87042" pt_clust_6="45.86594"></scales>
<clustering>
<clus scale="   45.866">  1  6  2 -1</clus>
<clus scale="   78.420">  1  4  2 -1</clus>
<clus scale="   80.870">  2  5  1 -1</clus>
<clus scale="   80.870">  2  3  1 -1</clus>
</clustering>
</event>
<event>
 6    0  0.1631680E+002  0.7299496E+02  0.7546771E-02  0.1350195E+00
         21   -1    0    0  503  502  0.00000000000E+00  0.00000000000E+00  0.14983862863E+04  0.14983862863E+04  0.00000000000E+00 0.  1.
         -3   -1    0    0    0  501 -0.00000000000E+00 -0.00000000000E+00 -0.98877307599E+02  0.98877307599E+02  0.00000000000E+00 0. -1.
         21    1    1    2  503  501  0.94586880631E+01  0.40320228528E+02  0.67563161027E+02  0.79246251245E+02  0.00000000000E+00 0.  1.
         21    1    1    2  504  502 -0.52209467442E+02  0.30612754034E+02  0.54780858223E+03  0.55114173492E+03  0.00000000000E+00 0.  1.
         21    1    1    2  505  504  0.10975832130E+03  0.69731335153E+01  0.84186059026E+03  0.84901399701E+03  0.00000000000E+00 0.  1.
         -3    1    1    2    0  505 -0.67007541923E+02 -0.77906116078E+02 -0.57723354803E+02  0.11786161074E+03  0.00000000000E+00 0. -1.
<scales pt_clust_3="41.41482" pt_clust_4="60.74577" pt_clust_5="72.99496" pt_clust_6="14000.00000"></scales>
<clustering>
<clus scale="   41.415">  2  3  1 -1</clus>
<clus scale="   60.746">  1  4  2 -1</clus>
<clus scale="   72.995">  1  5  2 -1</clus>
<clus scale="   60.746">  1  3  2 -1</clus>
</clustering>
</event>
<event>
 6    0  0.1631680E+002  0.1778422E+03  0.7546771E-02  0.1169908E+00
         21   -1    0    0  504  502  0.00000000000E+00  0.00000000000E+00  0.40981241208E+03  0.40981241208E+03  0.00000000000E+00 0. -1.
          2   -1    0    0  505    0 -0.00000000000E+00 -0.00000000000E+00 -0.21920130803E+04  0.21920130803E+04  0.00000000000E+00 0.  1.
         21    1    1    2  503  502  0.68686265986E+01 -0.20268029329E+03  0.33231732088E+03  0.38930872206E+03  0.00000000000E+00 0. -1.
         21    1    1    2  504  501  0.84983106933E+01  0.11069948758E+03 -0.36890441040E+02  0.11699360014E+03  0.00000000000E+00 0. -1.
         21    1    1    2  505  503 -0.35735834487E+02  0.13805577032E+02 -0.19000183074E+04  0.19004044865E+04  0.00000000000E+00 0.  1.
          2    1    1    2  501    0  0.20368897195E+02  0.78175228680E+02 -0.17760924072E+03  0.19511868374E+03  0.00000000000E+00 0.  1.
<scales pt_clust_3="177.84221" pt_clust_4="14000.00000" pt_clust_5="38.30984" pt_clust_6="87.02701"></scales>
<clustering>
<clus scale="   38.310">  2  5  1 -1</clus>
<clus scale="   87.027">  2  6  1 -1</clus>
<clus scale="  177.842">  1  3  2 -1</clus>
<clus scale="  177.842">  1  3  2 -1</clus>
</clustering>
</event>
<event>
 6    0  0.1631680E+002  0.9683100E+02  0.7546771E-02  0.1287105E+00
         21   -1    0    0  501  502  0.00000000000E+00  0.00000000000E+00  0.18165860959E+04  0.18165860959E+04  0.00000000000E+00 0. -1.
          2   -1    0    0  503    0 -0.00000000000E+00 -0.00000000000E+00 -0.72276536080E+03  0.72276536080E+03  0.00000000000E+00 0.  1.
         21    1    1    2  503  504 -0.31105930445E+01  0.65133016791E+02 -0.81509699302E+02  0.10438302901E+03  0.00000000000E+00 0. -1.
         21    1    1    2  504  505  0.41384244703E+01 -0.67082253038E+02  0.28407117060E+03  0.29191366052E+03  0.00000000000E+00 0. -1.
         21    1    1    2  505  502  0.59394682433E+02 -0.16376557266E+02  0.15149368655E+04  0.15161891790E+04  0.00000000000E+00 0. -1.
          2    1    1    2  501    0 -0.60422513859E+02  0.18325793513E+02 -0.62367760167E+03  0.62686558824E+03  0.00000000000E+00 0.  1.
<scales pt_clust_3="96.83100" pt_clust_4="14000.00000" pt_clust_5="61.61104" pt_clust_6="62.81430"></scales>
<clustering>
<clus scale="   61.611">  1  5  2 -1</clus>
<clus scale="   62.814">  2  6  1 -1</clus>
<clus scale="   96.831">  2  3  1 -1</clus>
<clus scale="   61.611">  1  3  2 -1</clus>
</clustering>
</event>
<event>
 6    0  0.1631680E+002  0.7225006E+02  0.7546771E-02  0.1352605E+00
         21   -1    0    0  503  502  0.00000000000E+00  0.00000000000E+00  0.28504398485E+03  0.28504398485E+03  0.00000000000E+00 0. -1.
          3   -1    0    0  504    0 -0.00000000000E+00 -0.00000000000E+00 -0.42673755726E+03  0.42673755726E+03  0.00000000000E+00 0. -1.
         21    1    1    2  503  501  0.85951810817E+02  0.50259396493E+02  0.18540765101E+03  0.21045122421E+03  0.00000000000E+00 0. -1.
         21    1    1    2  504  505  0.43499211758E+02 -0.16517661997E+02 -0.66891588561E+02  0.81483122189E+02  0.00000000000E+00 0.  1.
         21    1    1    2  505  502 -0.35666068969E+02 -0.20217792377E+01  0.68118269751E+02  0.76917194052E+02  0.00000000000E+00 0.  1.
          3    1    1    2  501    0 -0.93784953606E+02 -0.31719955258E+02 -0.32832790462E+03  0.34293000166E+03  0.00000000000E+00 0. -1.
<scales pt_clust_3="14000.00000" pt_clust_4="45.41247" pt_clust_5="35.72333" pt_clust_6="72.25006"></scales>
<clustering>
<clus scale="   35.723">  1  5  2 -1</clus>
<clus scale="   45.412">  2  4  1 -1</clus>
<clus scale="   72.250">  2  6  1 -1</clus>
<clus scale="   35.723">  1  3  2 -1</clus>
</clustering>
</event>
<event>
 6    0  0.1631680E+002  0.2138804E+03  0.7546771E-02  0.1138529E+00
          1   -1    0    0  505    0 -0.00000000000E+00  0.00000000000E+00  0.80863920895E+03  0.80863920895E+03  0.00000000000E+00 0. -1.
         21   -1    0    0  501  502  0.00000000000E+00 -0.00000000000E+00 -0.21697453922E+03  0.21697453922E+03  0.00000000000E+00 0. -1.
         21    1    1    2  503  502 -0.99422905370E+01 -0.46098693709E+02 -0.97908096320E+02  0.10867352036E+03  0.00000000000E+00 0. -1.
         21    1    1    2  504  503 -0.15364998929E+03  0.17390550557E+03  0.68819260510E+02  0.24204862051E+03  0.00000000000E+00 0. -1.
         21    1    1    2  505  504 -0.30759011376E+02 -0.28081309841E+02  0.15429871870E+03  0.15982106036E+03  0.00000000000E+00 0. -1.
          1    1    1    2  501    0  0.19435129120E+03 -0.99725502019E+02  0.46645478684E+03  0.51507054693E+03  0.00000000000E+00 0. -1.
<scales pt_clust_3="47.43941" pt_clust_4="14000.00000" pt_clust_5="41.64945" pt_clust_6="213.88045"></scales>
<clustering>
<clus scale="   41.649">  1  5  2 -1</clus>
<clus scale="   47.439">  2  3  1 -1</clus>
<clus scale="  213.880">  1  6  2 -1</clus>
<clus scale="   47.439">  2  3  1 -1</clus>
</clustering>
</event>
<event>
 6    0  0.1631680E+002  0.7634084E+02  0.7546771E-02  0.1339768E+00
         21   -1    0    0  504  502  0.00000000000E+00  0.00000000000E+00  0.15279076028E+03  0.15279076028E+03  0.00000000000E+00 0.  1.
          1   -1    0    0  503    0 -0.00000000000E+00 -0.00000000000E+00 -0.96424704567E+03  0.96424704567E+03  0.00000000000E+00 0.  1.
         21    1    1    2  503  505 -0.58269390415E+02  0.13144684172E+02 -0.16530551330E+03  0.17576694032E+03  0.00000000000E+00 0.  1.
         21    1    1    2  504  501 -0.48846640364E+01  0.79896012688E+02  0.51663054359E+02  0.95269638248E+02  0.00000000000E+00 0.  1.
         21    1    1    2  505  502  0.53728513045E+02 -0.17952869520E+02  0.61101901351E+02  0.83321671771E+02  0.00000000000E+00 0.  1.
          1    1    1    2  501    0  0.94255414071E+01 -0.75087827340E+02 -0.75891572780E+03  0.76267955562E+03  0.00000000000E+00 0.  1.
<scales pt_clust_3="56.07613" pt_clust_4="14000.00000" pt_clust_5="56.64855" pt_clust_6="76.34084"></scales>
<clustering>
<clus scale="   56.649">  1  5  2 -1</clus>
<clus scale="   56.076">  2  3  1 -1</clus>
<clus scale="   76.341">  2  6  1 -1</clus>
<clus scale="   56.649">  1  3  2 -1</clus>
</clustering>
</event>
<event>
 6    0  0.1631680E+002  0.1349767E+03  0.7546771E-02  0.1220253E+00
         -2   -1    0    0    0  501 -0.00000000000E+00  0.00000000000E+00  0.15028289650E+03  0.15028289650E+03  0.00000000000E+00 0. -1.
         21   -1    0    0  503  502  0.00000000000E+00 -0.00000000000E+00 -0.93511969363E+03  0.93511969363E+03  0.00000000000E+00 0.  1.
         21    1    1    2  503  501  0.24557730807E+02  0.21414980488E+02 -0.50827948134E+01  0.32977542886E+02  0.00000000000E+00 0. -1.
         21    1    1    2  504  505 -0.11305270848E+03 -0.43299321467E+02 -0.68420880169E+03  0.69483626161E+03  0.00000000000E+00 0.  1.
         21    1    1    2  505  502 -0.22987890775E+02  0.21711478467E+02 -0.20139352105E+03  0.20386069199E+03  0.00000000000E+00 0.  1.
         -2    1    1    2    0  504  0.11148286845E+03  0.17286251294E+00  0.10584832042E+03  0.15372809365E+03  0.00000000000E+00 0. -1.
<scales pt_clust_3="32.51437" pt_clust_4="134.97670" pt_clust_5="31.62011" pt_clust_6="14000.00000"></scales>
<clustering>
<clus scale="   31.620">  2  5  1 -1</clus>
<clus scale="   32.514">  1  3  2 -1</clus>
<clus scale="  134.977">  2  4  1 -1</clus>
<clus scale="   31.620">  2  3  1 -1</clus>
</clustering>
</event>
<event>
 6    0  0.1631680E+002  0.1528029E+03  0.7546771E-02  0.1197070E+00
         -1   -1    0    0    0  501 -0.00000000000E+00  0.00000000000E+00  0.11851200437E+04  0.11851200437E+04  0.00000000000E+00 0. -1.
         21   -1    0    0  503  502  0.00000000000E+00 -0.00000000000E+00 -0.36984587838E+03  0.36984587838E+03  0.00000000000E+00 0.  1.
         21    1    1    2  503  505  0.11321994186E+03 -0.19786809802E+02 -0.18094447806E+03  0.21436225698E+03  0.00000000000E+00 0.  1.
         21    1    1    2  504  502  0.42304250975E+02  0.36308562786E+02 -0.15750774456E+03  0.16708276685E+03  0.00000000000E+00 0.  1.
         21    1    1    2  505  501 -0.43521431924E+02  0.15851626196E+01  0.61169675189E+02  0.75088993468E+02  0.00000000000E+00 0. -1.
         -1    1    1    2    0  504 -0.11200276091E+03 -0.18106915604E+02  0.10925567128E+04  0.10984319048E+04  0.00000000000E+00 0. -1.
<scales pt_clust_3="152.80292" pt_clust_4="55.61211" pt_clust_5="43.55029" pt_clust_6="14000.00000"></scales>
<clustering>
<clus scale="   43.550">  1  5  2 -1</clus>
<clus scale="   55.612">  2  4  1 -1</clus>
<clus scale="  152.803">  2  3  1 -1</clus>
<clus scale="   55.612">  2  3  1 -1</clus>
</clustering>
</event>
<event>
 6    0  0.1631680E+002  0.1049464E+03  0.7546771E-02  0.1270225E+00
          1   -1    0    0  505    0 -0.00000000000E+00  0.00000000000E+00  0.14391225866E+03  0.14391225866E+03  0.00000000000E+00 0.  1.
         21   -1    0    0  504  502  0.00000000000E+00 -0.00000000000E+00 -0.74542702619E+03  0.74542702619E+03  0.00000000000E+00 0. -1.
         21    1    1    2  503  502 -0.10658208931E+02 -0.44316896434E+02 -0.14998290435E+03  0.15675604079E+03  0.00000000000E+00 0.  1.
         21    1    1    2  504  501 -0.70862757697E+02 -0.29540429556E+02 -0.48972393897E+03  0.49570525901E+03  0.00000000000E+00 0. -1.
         21    1    1    2  505  503 -0.49065674337E+02  0.40910288033E+02 -0.45394210172E+02  0.78369167293E+02  0.00000000000E+00 0.  1.
          1    1    1    2  501    0  0.13058664096E+03  0.32947037957E+02  0.83586285960E+02  0.15850881776E+03  0.00000000000E+00 0.  1.
<scales pt_clust_3="45.58053" pt_clust_4="14000.00000" pt_clust_5="61.92022" pt_clust_6="104.94638"></scales>
<clustering>
<clus scale="   45.581">  2  3  1 -1</clus>
<clus scale="   61.920">  1  5  2 -1</clus>
<clus scale="  104.946">  1  6  2 -1</clus>
<clus scale="   45.581">  2  3  1 -1</clus>
</clustering>
</event>
<event>
 6    0  0.1631680E+002  0.6901148E+02  0.7546771E-02  0.1363487E+00
          2   -1    0    0  504    0 -0.00000000000E+00  0.00000000000E+00  0.21321340504E+04  0.21321340504E+04  0.00000000000E+00 0. -1.
         21   -1    0    0  505  502  0.00000000000E+00 -0.00000000000E+00 -0.14934409974E+03  0.14934409974E+03  0.00000000000E+00 0. -1.
         21    1    1    2  503  502  0.98444631093E+02  0.34878711578E+02 -0.11038971505E+03  0.15196630910E+03  0.00000000000E+00 0. -1.
         21    1    1    2  504  503  0.50492061910E+02 -0.22460020265E+02  0.33783298938E+03  0.34232299008E+03  0.00000000000E+00 0.  1.
         21    1    1    2  505  501 -0.55787272392E+02  0.17793846348E+02  0.44511816526E+02  0.73553671148E+02  0.00000000000E+00 0.  1.
          2    1    1    2  501    0 -0.93149420612E+02 -0.30212537662E+02  0.17108348598E+04  0.17136351799E+04  0.00000000000E+00 0. -1.
<scales pt_clust_3="14000.00000" pt_clust_4="55.26211" pt_clust_5="56.74720" pt_clust_6="69.01148"></scales>
<clustering>
<clus scale="   55.262">  1  4  2 -1</clus>
<clus scale="   56.747">  2  5  1 -1</clus>
<clus scale="   69.011">  1  6  2 -1</clus>
<clus scale="   56.747">  2  3  1 -1</clus>
</clustering>
</event>
<event>
 6    0  0.1631680E+002  0.1517909E+03  0.7546771E-02  0.1198289E+00
         21   -1    0    0  503  502  0.00000000000E+00  0.00000000000E+00  0.31163335114E+03  0.31163335114E+03  0.00000000000E+00 0.  1.
         -2   -1    0    0    0  501 -0.00000000000E+00 -0.00000000000E+00 -0.11204851782E+04  0.11204851782E+04  0.00000000000E+00 0. -1.
         21    1    1    2  503  501  0.40556350580E+02 -0.48001694341E+01 -0.79937579200E+02  0.89765671430E+02  0.00000000000E+00 0.  1.
         21    1    1    2  504  502 -0.14730075487E+03  0.69646239058E+02  0.20952290694E+03  0.26542034498E+03  0.00000000000E+00 0.  1.
         21    1    1    2  505  504  0.21712102612E+02 -0.17023229064E+03 -0.50724121388E+02  0.17895078840E+03  0.00000000000E+00 0.  1.
         -2    1    1    2    0  505  0.85032301676E+02  0.10538622102E+03 -0.88771303344E+03  0.89798172457E+03  0.00000000000E+00 0. -1.
<scales pt_clust_3="40.83943" pt_clust_4="14000.00000" pt_clust_5="151.79088" pt_clust_6="157.00450"></scales>
<clustering>
<clus scale="   40.839">  2  3  1 -1</clus>
<clus scale="  157.005">  2  6  1 -1</clus>
<clus scale="  151.791">  2  5  1 -1</clus>
<clus scale="  151.791">  1  3  2 -1</clus>
</clustering>
</event>
<event>
 6    0  0.1631680E+002  0.2381954E+03  0.7546771E-02  0.1121001E+00
          1   -1    0    0  504    0 -0.00000000000E+00  0.00000000000E+00  0.12014697447E+04  0.12014697447E+04  0.00000000000E+00 0.  1.
         21   -1    0    0  505  502  0.00000000000E+00 -0.00000000000E+00 -0.32077186986E+03  0.32077186986E+03  0.00000000000E+00 0.  1.
         21    1    1    2  503  501 -0.66608745239E+02 -0.14410880242E+03 -0.14755499387E+03  0.21674073935E+03  0.00000000000E+00 0.  1.
         21    1    1    2  504  502  0.19161118955E+02  0.25122358494E+02  0.34065332379E+03  0.34211543138E+03  0.00000000000E+00 0.  1.
         21    1    1    2  505  503  0.20425636466E+02 -0.75008635770E+02 -0.11412196990E+03  0.13808448891E+03  0.00000000000E+00 0.  1.
          1    1    1    2  501    0  0.27021989817E+02  0.19399507969E+03  0.80172151476E+03  0.82530095487E+03  0.00000000000E+00 0.  1.
<scales pt_clust_3="59.84118" pt_clust_4="31.59559" pt_clust_5="59.84118" pt_clust_6="222.38761"></scales>
<clustering>
<clus scale="   31.596">  1  4  2 -1</clus>
<clus scale="   59.841">  3  5 -1 -1</clus>
<clus scale="  222.388">  1  6  2 -1</clus>
<clus scale="  238.195">  2  3  1 -1</clus>
</clustering>
</event>
<event>
 6    0  0.1631680E+002  0.2161406E+03  0.7546771E-02  0.1136793E+00
          2   -1    0    0  503    0 -0.00000000000E+00  0.00000000000E+00  0.12113923571E+04  0.12113923571E+04  0.00000000000E+00 0.  1.
         21   -1    0    0  504  502  0.00000000000E+00 -0.00000000000E+00 -0.51123266529E+03  0.51123266529E+03  0.00000000000E+00 0.  1.
         21    1    1    2  503  502 -0.84271833593E+02 -0.14422920045E+03 -0.13554499697E+03  0.21511915396E+03  0.00000000000E+00 0.  1.
         21    1    1    2  504  505  0.27039622301E+03  0.20474036092E+03 -0.23711728004E+03  0.41383249909E+03  0.00000000000E+00 0.  1.
         21    1    1    2  505  501 -0.61934584834E+02 -0.62347514450E+02  0.40957740046E+03  0.41889945371E+03  0.00000000000E+00 0. -1.
          2    1    1    2  501    0 -0.12418980458E+03  0.18363539781E+01  0.66324456838E+03  0.67477391565E+03  0.00000000000E+00 0.  1.
<scales pt_clust_3="167.04432" pt_clust_4="199.61514" pt_clust_5="69.72327" pt_clust_6="69.72327"></scales>
<clustering>
<clus scale="   69.723">  5  6 -1 -1</clus>
<clus scale="  167.044">  2  3  1 -1</clus>
<clus scale="  199.615">  2  4  1 -1</clus>
<clus scale="  167.044">  2  3  1 -1</clus>
</clustering>
</event>
<event>
 6    0  0.1631680E+002  0.1328696E+03  0.7546771E-02  0.1223259E+00
         21   -1    0    0  505  502  0.00000000000E+00  0.00000000000E+00  0.33412872592E+03  0.33412872592E+03  0.00000000000E+00 0. -1.
         -1   -1    0    0    0  501 -0.00000000000E+00 -0.00000000000E+00 -0.58693045546E+03  0.58693045546E+03  0.00000000000E+00 0. -1.
         21    1    1    2  503  501  0.63720256593E+02 -0.22844717086E+02 -0.11671787836E+03  0.13492670354E+03  0.00000000000E+00 0.  1.
         21    1    1    2  504  503  0.44923358276E+02 -0.56031695970E+02 -0.65167955093E+02  0.96976911907E+02  0.00000000000E+00 0.  1.
         21    1    1    2  505  504  0.14856229014E+02  0.71857056113E+02  0.29443052621E+03  0.30343611983E+03  0.00000000000E+00 0. -1.
         -1    1    1    2    0  502 -0.12349984388E+03  0.70193569436E+01 -0.36534642230E+03  0.38571944610E+03  0.00000000000E+00 0. -1.
<scales pt_clust_3="50.18395" pt_clust_4="50.18395" pt_clust_5="73.37673" pt_clust_6="122.40271"></scales>
<clustering>
<clus scale="   50.184">  3  4 -1 -1</clus>
<clus scale="   73.377">  1  5  2 -1</clus>
<clus scale="  122.403">  2  6  1 -1</clus>
<clus scale="   73.377">  1  3  2 -1</clus>
</clustering>
</event>
<event>
 6    0  0.1631680E+002  0.2716547E+03  0.7546771E-02  0.1100336E+00
          1   -1    0    0  505    0 -0.00000000000E+00  0.00000000000E+00  0.16108506504E+04  0.16108506504E+04  0.00000000000E+00 0.  1.
         21   -1    0    0  501  502  0.00000000000E+00 -0.00000000000E+00 -0.49636068010E+03  0.49636068010E+03  0.00000000000E+00 0.  1.
         21    1    1    2  503  502 -0.10576858328E+03  0.74891016723E+02 -0.40758730652E+03  0.42769506665E+03  0.00000000000E+00 0.  1.
         21    1    1    2  504  503  0.20405559299E+03 -0.15966234516E+03  0.30376895690E+03  0.39925722119E+03  0.00000000000E+00 0.  1.
         21    1    1    2  505  504  0.11360655565E+03 -0.62975826000E+01  0.15531158073E+03  0.19252998764E+03  0.00000000000E+00 0.  1.
          1    1    1    2  501    0 -0.21189356536E+03  0.91068911033E+02  0.10629967391E+04  0.10877290550E+04  0.00000000000E+00 0.  1.
<scales pt_clust_3="129.59806" pt_clust_4="69.51905" pt_clust_5="69.51905" pt_clust_6="250.58148"></scales>
<clustering>
<clus scale="   69.519">  4  5 -1 -1</clus>
<clus scale="  129.598">  2  3  1 -1</clus>
<clus scale="  250.581">  1  6  2 -1</clus>
<clus scale="  129.598">  2  3  1 -1</clus>
</clustering>
</event>
<event>
 6    0  0.1631680E+002  0.9084040E+02  0.7546771E-02  0.1300829E+00
         21   -1    0    0  503  502  0.00000000000E+00  0.00000000000E+00  0.33272669414E+02  0.33272669414E+02  0.00000000000E+00 0.  1.
          2   -1    0    0  504    0 -0.00000000000E+00 -0.00000000000E+00 -0.31767121142E+04  0.31767121142E+04  0.00000000000E+00 0. -1.
         21    1    1    2  503  501  0.15877452533E+02  0.26364227246E+02 -0.31220057750E+02  0.43839000709E+02  0.00000000000E+00 0. -1.
         21    1    1    2  504  505 -0.41018145702E+02 -0.62548526107E+02 -0.97594842185E+03  0.97881056825E+03  0.00000000000E+00 0. -1.
         21    1    1    2  505  502 -0.78045375484E+02 -0.15246658749E+02 -0.42070880273E+02  0.89963882777E+02  0.00000000000E+00 0.  1.
          2    1    1    2  501    0  0.10318606865E+03  0.51430957610E+02 -0.20942000849E+04  0.20973713319E+04  0.00000000000E+00 0. -1.
<scales pt_clust_3="30.77606" pt_clust_4="90.84040" pt_clust_5="64.46387" pt_clust_6="14000.00000"></scales>
<clustering>
<clus scale="   30.776">  1  3  2 -1</clus>
<clus scale="   64.464">  1  5  2 -1</clus>
<clus scale="   90.840">  2  4  1 -1</clus>
<clus scale="   30.776">  1  3  2 -1</clus>
</clustering>
</event>
<event>
 6    0  0.1631680E+002  0.1221839E+03  0.7546771E-02  0.1239537E+00
         21   -1    0    0  505  502  0.00000000000E+00  0.00000000000E+00  0.21849329369E+03  0.21849329369E+03  0.00000000000E+00 0. -1.
          2   -1    0    0  503    0 -0.00000000000E+00 -0.00000000000E+00 -0.16528446457E+04  0.16528446457E+04  0.00000000000E+00 0.  1.
         21    1    1    2  503  504 -0.24033401252E+02 -0.27393028843E+02 -0.44863571719E+03  0.45011330701E+03  0.00000000000E+00 0. -1.
         21    1    1    2  504  502  0.32478909532E+01  0.35636116774E+02 -0.27611896061E+02  0.45198433805E+02  0.00000000000E+00 0.  1.
         21    1    1    2  505  501 -0.22714622288E+02  0.86576100386E+02  0.19691662424E+03  0.21630425822E+03  0.00000000000E+00 0. -1.
          2    1    1    2  501    0  0.43500132586E+02 -0.94819188317E+02 -0.11550203630E+04  0.11597219403E+04  0.00000000000E+00 0.  1.
<scales pt_clust_3="36.33965" pt_clust_4="35.78382" pt_clust_5="14000.00000" pt_clust_6="122.18390"></scales>
<clustering>
<clus scale="   35.784">  1  4  2 -1</clus>
<clus scale="   36.340">  2  3  1 -1</clus>
<clus scale="  122.184">  2  6  1 -1</clus>
<clus scale="   35.784">  1  3  2 -1</clus>
</clustering>
</event>
<event>
 6    0  0.1631680E+002  0.1398753E+03  0.7546771E-02  0.1213497E+00
         21   -1    0    0  503  502  0.00000000000E+00  0.00000000000E+00  0.17167406375E+03  0.17167406375E+03  0.00000000000E+00 0.  1.
         -4   -1    0    0    0  501 -0.00000000000E+00 -0.00000000000E+00 -0.78488357809E+03  0.78488357809E+03  0.00000000000E+00 0.  1.
         21    1    1    2  503  505 -0.79835396285E+02 -0.26823031401E+02  0.10886734599E+03  0.13764179793E+03  0.00000000000E+00 0.  1.
         21    1    1    2  504  501  0.65347236574E+02 -0.24528896601E+02 -0.28262569313E+03  0.29111717660E+03  0.00000000000E+00 0.  1.
         21    1    1    2  505  504  0.87111812473E+02 -0.95030312288E+02 -0.19273246009E+03  0.23187287314E+03  0.00000000000E+00 0.  1.
         -4    1    1    2    0  502 -0.72623652762E+02  0.14638224029E+03 -0.24671870712E+03  0.29592579417E+03  0.00000000000E+00 0.  1.
<scales pt_clust_3="82.66689" pt_clust_4="69.79920" pt_clust_5="139.87531" pt_clust_6="14000.00000"></scales>
<clustering>
<clus scale="   69.799">  2  4  1 -1</clus>
<clus scale="   82.667">  1  3  2 -1</clus>
<clus scale="  139.875">  1  5  2 -1</clus>
<clus scale="   82.667">  1  3  2 -1</clus>
</clustering>
</event>
<event>
 6    0  0.1631680E+002  0.1271876E+03  0.7546771E-02  0.1231690E+00
          1   -1    0    0  504    0 -0.00000000000E+00  0.00000000000E+00  0.83747325278E+03  0.83747325278E+03  0.00000000000E+00 0. -1.
         21   -1    0    0  501  502  0.00000000000E+00 -0.00000000000E+00 -0.16877399572E+03  0.16877399572E+03  0.00000000000E+00 0. -1.
         21    1    1    2  503  505  0.13362024070E+03  0.97841004708E+02 -0.23793358936E+02  0.16731214797E+03  0.00000000000E+00 0. -1.
         21    1    1    2  504  503  0.33511707428E+02  0.16289611840E+02  0.71705610736E+02  0.80808914110E+02  0.00000000000E+00 0. -1.
         21    1    1    2  505  502 -0.46649210610E+02 -0.16373293705E+02 -0.49592721590E+02  0.70026221032E+02  0.00000000000E+00 0. -1.
          1    1    1    2  501    0 -0.12048273752E+03 -0.97757322843E+02  0.67037972685E+03  0.68809996540E+03  0.00000000000E+00 0. -1.
<scales pt_clust_3="127.18758" pt_clust_4="37.26105" pt_clust_5="48.94242" pt_clust_6="14000.00000"></scales>
<clustering>
<clus scale="   37.261">  1  4  2 -1</clus>
<clus scale="   48.942">  2  5  1 -1</clus>
<clus scale="  127.188">  2  3  1 -1</clus>
<clus scale="   48.942">  2  3  1 -1</clus>
</clustering>
</event>
<event>
 6    0  0.1631680E+002  0.2009495E+03  0.7546771E-02  0.1148940E+00
         21   -1    0    0  505  502  0.00000000000E+00  0.00000000000E+00  0.50357682894E+03  0.50357682894E+03  0.00000000000E+00 0. -1.
         -2   -1    0    0    0  501 -0.00000000000E+00 -0.00000000000E+00 -0.87216084798E+03  0.87216084798E+03  0.00000000000E+00 0.  1.
         21    1    1    2  503  504  0.24439310306E+01 -0.40647556604E+02  0.46568260710E+02  0.61861131272E+02  0.00000000000E+00 0. -1.
         21    1    1    2  504  502 -0.97991409426E+01 -0.14920237572E+03  0.40457799870E+03  0.43132438966E+03  0.00000000000E+00 0. -1.
         21    1    1    2  505  501 -0.41537150274E+02 -0.40315811846E+02 -0.37470258369E+03  0.37914736682E+03  0.00000000000E+00 0.  1.
         -2    1    1    2    0  503  0.48892360186E+02  0.23016574417E+03 -0.44502769475E+03  0.50340478918E+03  0.00000000000E+00 0.  1.
<scales pt_clust_3="31.31991" pt_clust_4="31.31991" pt_clust_5="57.88523" pt_clust_6="191.77797"></scales>
<clustering>
<clus scale="   31.320">  3  4 -1 -1</clus>
<clus scale="   57.885">  2  5  1 -1</clus>
<clus scale="  191.778">  2  6  1 -1</clus>
<clus scale="  200.950">  1  3  2 -1</clus>
</clustering>
</event>
<event>
 6    0  0.1631680E+002  0.1402693E+03  0.7546771E-02  0.1212967E+00
          1   -1    0    0  503    0 -0.00000000000E+00  0.00000000000E+00  0.12976269160E+04  0.12976269160E+04  0.00000000000E+00 0.  1.
         21   -1    0    0  504  502  0.00000000000E+00 -0.00000000000E+00 -0.18814004748E+03  0.18814004748E+03  0.00000000000E+00 0.  1.
         21    1    1    2  503  502  0.65061323291E+02  0.29281700688E+02 -0.41621075093E+01  0.71468293127E+02  0.00000000000E+00 0.  1.
         21    1    1    2  504  505  0.67538194330E+02 -0.10108797457E+03 -0.10605269946E+03  0.16132997663E+03  0.00000000000E+00 0.  1.
         21    1    1    2  505  501 -0.14597979291E+03 -0.47923838036E+02  0.49422999411E+03  0.51756166905E+03  0.00000000000E+00 0.  1.
          1    1    1    2  501    0  0.13380275293E+02  0.11973011192E+03  0.72547168141E+03  0.73540702471E+03  0.00000000000E+00 0.  1.
<scales pt_clust_3="71.34700" pt_clust_4="14000.00000" pt_clust_5="140.26926" pt_clust_6="121.69281"></scales>
<clustering>
<clus scale="   71.347">  2  3  1 -1</clus>
<clus scale="  121.693">  1  6  2 -1</clus>
<clus scale="  140.269">  1  5  2 -1</clus>
<clus scale="   71.347">  2  3  1 -1</clus>
</clustering>
</event>
<event>
 6    0  0.1631680E+002  0.5765812E+02  0.7546771E-02  0.1407931E+00
          1   -1    0    0  505    0 -0.00000000000E+00  0.00000000000E+00  0.21003368577E+04  0.21003368577E+04  0.00000000000E+00 0. -1.
         21   -1    0    0  504  502  0.00000000000E+00 -0.00000000000E+00 -0.52273377291E+02  0.52273377291E+02  0.00000000000E+00 0.  1.
         21    1    1    2  503  502  0.10130466417E+03 -0.11033631708E+02  0.12679153276E+02  0.10268951718E+03  0.00000000000E+00 0.  1.
         21    1    1    2  504  501 -0.43747325430E+02 -0.36422667804E+01  0.94326975270E+02  0.10404168805E+03  0.00000000000E+00 0.  1.
         21    1    1    2  505  503 -0.47366236446E+02 -0.33676629646E+02  0.41807480424E+03  0.42209503394E+03  0.00000000000E+00 0.  1.
          1    1    1    2  501    0 -0.10191102290E+02  0.48352528134E+02  0.15229825477E+04  0.15237839958E+04  0.00000000000E+00 0. -1.
<scales pt_clust_3="14000.00000" pt_clust_4="43.89869" pt_clust_5="57.65812" pt_clust_6="49.46233"></scales>
<clustering>
<clus scale="   43.899">  2  4  1 -1</clus>
<clus scale="   49.462">  1  6  2 -1</clus>
<clus scale="   57.658">  1  5  2 -1</clus>
<clus scale="   43.899">  2  3  1 -1</clus>
</clustering>
</event>
<event>
 6    0  0.1631680E+002  0.1021062E+03  0.7546771E-02  0.1275928E+00
         21   -1    0    0  504  502  0.00000000000E+00  0.00000000000E+00  0.15096272430E+03  0.15096272430E+03  0.00000000000E+00 0.  1.
         -1   -1    0    0    0  501 -0.00000000000E+00 -0.00000000000E+00 -0.23941293180E+04  0.23941293180E+04  0.00000000000E+00 0. -1.
         21    1    1    2  503  502  0.74560786444E+02  0.90061280674E+02  0.11151634980E+03  0.16157425979E+03  0.00000000000E+00 0.  1.
         21    1    1    2  504  505  0.13841061368E+02 -0.39042660551E+02 -0.23454169006E+02  0.47602545799E+02  0.00000000000E+00 0. -1.
         21    1    1    2  505  501  0.12669640020E+02 -0.28540676097E+02 -0.22664673690E+03  0.22878774731E+03  0.00000000000E+00 0. -1.
         -1    1    1    2    0  503 -0.10107148783E+03 -0.22477944025E+02 -0.21045820376E+04  0.21071274894E+04  0.00000000000E+00 0. -1.
<scales pt_clust_3="102.10619" pt_clust_4="41.93407" pt_clust_5="31.22643" pt_clust_6="14000.00000"></scales>
<clustering>
<clus scale="   31.226">  2  5  1 -1</clus>
<clus scale="   41.934">  1  4  2 -1</clus>
<clus scale="  102.106">  1  3  2 -1</clus>
<clus scale="   41.934">  1  3  2 -1</clus>
</clustering>
</event>
<event>
 6    0  0.1631680E+002  0.1190753E+03  0.7546771E-02  0.1244630E+00
          2   -1    0    0  504    0 -0.00000000000E+00  0.00000000000E+00  0.25831796373E+04  0.25831796373E+04  0.00000000000E+00 0.  1.
         21   -1    0    0  503  502  0.00000000000E+00 -0.00000000000E+00 -0.28874566148E+02  0.28874566148E+02  0.00000000000E+00 0. -1.
         21    1    1    2  503  505  0.30968478738E+02  0.10100144720E+03  0.10076882386E+03  0.14599553032E+03  0.00000000000E+00 0. -1.
         21    1    1    2  504  502 -0.50577515686E+02  0.59121240373E+01  0.13281747219E+03  0.14224457537E+03  0.00000000000E+00 0.  1.
         21    1    1    2  505  501 -0.35526589282E+01 -0.36216944212E+02  0.39905667259E+03  0.40071251087E+03  0.00000000000E+00 0.  1.
          2    1    1    2  501    0  0.23161695876E+02 -0.70696627025E+02  0.19216621025E+04  0.19231015869E+04  0.00000000000E+00 0.  1.
<scales pt_clust_3="107.78511" pt_clust_4="50.92188" pt_clust_5="35.39622" pt_clust_6="35.39622"></scales>
<clustering>
<clus scale="   35.396">  5  6 -1 -1</clus>
<clus scale="   50.922">  2  4  1 -1</clus>
<clus scale="  107.785">  2  3  1 -1</clus>
<clus scale="   50.922">  2  3  1 -1</clus>
</clustering>
</event>
<event>
 6    0  0.1631680E+002  0.8530665E+02  0.7546771E-02  0.1314633E+00
          1   -1    0    0  503    0 -0.00000000000E+00  0.00000000000E+00  0.89499846972E+03  0.89499846972E+03  0.00000000000E+00 0. -1.
         21   -1    0    0  504  502  0.00000000000E+00 -0.00000000000E+00 -0.25427754255E+03  0.25427754255E+03  0.00000000000E+00 0.  1.
         21    1    1    2  503  505  0.12601043836E+03 -0.65378290975E+02  0.60681006014E+03  0.62319451264E+03  0.00000000000E+00 0.  1.
         21    1    1    2  504  501 -0.34303252620E+02  0.19552716068E+02  0.17656955480E+01  0.39523910822E+02  0.00000000000E+00 0.  1.
         21    1    1    2  505  502 -0.38931808059E+02  0.22706989890E+02 -0.22171068447E+03  0.22624526664E+03  0.00000000000E+00 0.  1.
          1    1    1    2  501    0 -0.52775377682E+02  0.23118585017E+02  0.25385585596E+03  0.26031232216E+03  0.00000000000E+00 0. -1.
<scales pt_clust_3="14000.00000" pt_clust_4="39.48445" pt_clust_5="85.30665" pt_clust_6="58.15544"></scales>
<clustering>
<clus scale="   39.484">  2  4  1 -1</clus>
<clus scale="   58.155">  1  6  2 -1</clus>
<clus scale="   85.307">  2  5  1 -1</clus>
<clus scale="   39.484">  2  3  1 -1</clus>
</clustering>
</event>
<event>
 6    0  0.1631680E+002  0.7469915E+02  0.7546771E-02  0.1344805E+00
         21   -1    0    0  505  502  0.00000000000E+00  0.00000000000E+00  0.21574284786E+04  0.21574284786E+04  0.00000000000E+00 0.  1.
         -4   -1    0    0    0  501 -0.00000000000E+00 -0.00000000000E+00 -0.13174187866E+03  0.13174187866E+03  0.00000000000E+00 0.  1.
         21    1    1    2  503  502 -0.57849340423E+02  0.44721123884E+02  0.17733065632E+04  0.17748134246E+04  0.00000000000E+00 0.  1.
         21    1    1    2  504  501 -0.28924479024E+02 -0.12062450381E+02  0.34683569273E+02  0.46744819751E+02  0.00000000000E+00 0. -1.
         21    1    1    2  505  504  0.40230077766E+02 -0.95704155982E+02  0.32133058151E+03  0.33768489342E+03  0.00000000000E+00 0.  1.
         -4    1    1    2    0  503  0.46543741680E+02  0.63045482478E+02 -0.10363411408E+03  0.12992721944E+03  0.00000000000E+00 0.  1.
<scales pt_clust_3="74.69915" pt_clust_4="31.33892" pt_clust_5="14000.00000" pt_clust_6="55.44772"></scales>
<clustering>
<clus scale="   31.339">  2  4  1 -1</clus>
<clus scale="   55.448">  2  6  1 -1</clus>
<clus scale="   74.699">  1  3  2 -1</clus>
<clus scale="   74.699">  1  3  2 -1</clus>
</clustering>
</event>
<event>
 6    0  0.1631680E+002  0.1057765E+03  0.7546771E-02  0.1268597E+00
         21   -1    0    0  503  502  0.00000000000E+00  0.00000000000E+00  0.79529165269E+02  0.79529165269E+02  0.00000000000E+00 0. -1.
          2   -1    0    0  505    0 -0.00000000000E+00 -0.00000000000E+00 -0.66688974534E+03  0.66688974534E+03  0.00000000000E+00 0. -1.
         21    1    1    2  503  501 -0.13221784895E+02 -0.36518165209E+02  0.38474070357E+02  0.54668510826E+02  0.00000000000E+00 0. -1.
         21    1    1    2  504  502 -0.35028376587E+02 -0.87998785708E+01 -0.10653242864E+02  0.37655233537E+02  0.00000000000E+00 0. -1.
         21    1    1    2  505  504  0.84580145489E+01  0.12581686149E+03 -0.43295597323E+03  0.45094600054E+03  0.00000000000E+00 0. -1.
          2    1    1    2  501    0  0.39792146933E+02 -0.80498817711E+02 -0.18222543434E+03  0.20314916571E+03  0.00000000000E+00 0. -1.
<scales pt_clust_3="57.13112" pt_clust_4="36.11682" pt_clust_5="105.77653" pt_clust_6="14000.00000"></scales>
<clustering>
<clus scale="   36.117">  1  4  2 -1</clus>
<clus scale="   57.131">  1  3  2 -1</clus>
<clus scale="  105.777">  2  5  1 -1</clus>
<clus scale="   36.117">  1  3  2 -1</clus>
</clustering>
</event>
<event>
 6    0  0.1631680E+002  0.6318838E+02  0.7546771E-02  0.1384919E+00
         21   -1    0    0  504  502  0.00000000000E+00  0.00000000000E+00  0.29148826782E+03  0.29148826782E+03  0.00000000000E+00 0.  1.
          2   -1    0    0  505    0 -0.00000000000E+00 -0.00000000000E+00 -0.61528738434E+03  0.61528738434E+03  0.00000000000E+00 0. -1.
         21    1    1    2  503  502  0.49054121924E+02  0.77954914390E+02  0.70394129512E+01  0.92373312650E+02  0.00000000000E+00 0.  1.
         21    1    1    2  504  501 -0.38579982929E+02  0.25817681132E+02  0.22949214121E+03  0.23414015166E+03  0.00000000000E+00 0.  1.
         21    1    1    2  505  503 -0.30746357033E+02 -0.53866810912E+02 -0.47714387159E+03  0.48115823383E+03  0.00000000000E+00 0. -1.
          2    1    1    2  501    0  0.20272218038E+02 -0.49905784610E+02 -0.83186799086E+02  0.99103954027E+02  0.00000000000E+00 0. -1.
<scales pt_clust_3="63.18838" pt_clust_4="46.42163" pt_clust_5="14000.00000" pt_clust_6="48.86283"></scales>
<clustering>
<clus scale="   46.422">  1  4  2 -1</clus>
<clus scale="   48.863">  1  6  2 -1</clus>
<clus scale="   63.188">  1  3  2 -1</clus>
<clus scale="   46.422">  1  3  2 -1</clus>
</clustering>
</event>
<event>
 6    0  0.1631680E+002  0.8694197E+02  0.7546771E-02  0.1310431E+00
          2   -1    0    0  504    0 -0.00000000000E+00  0.00000000000E+00  0.77272020427E+03  0.77272020427E+03  0.00000000000E+00 0.  1.
         21   -1    0    0  505  502  0.00000000000E+00 -0.00000000000E+00 -0.98635050459E+02  0.98635050459E+02  0.00000000000E+00 0. -1.
         21    1    1    2  503  502 -0.35928020615E+02  0.66135830482E+02 -0.25387308399E+02  0.79431015142E+02  0.00000000000E+00 0. -1.
         21    1    1    2  504  503 -0.48859544479E+02  0.10120276457E+02  0.12311340497E+03  0.13284045155E+03  0.00000000000E+00 0. -1.
         21    1    1    2  505  501  0.64849090488E+02 -0.12326032606E+03  0.81039113585E+02  0.16113922691E+03  0.00000000000E+00 0. -1.
          2    1    1    2  501    0  0.19938474606E+02  0.47004219123E+02  0.49531994365E+03  0.49794456114E+03  0.00000000000E+00 0.  1.
<scales pt_clust_3="86.94197" pt_clust_4="49.89664" pt_clust_5="14000.00000" pt_clust_6="57.58634"></scales>
<clustering>
<clus scale="   49.897">  1  4  2 -1</clus>
<clus scale="   57.586">  1  6  2 -1</clus>
<clus scale="   86.942">  2  3  1 -1</clus>
<clus scale="   86.942">  2  3  1 -1</clus>
</clustering>
</event>
<event>
 6    0  0.1631680E+002  0.8776309E+02  0.7546771E-02  0.1308361E+00
          1   -1    0    0  504    0 -0.00000000000E+00  0.00000000000E+00  0.32552412394E+03  0.32552412394E+03  0.00000000000E+00 0.  1.
         21   -1    0    0  505  502  0.00000000000E+00 -0.00000000000E+00 -0.35001404446E+03  0.35001404446E+03  0.00000000000E+00 0. -1.
         21    1    1    2  503  502  0.54023943024E+02 -0.37325169295E+01 -0.74490214040E+02  0.92094028526E+02  0.00000000000E+00 0.  1.
         21    1    1    2  504  503  0.40393968835E+02 -0.33696367803E+01  0.20467149308E+03  0.20864670439E+03  0.00000000000E+00 0.  1.
         21    1    1    2  505  501  0.36503524159E+02 -0.16226827292E+02 -0.22212213680E+03  0.22568575688E+03  0.00000000000E+00 0. -1.
          1    1    1    2  501    0 -0.13092143602E+03  0.23328981002E+02  0.67450937235E+02  0.14911167861E+03  0.00000000000E+00 0.  1.
<scales pt_clust_3="14000.00000" pt_clust_4="41.12939" pt_clust_5="39.94768" pt_clust_6="87.76309"></scales>
<clustering>
<clus scale="   39.948">  2  5  1 -1</clus>
<clus scale="   41.129">  1  4  2 -1</clus>
<clus scale="   87.763">  1  6  2 -1</clus>
<clus scale="   39.948">  2  3  1 -1</clus>
</clustering>
</event>
<event>
 6    0  0.1631680E+002  0.1302101E+03  0.7546771E-02  0.1227144E+00
          1   -1    0    0  505    0 -0.00000000000E+00  0.00000000000E+00  0.28532791519E+04  0.28532791519E+04  0.00000000000E+00 0.  1.
         21   -1    0    0  501  502  0.00000000000E+00 -0.00000000000E+00 -0.15567423640E+03  0.15567423640E+03  0.00000000000E+00 0.  1.
         21    1    1    2  503  504 -0.16658680306E+02  0.68768672597E+02  0.14120665868E+03  0.15794290873E+03  0.00000000000E+00 0. -1.
         21    1    1    2  504  502  0.11979587947E+03 -0.52260593331E+02 -0.11519825849E+03  0.17422072527E+03  0.00000000000E+00 0.  1.
         21    1    1    2  505  503  0.13973415711E+02  0.27779948283E+02  0.24504034996E+03  0.24700557682E+03  0.00000000000E+00 0.  1.
          1    1    1    2  501    0 -0.11711061488E+03 -0.44288027549E+02  0.24265561654E+04  0.24297841775E+04  0.00000000000E+00 0.  1.
<scales pt_clust_3="72.12703" pt_clust_4="14000.00000" pt_clust_5="31.09633" pt_clust_6="130.21009"></scales>
<clustering>
<clus scale="   31.096">  1  5  2 -1</clus>
<clus scale="   72.127">  1  3  2 -1</clus>
<clus scale="  130.210">  1  6  2 -1</clus>
<clus scale="  130.210">  2  3  1 -1</clus>
</clustering>
</event>
<event>
 6    0  0.1631680E+002  0.2412008E+03  0.7546771E-02  0.1118995E+00
          2   -1    0    0  504    0 -0.00000000000E+00  0.00000000000E+00  0.91668685418E+03  0.91668685418E+03  0.00000000000E+00 0.  1.
         21   -1    0    0  501  502  0.00000000000E+00 -0.00000000000E+00 -0.10230575481E+03  0.10230575481E+03  0.00000000000E+00 0.  1.
         21    1    1    2  503  502 -0.40016472885E+01 -0.35626541021E+02  0.87914735482E+01  0.36912783873E+02  0.00000000000E+00 0. -1.
         21    1    1    2  504  505 -0.15484733079E+02 -0.40398457158E+02  0.88379196581E+02  0.98400684386E+02  0.00000000000E+00 0. -1.
         21    1    1    2  505  503 -0.22685545252E+03 -0.20643374868E+02  0.20189153379E+03  0.30438419256E+03  0.00000000000E+00 0.  1.
          2    1    1    2  501    0  0.24634183288E+03  0.96668373046E+02  0.51531889545E+03  0.57929494817E+03  0.00000000000E+00 0.  1.
<scales pt_clust_3="35.85057" pt_clust_4="45.23761" pt_clust_5="14000.00000" pt_clust_6="241.20082"></scales>
<clustering>
<clus scale="   35.851">  2  3  1 -1</clus>
<clus scale="   45.238">  1  4  2 -1</clus>
<clus scale="  241.201">  1  6  2 -1</clus>
<clus scale="   35.851">  2  3  1 -1</clus>
</clustering>
</event>
<event>
 6    0  0.1631680E+002  0.9184343E+02  0.7546771E-02  0.1298448E+00
         21   -1    0    0  503  502  0.00000000000E+00  0.00000000000E+00  0.68518158258E+02  0.68518158258E+02  0.00000000000E+00 0.  1.
         -3   -1    0    0    0  501 -0.00000000000E+00 -0.00000000000E+00 -0.43290107775E+03  0.43290107775E+03  0.00000000000E+00 0. -1.
         21    1    1    2  503  501  0.28971993542E+00  0.97657756417E+02 -0.81950317341E+02  0.12748715950E+03  0.00000000000E+00 0.  1.
         21    1    1    2  504  502 -0.40047315288E+02 -0.12955079638E+02 -0.42078926051E+02  0.59516867927E+02  0.00000000000E+00 0.  1.
         21    1    1    2  505  504 -0.39219983522E+02 -0.21607643141E+02  0.87117008481E+01  0.45617881157E+02  0.00000000000E+00 0. -1.
         -3    1    1    2    0  505  0.78977578874E+02 -0.63095033638E+02 -0.24906537695E+03  0.26879732742E+03  0.00000000000E+00 0. -1.
<scales pt_clust_3="91.84343" pt_clust_4="42.09063" pt_clust_5="63.65536" pt_clust_6="14000.00000"></scales>
<clustering>
<clus scale="   42.091">  1  4  2 -1</clus>
<clus scale="   63.655">  1  5  2 -1</clus>
<clus scale="   91.843">  1  3  2 -1</clus>
<clus scale="   42.091">  1  3  2 -1</clus>
</clustering>
</event>
<event>
 6    0  0.1631680E+002  0.9000420E+02  0.7546771E-02  0.1302842E+00
         21   -1    0    0  503  502  0.00000000000E+00  0.00000000000E+00  0.20510042342E+02  0.20510042342E+02  0.00000000000E+00 0. -1.
         -1   -1    0    0    0  501 -0.00000000000E+00 -0.00000000000E+00 -0.19860671379E+04  0.19860671379E+04  0.00000000000E+00 0. -1.
         21    1    1    2  503  504  0.90609435424E+02 -0.34548727474E+02 -0.44168101085E+03  0.45220106115E+03  0.00000000000E+00 0. -1.
         21    1    1    2  504  501  0.36661879798E+02  0.21642909655E+01 -0.80250908762E+03  0.80334899844E+03  0.00000000000E+00 0. -1.
         21    1    1    2  505  502 -0.60856977171E+02 -0.40560494293E+02 -0.11224816608E+03  0.13397154980E+03  0.00000000000E+00 0. -1.
         -1    1    1    2    0  505 -0.66414338051E+02  0.72944930801E+02 -0.60911883102E+03  0.61705557086E+03  0.00000000000E+00 0. -1.
<scales pt_clust_3="14000.00000" pt_clust_4="36.72571" pt_clust_5="69.86233" pt_clust_6="90.00420"></scales>
<clustering>
<clus scale="   36.726">  2  4  1 -1</clus>
<clus scale="   69.862">  1  5  2 -1</clus>
<clus scale="   90.004">  2  6  1 -1</clus>
<clus scale="   69.862">  1  3  2 -1</clus>
</clustering>
</event>
<event>
 6    0  0.1631680E+002  0.2181941E+03  0.7546771E-02  0.1135237E+00
         21   -1    0    0  503  502  0.00000000000E+00  0.00000000000E+00  0.47737004635E+03  0.47737004635E+03  0.00000000000E+00 0. -1.
          2   -1    0    0  504    0 -0.00000000000E+00 -0.00000000000E+00 -0.17012139933E+04  0.17012139933E+04  0.00000000000E+00 0. -1.
         21    1    1    2  503  501  0.58630820875E+02 -0.15109148469E+03  0.74698241199E+02  0.17845458005E+03  0.00000000000E+00 0. -1.
         21    1    1    2  504  505 -0.52414227454E+02 -0.43193680819E+02 -0.94244445507E+03  0.94488861576E+03  0.00000000000E+00 0. -1.
         21    1    1    2  505  502  0.62543653200E+02 -0.40575266630E+02  0.32399358666E+03  0.33246038112E+03  0.00000000000E+00 0. -1.
          2    1    1    2  501    0 -0.68760246621E+02  0.23486043214E+03 -0.68009131970E+03  0.72278046268E+03  0.00000000000E+00 0. -1.
<scales pt_clust_3="218.19414" pt_clust_4="67.91867" pt_clust_5="74.43893" pt_clust_6="14000.00000"></scales>
<clustering>
<clus scale="   67.919">  2  4  1 -1</clus>
<clus scale="   74.439">  1  5  2 -1</clus>
<clus scale="  218.194">  1  3  2 -1</clus>
<clus scale="   74.439">  1  3  2 -1</clus>
</clustering>
</event>
<event>
 6    0  0.1631680E+002  0.1012294E+03  0.7546771E-02  0.1277732E+00
          1   -1    0    0  504    0 -0.00000000000E+00  0.00000000000E+00  0.26048635104E+03  0.26048635104E+03  0.00000000000E+00 0. -1.
         21   -1    0    0  503  502  0.00000000000E+00 -0.00000000000E+00 -0.12688634260E+04  0.12688634260E+04  0.00000000000E+00 0.  1.
         21    1    1    2  503  505 -0.31194282541E+01 -0.62271747988E+02 -0.11910711703E+04  0.11927019888E+04  0.00000000000E+00 0.  1.
         21    1    1    2  504  502 -0.41232350837E+00 -0.88233056522E+02  0.48372374999E+02  0.10062369968E+03  0.00000000000E+00 0.  1.
         21    1    1    2  505  501  0.38401259109E+02  0.12964335575E+03  0.53211323699E+02  0.14530485663E+03  0.00000000000E+00 0. -1.
          1    1    1    2  501    0 -0.34869507347E+02  0.20861448762E+02  0.81110396666E+02  0.90719231888E+02  0.00000000000E+00 0. -1.
<scales pt_clust_3="62.26089" pt_clust_4="101.22942" pt_clust_5="14000.00000" pt_clust_6="40.63352"></scales>
<clustering>
<clus scale="   40.634">  1  6  2 -1</clus>
<clus scale="   62.261">  2  3  1 -1</clus>
<clus scale="  101.229">  1  4  2 -1</clus>
<clus scale="   62.261">  2  3  1 -1</clus>
</clustering>
</event>
<event>
 6    0  0.1631680E+002  0.1002456E+03  0.7546771E-02  0.1279780E+00
          1   -1    0    0  504    0 -0.00000000000E+00  0.00000000000E+00  0.16805678573E+04  0.16805678573E+04  0.00000000000E+00 0.  1.
         21   -1    0    0  503  502  0.00000000000E+00 -0.00000000000E+00 -0.16348672376E+03  0.16348672376E+03  0.00000000000E+00 0.  1.
         21    1    1    2  503  501 -0.10581977140E+03 -0.77954743986E+02 -0.40312957962E+02  0.13747690973E+03  0.00000000000E+00 0.  1.
         21    1    1    2  504  505  0.36997970172E+02  0.48921603611E+01  0.22691621184E+03  0.22996467169E+03  0.00000000000E+00 0. -1.
         21    1    1    2  505  502  0.44899281802E+01  0.93279065184E+02 -0.42058563825E+02  0.10242102444E+03  0.00000000000E+00 0.  1.
          1    1    1    2  501    0  0.64331873046E+02 -0.20216481559E+02  0.13725364435E+04  0.13741919752E+04  0.00000000000E+00 0.  1.
<scales pt_clust_3="100.24563" pt_clust_4="37.32001" pt_clust_5="93.52871" pt_clust_6="14000.00000"></scales>
<clustering>
<clus scale="   37.320">  1  4  2 -1</clus>
<clus scale="   93.529">  2  5  1 -1</clus>
<clus scale="  100.246">  2  3  1 -1</clus>
<clus scale="   93.529">  2  3  1 -1</clus>
</clustering>
</event>
<event>
 6    0  0.1631680E+002  0.9074165E+02  0.7546771E-02  0.1301066E+00
          2   -1    0    0  503    0 -0.00000000000E+00  0.00000000000E+00  0.24289194547E+04  0.24289194547E+04  0.00000000000E+00 0.  1.
         21   -1    0    0  505  502  0.00000000000E+00 -0.00000000000E+00 -0.28621156973E+03  0.28621156973E+03  0.00000000000E+00 0.  1.
         21    1    1    2  503  502  0.26231357900E+02 -0.38100005812E+02  0.29529918887E+03  0.29890015980E+03  0.00000000000E+00 0.  1.
         21    1    1    2  504  501  0.94210873845E+02  0.30290380040E+02  0.16890870657E+02  0.10039171970E+03  0.00000000000E+00 0.  1.
         21    1    1    2  505  504 -0.48238452369E+01 -0.39117944865E+02 -0.23916871097E+03  0.24239462742E+03  0.00000000000E+00 0.  1.
          2    1    1    2  501    0 -0.11561838651E+03  0.46927570637E+02  0.20696865364E+04  0.20734445175E+04  0.00000000000E+00 0.  1.
<scales pt_clust_3="47.43669" pt_clust_4="14000.00000" pt_clust_5="39.41425" pt_clust_6="90.74165"></scales>
<clustering>
<clus scale="   39.414">  2  5  1 -1</clus>
<clus scale="   47.437">  1  3  2 -1</clus>
<clus scale="   90.742">  1  6  2 -1</clus>
<clus scale="   39.414">  2  3  1 -1</clus>
</clustering>
</event>
<event>
 6    0  0.1631680E+002  0.2885106E+03  0.7546771E-02  0.1091129E+00
         21   -1    0    0  505  502  0.00000000000E+00  0.00000000000E+00  0.30787775731E+03  0.30787775731E+03  0.00000000000E+00 0.  1.
          2   -1    0    0  504    0 -0.00000000000E+00 -0.00000000000E+00 -0.19268321046E+04  0.19268321046E+04  0.00000000000E+00 0.  1.
         21    1    1    2  503  502  0.19004577864E+02 -0.30621301427E+03  0.31798666330E+02  0.30844568285E+03  0.00000000000E+00 0.  1.
         21    1    1    2  504  503  0.32889977367E+02  0.26859798072E+03 -0.31098343051E+02  0.27238526538E+03  0.00000000000E+00 0.  1.
         21    1    1    2  505  501  0.52367009074E+02 -0.12664119755E+02 -0.33364027624E+02  0.63370670722E+02  0.00000000000E+00 0. -1.
          2    1    1    2  501    0 -0.10426156430E+03  0.50279153303E+02 -0.15862906430E+04  0.15905082430E+04  0.00000000000E+00 0.  1.
<scales pt_clust_3="14000.00000" pt_clust_4="288.51055" pt_clust_5="53.87656" pt_clust_6="115.37254"></scales>
<clustering>
<clus scale="   53.877">  1  5  2 -1</clus>
<clus scale="  115.373">  2  6  1 -1</clus>
<clus scale="  288.511">  2  4  1 -1</clus>
<clus scale="   53.877">  1  3  2 -1</clus>
</clustering>
</event>
<event>
 6    0  0.1631680E+002  0.1138766E+03  0.7546771E-02  0.1253555E+00
         21   -1    0    0  501  502  0.00000000000E+00  0.00000000000E+00  0.21869985771E+03  0.21869985771E+03  0.00000000000E+00 0. -1.
          2   -1    0    0  503    0 -0.00000000000E+00 -0.00000000000E+00 -0.88077302147E+03  0.88077302147E+03  0.00000000000E+00 0.  1.
         21    1    1    2  503  504 -0.10892872527E+02  0.16938910165E+03 -0.54481647090E+03  0.57064551991E+03  0.00000000000E+00 0. -1.
         21    1    1    2  504  505  0.25272481500E+02 -0.82201439737E+02  0.46888807315E+02  0.97950677728E+02  0.00000000000E+00 0.  1.
         21    1    1    2  505  502 -0.17454217262E+02 -0.32259970127E+02  0.12822883860E+03  0.13337162525E+03  0.00000000000E+00 0. -1.
          2    1    1    2  501    0  0.30746082889E+01 -0.54927691789E+02 -0.29237433878E+03  0.29750505629E+03  0.00000000000E+00 0.  1.
<scales pt_clust_3="14000.00000" pt_clust_4="113.87659" pt_clust_5="36.67909" pt_clust_6="55.92806"></scales>
<clustering>
<clus scale="   36.679">  1  5  2 -1</clus>
<clus scale="   55.928">  2  6  1 -1</clus>
<clus scale="  113.877">  1  4  2 -1</clus>
<clus scale="   36.679">  1  3  2 -1</clus>
</clustering>
</event>
<event>
 6    0  0.1631680E+002  0.5359032E+02  0.7546771E-02  0.1426885E+00
          2   -1    0    0  503    0 -0.00000000000E+00  0.00000000000E+00  0.60394256930E+03  0.60394256930E+03  0.00000000000E+00 0.  1.
         21   -1    0    0  505  502  0.00000000000E+00 -0.00000000000E+00 -0.26548540920E+03  0.26548540920E+03  0.00000000000E+00 0.  1.
         21    1    1    2  503  504 -0.47271442510E+02 -0.89408840070E+01  0.10357084466E+03  0.11419916176E+03  0.00000000000E+00 0.  1.
         21    1    1    2  504  502 -0.29221509294E+01  0.92896367074E+02 -0.18329597447E+03  0.20551323130E+03  0.00000000000E+00 0.  1.
         21    1    1    2  505  501 -0.14489790354E+02 -0.44012960088E+02 -0.54170148357E+02  0.71284638270E+02  0.00000000000E+00 0. -1.
          2    1    1    2  501    0  0.64683383794E+02 -0.39942522979E+02  0.47235243826E+03  0.47843094718E+03  0.00000000000E+00 0.  1.
<scales pt_clust_3="48.70868" pt_clust_4="53.59032" pt_clust_5="46.33675" pt_clust_6="14000.00000"></scales>
<clustering>
<clus scale="   46.337">  2  5  1 -1</clus>
<clus scale="   48.709">  1  3  2 -1</clus>
<clus scale="   53.590">  2  4  1 -1</clus>
<clus scale="   46.337">  2  3  1 -1</clus>
</clustering>
</event>
<event>
 6    0  0.1631680E+002  0.6983905E+02  0.7546771E-02  0.1360641E+00
          2   -1    0    0  504    0 -0.00000000000E+00  0.00000000000E+00  0.10121902481E+04  0.10121902481E+04  0.00000000000E+00 0. -1.
         21   -1    0    0  505  502  0.00000000000E+00 -0.00000000000E+00 -0.65586913739E+02  0.65586913739E+02  0.00000000000E+00 0. -1.
         21    1    1    2  503  502 -0.11204744330E+03  0.59647227605E+01  0.32679810498E+03  0.34552454165E+03  0.00000000000E+00 0. -1.
         21    1    1    2  504  503 -0.25696447038E+01  0.38613709880E+02  0.18603317499E+03  0.19001569373E+03  0.00000000000E+00 0.  1.
         21    1    1    2  505  501  0.65783393099E+02  0.14112670261E+02 -0.28960049087E+02  0.73248253990E+02  0.00000000000E+00 0. -1.
          2    1    1    2  501    0  0.48833694904E+02 -0.58691102902E+02  0.46273210351E+03  0.46898867250E+03  0.00000000000E+00 0. -1.
<scales pt_clust_3="69.83905" pt_clust_4="38.69912" pt_clust_5="14000.00000" pt_clust_6="60.03318"></scales>
<clustering>
<clus scale="   38.699">  1  4  2 -1</clus>
<clus scale="   60.033">  1  6  2 -1</clus>
<clus scale="   69.839">  1  3  2 -1</clus>
<clus scale="   69.839">  2  3  1 -1</clus>
</clustering>
</event>
<event>
 6    0  0.1631680E+002  0.1118391E+03  0.7546771E-02  0.1257202E+00
          1   -1    0    0  505    0 -0.00000000000E+00  0.00000000000E+00  0.10486489812E+03  0.10486489812E+03  0.00000000000E+00 0. -1.
         21   -1    0    0  503  502  0.00000000000E+00 -0.00000000000E+00 -0.94334522024E+03  0.94334522024E+03  0.00000000000E+00 0. -1.
         21    1    1    2  503  501 -0.36245291998E+02  0.56709260946E+02 -0.78417658122E+03  0.78705944629E+03  0.00000000000E+00 0. -1.
         21    1    1    2  504  502 -0.46994856392E+02  0.29509558787E+02 -0.88936521312E+02  0.10482860015E+03  0.00000000000E+00 0.  1.
         21    1    1    2  505  504  0.29510412738E+01 -0.43601871294E+02 -0.22303523293E+02  0.49064029352E+02  0.00000000000E+00 0.  1.
          1    1    1    2  501    0  0.80289107116E+02 -0.42616948440E+02  0.56936303694E+02  0.10725804256E+03  0.00000000000E+00 0. -1.
<scales pt_clust_3="14000.00000" pt_clust_4="53.34919" pt_clust_5="43.70162" pt_clust_6="111.83912"></scales>
<clustering>
<clus scale="   43.702">  1  5  2 -1</clus>
<clus scale="   53.349">  2  4  1 -1</clus>
<clus scale="  111.839">  1  6  2 -1</clus>
<clus scale="   53.349">  2  3  1 -1</clus>
</clustering>
</event>
<event>
 6    0  0.1631680E+002  0.9096217E+02  0.7546771E-02  0.1300538E+00
         -4   -1    0    0    0  501 -0.00000000000E+00  0.00000000000E+00  0.20873734754E+04  0.20873734754E+04  0.00000000000E+00 0. -1.
         21   -1    0    0  503  502  0.00000000000E+00 -0.00000000000E+00 -0.13814519213E+02  0.13814519213E+02  0.00000000000E+00 0. -1.
         21    1    1    2  503  505 -0.50173497667E+02  0.14148198284E+02  0.11699284581E+03  0.12808152620E+03  0.00000000000E+00 0. -1.
         21    1    1    2  504  502 -0.68980076776E+01 -0.41428285034E+02  0.16520392643E+03  0.17045885902E+03  0.00000000000E+00 0. -1.
         21    1    1    2  505  501  0.29581698039E+01  0.10206091416E+03  0.70270321282E+03  0.71008237992E+03  0.00000000000E+00 0. -1.
         -4    1    1    2    0  504  0.54113335540E+02 -0.74780827412E+02  0.10886589712E+04  0.10925652295E+04  0.00000000000E+00 0. -1.
<scales pt_clust_3="53.97105" pt_clust_4="41.99863" pt_clust_5="14000.00000" pt_clust_6="90.96217"></scales>
<clustering>
<clus scale="   41.999">  2  4  1 -1</clus>
<clus scale="   53.971">  2  3  1 -1</clus>
<clus scale="   90.962">  1  6  2 -1</clus>
<clus scale="   41.999">  2  3  1 -1</clus>
</clustering>
</event>
<event>
 6    0  0.1631680E+002  0.8870495E+02  0.7546771E-02  0.1306019E+00
         21   -1    0    0  504  502  0.00000000000E+00  0.00000000000E+00  0.20962292845E+03  0.20962292845E+03  0.00000000000E+00 0. -1.
         -1   -1    0    0    0  501 -0.00000000000E+00 -0.00000000000E+00 -0.10291952653E+04  0.10291952653E+04  0.00000000000E+00 0.  1.
         21    1    1    2  503  502 -0.24953892893E+02  0.12633992232E+03  0.57033343059E+02  0.14084486133E+03  0.00000000000E+00 0. -1.
         21    1    1    2  504  505  0.39380404827E+02 -0.39317931538E+02  0.96916521454E+02  0.11175655755E+03  0.00000000000E+00 0. -1.
         21    1    1    2  505  501 -0.13129174856E+02 -0.47031296425E+02 -0.90889800354E+03  0.91020871173E+03  0.00000000000E+00 0.  1.
         -1    1    1    2    0  503 -0.12973370776E+01 -0.39990694355E+02 -0.64624197838E+02  0.76008063156E+02  0.00000000000E+00 0.  1.
<scales pt_clust_3="14000.00000" pt_clust_4="55.86014" pt_clust_5="88.70495" pt_clust_6="40.01173"></scales>
<clustering>
<clus scale="   40.012">  2  6  1 -1</clus>
<clus scale="   55.860">  1  4  2 -1</clus>
<clus scale="   88.705">  2  5  1 -1</clus>
<clus scale="   55.860">  1  3  2 -1</clus>
</clustering>
</event>
<event>
 6    0  0.1631680E+002  0.2649753E+03  0.7546771E-02  0.1104190E+00
         21   -1    0    0  505  502  0.00000000000E+00  0.00000000000E+00  0.82536944753E+03  0.82536944753E+03  0.00000000000E+00 0.  1.
          2   -1    0    0  503    0 -0.00000000000E+00 -0.00000000000E+00 -0.13311771507E+04  0.13311771507E+04  0.00000000000E+00 0.  1.
         21    1    1    2  503  504  0.12290289210E+02  0.37872556848E+02 -0.12747600739E+03  0.13354966953E+03  0.00000000000E+00 0.  1.
         21    1    1    2  504  502 -0.41427997573E+02  0.89353333840E+01  0.37868956559E+03  0.38105367897E+03  0.00000000000E+00 0. -1.
         21    1    1    2  505  501 -0.17023224060E+03  0.15251559679E+03  0.39476468740E+03  0.45615697016E+03  0.00000000000E+00 0.  1.
          2    1    1    2  501    0  0.19936994897E+03 -0.19932348702E+03 -0.11517859488E+04  0.11857862796E+04  0.00000000000E+00 0.  1.
<scales pt_clust_3="39.81685" pt_clust_4="42.37670" pt_clust_5="14000.00000" pt_clust_6="264.97531"></scales>
<clustering>
<clus scale="   39.817">  2  3  1 -1</clus>
<clus scale="   42.377">  1  4  2 -1</clus>
<clus scale="  264.975">  2  6  1 -1</clus>
<clus scale="   42.377">  1  3  2 -1</clus>
</clustering>
</event>
<event>
 6    0  0.1631680E+002  0.9552285E+02  0.7546771E-02  0.1290003E+00
         21   -1    0    0  503  502  0.00000000000E+00  0.00000000000E+00  0.93700787602E+03  0.93700787602E+03  0.00000000000E+00 0.  1.
          1   -1    0    0  505    0 -0.00000000000E+00 -0.00000000000E+00 -0.58929729982E+03  0.58929729982E+03  0.00000000000E+00 0.  1.
         21    1    1    2  503  501  0.95175752213E+02  0.42581435344E+02  0.30771245431E+03  0.32489776390E+03  0.00000000000E+00 0.  1.
         21    1    1    2  504  502 -0.94612993600E+02  0.11690737332E+01  0.60901954341E+03  0.61632604160E+03  0.00000000000E+00 0.  1.
         21    1    1    2  505  504  0.71057201625E+00  0.35521740604E+02 -0.58524795447E+02  0.68464959288E+02  0.00000000000E+00 0.  1.
          1    1    1    2  501    0 -0.12733306286E+01 -0.79272249681E+02 -0.51049662607E+03  0.51661641106E+03  0.00000000000E+00 0.  1.
<scales pt_clust_3="14000.00000" pt_clust_4="95.52285" pt_clust_5="35.52885" pt_clust_6="44.58157"></scales>
<clustering>
<clus scale="   35.529">  2  5  1 -1</clus>
<clus scale="   44.582">  2  6  1 -1</clus>
<clus scale="   95.523">  1  4  2 -1</clus>
<clus scale="   95.523">  1  3  2 -1</clus>
</clustering>
</event>
<event>
 6    0  0.1631680E+002  0.9096955E+02  0.7546771E-02  0.1300521E+00
          2   -1    0    0  504    0 -0.00000000000E+00  0.00000000000E+00  0.19825267745E+04  0.19825267745E+04  0.00000000000E+00 0.  1.
         21   -1    0    0  503  502  0.00000000000E+00 -0.00000000000E+00 -0.36093357890E+03  0.36093357890E+03  0.00000000000E+00 0. -1.
         21    1    1    2  503  505 -0.93327872573E+01 -0.44299445278E+02 -0.17653328790E+03  0.18224583261E+03  0.00000000000E+00 0. -1.
         21    1    1    2  504  502  0.31025772288E+02  0.82749018438E+02  0.18976352530E+03  0.20933273545E+03  0.00000000000E+00 0. -1.
         21    1    1    2  505  501  0.85708845444E+02 -0.73158298078E+01 -0.15911034898E+03  0.18087462704E+03  0.00000000000E+00 0. -1.
          2    1    1    2  501    0 -0.10740183048E+03 -0.31133743352E+02  0.17674733072E+04  0.17710071583E+04  0.00000000000E+00 0.  1.
<scales pt_clust_3="45.27187" pt_clust_4="85.96277" pt_clust_5="14000.00000" pt_clust_6="90.96955"></scales>
<clustering>
<clus scale="   45.272">  2  3  1 -1</clus>
<clus scale="   85.963">  1  4  2 -1</clus>
<clus scale="   90.970">  1  6  2 -1</clus>
<clus scale="   45.272">  2  3  1 -1</clus>
</clustering>
</event>
<event>
 6    0  0.1631680E+002  0.8857525E+02  0.7546771E-02  0.1306339E+00
         21   -1    0    0  503  502  0.00000000000E+00  0.00000000000E+00  0.40748174722E+03  0.40748174722E+03  0.00000000000E+00 0.  1.
         -1   -1    0    0    0  501 -0.00000000000E+00 -0.00000000000E+00 -0.58901994347E+03  0.58901994347E+03  0.00000000000E+00 0.  1.
         21    1    1    2  503  504  0.64110507608E+02 -0.44418002251E+02  0.28784604230E+03  0.29822551899E+03  0.00000000000E+00 0.  1.
         21    1    1    2  504  501  0.49379205340E+02 -0.65968679059E+02 -0.42228089109E+03  0.43024565485E+03  0.00000000000E+00 0.  1.
         21    1    1    2  505  502 -0.33923321929E+02  0.34940690719E+01  0.78077143673E+02  0.85200003835E+02  0.00000000000E+00 0.  1.
         -1    1    1    2    0  505 -0.79566391019E+02  0.10689261224E+03 -0.12518049113E+03  0.18283051302E+03  0.00000000000E+00 0.  1.
<scales pt_clust_3="53.22434" pt_clust_4="14000.00000" pt_clust_5="34.10279" pt_clust_6="88.57525"></scales>
<clustering>
<clus scale="   34.103">  1  5  2 -1</clus>
<clus scale="   53.224">  1  3  2 -1</clus>
<clus scale="   88.575">  1  6  2 -1</clus>
<clus scale="   34.103">  1  3  2 -1</clus>
</clustering>
</event>
<event>
 6    0  0.1631680E+002  0.7813446E+02  0.7546771E-02  0.1334431E+00
         21   -1    0    0  503  502  0.00000000000E+00  0.00000000000E+00  0.19904393242E+03  0.19904393242E+03  0.00000000000E+00 0. -1.
          1   -1    0    0  504    0 -0.00000000000E+00 -0.00000000000E+00 -0.29300967325E+03  0.29300967325E+03  0.00000000000E+00 0. -1.
         21    1    1    2  503  501  0.55988098829E+02 -0.88424740377E+02  0.12576469301E+03  0.16361650262E+03  0.00000000000E+00 0. -1.
         21    1    1    2  504  505  0.35099920465E+02 -0.18326797120E+02 -0.81969178401E+02  0.91031984033E+02  0.00000000000E+00 0.  1.
         21    1    1    2  505  502 -0.18219508822E+02  0.28414339736E+02  0.25435740598E+02  0.42264667325E+02  0.00000000000E+00 0.  1.
          1    1    1    2  501    0 -0.72868510472E+02  0.78337197760E+02 -0.16319699604E+03  0.19514045169E+03  0.00000000000E+00 0. -1.
<scales pt_clust_3="78.13446" pt_clust_4="38.79536" pt_clust_5="33.75389" pt_clust_6="14000.00000"></scales>
<clustering>
<clus scale="   33.754">  1  5  2 -1</clus>
<clus scale="   38.795">  2  4  1 -1</clus>
<clus scale="   78.134">  1  3  2 -1</clus>
<clus scale="   33.754">  1  3  2 -1</clus>
</clustering>
</event>
<event>
 6    0  0.1631680E+002  0.7209916E+02  0.7546771E-02  0.1353097E+00
         21   -1    0    0  504  502  0.00000000000E+00  0.00000000000E+00  0.85894987022E+02  0.85894987022E+02  0.00000000000E+00 0. -1.
          2   -1    0    0  505    0 -0.00000000000E+00 -0.00000000000E+00 -0.12792300789E+04  0.12792300789E+04  0.00000000000E+00 0. -1.
         21    1    1    2  503  501  0.11570482537E+03  0.31888259368E+02 -0.12739298433E+03  0.17502411307E+03  0.00000000000E+00 0. -1.
         21    1    1    2  504  503 -0.65882067387E+02 -0.64222203008E+01  0.37819775004E+02  0.76236651934E+02  0.00000000000E+00 0. -1.
         21    1    1    2  505  502  0.34203087652E+02  0.29512459176E+02 -0.23362507977E+03  0.23795275655E+03  0.00000000000E+00 0. -1.
          2    1    1    2  501    0 -0.84025845633E+02 -0.54978498244E+02 -0.87013680281E+03  0.87591154440E+03  0.00000000000E+00 0. -1.
<scales pt_clust_3="14000.00000" pt_clust_4="72.09916" pt_clust_5="45.17562" pt_clust_6="63.14578"></scales>
<clustering>
<clus scale="   45.176">  2  5  1 -1</clus>
<clus scale="   63.146">  2  6  1 -1</clus>
<clus scale="   72.099">  1  4  2 -1</clus>
<clus scale="   72.099">  1  3  2 -1</clus>
</clustering>
</event>
<event>
 6    0  0.1631680E+002  0.1317136E+03  0.7546771E-02  0.1224935E+00
         21   -1    0    0  505  502  0.00000000000E+00  0.00000000000E+00  0.30687090046E+03  0.30687090046E+03  0.00000000000E+00 0.  1.
          2   -1    0    0  503    0 -0.00000000000E+00 -0.00000000000E+00 -0.33467795253E+03  0.33467795253E+03  0.00000000000E+00 0. -1.
         21    1    1    2  503  504 -0.33522946832E+01  0.70937817612E+02  0.17091093383E+02  0.73044625540E+02  0.00000000000E+00 0.  1.
         21    1    1    2  504  502 -0.31155800779E+02  0.18562178593E+02  0.23442179568E+02  0.43183031149E+02  0.00000000000E+00 0.  1.
         21    1    1    2  505  501 -0.61278825818E+02  0.98221554201E+01  0.20766784918E+03  0.21674294640E+03  0.00000000000E+00 0.  1.
          2    1    1    2  501    0  0.95786921280E+02 -0.99322151626E+02 -0.27600817420E+03  0.30857824991E+03  0.00000000000E+00 0. -1.
<scales pt_clust_3="74.48078" pt_clust_4="36.26622" pt_clust_5="131.71358" pt_clust_6="14000.00000"></scales>
<clustering>
<clus scale="   36.266">  1  4  2 -1</clus>
<clus scale="   74.481">  1  3  2 -1</clus>
<clus scale="  131.714">  1  5  2 -1</clus>
<clus scale="   36.266">  1  3  2 -1</clus>
</clustering>
</event>
<event>
 6    0  0.1631680E+002  0.1509671E+03  0.7546771E-02  0.1199290E+00
          2   -1    0    0  502    0 -0.00000000000E+00  0.00000000000E+00  0.61264427413E+03  0.61264427413E+03  0.00000000000E+00 0.  1.
         21   -1    0    0  504  502  0.00000000000E+00 -0.00000000000E+00 -0.60997197466E+03  0.60997197466E+03  0.00000000000E+00 0.  1.
         21    1    1    2  503  505 -0.67824945648E+02 -0.21235572481E+02  0.44348494943E+02  0.83773276136E+02  0.00000000000E+00 0. -1.
         21    1    1    2  504  503  0.66807491894E+01  0.13408748048E+03 -0.56406813283E+03  0.57982492470E+03  0.00000000000E+00 0.  1.
         21    1    1    2  505  501 -0.33655747466E+02 -0.67804838935E+02  0.11034975932E+03  0.13381806642E+03  0.00000000000E+00 0. -1.
          2    1    1    2  501    0  0.94799943925E+02 -0.45047069063E+02  0.41204217805E+03  0.42519998153E+03  0.00000000000E+00 0.  1.
<scales pt_clust_3="69.79141" pt_clust_4="132.67686" pt_clust_5="69.79141" pt_clust_6="104.95841"></scales>
<clustering>
<clus scale="   69.791">  3  5 -1 -1</clus>
<clus scale="  104.958">  1  6  2 -1</clus>
<clus scale="  132.677">  2  4  1 -1</clus>
<clus scale="  132.677">  2  3  1 -1</clus>
</clustering>
</event>
<event>
 6    0  0.1631680E+002  0.1075232E+03  0.7546771E-02  0.1265226E+00
         21   -1    0    0  501  502  0.00000000000E+00  0.00000000000E+00  0.31618325091E+02  0.31618325091E+02  0.00000000000E+00 0. -1.
          2   -1    0    0  504    0 -0.00000000000E+00 -0.00000000000E+00 -0.21807475972E+04  0.21807475972E+04  0.00000000000E+00 0. -1.
         21    1    1    2  503  505  0.78954274583E+02  0.25850018652E+02 -0.16808581738E+03  0.18749624781E+03  0.00000000000E+00 0. -1.
         21    1    1    2  504  503  0.38932424367E+02  0.18026922233E+02 -0.30570503725E+03  0.30870094492E+03  0.00000000000E+00 0. -1.
         21    1    1    2  505  502  0.30291799049E+02 -0.12598976703E+02  0.11755868678E+01  0.32828483182E+02  0.00000000000E+00 0. -1.
          2    1    1    2  501    0 -0.14817849800E+03 -0.31277964183E+02 -0.16765140043E+04  0.16833402463E+04  0.00000000000E+00 0. -1.
<scales pt_clust_3="107.52324" pt_clust_4="45.24582" pt_clust_5="32.80743" pt_clust_6="14000.00000"></scales>
<clustering>
<clus scale="   32.807">  1  5  2 -1</clus>
<clus scale="   45.246">  2  4  1 -1</clus>
<clus scale="  107.523">  1  3  2 -1</clus>
<clus scale="   32.807">  1  3  2 -1</clus>
</clustering>
</event>
<event>
 6    0  0.1631680E+002  0.1072352E+03  0.7546771E-02  0.1265777E+00
          1   -1    0    0  503    0 -0.00000000000E+00  0.00000000000E+00  0.13690942453E+04  0.13690942453E+04  0.00000000000E+00 0.  1.
         21   -1    0    0  505  502  0.00000000000E+00 -0.00000000000E+00 -0.15824134089E+03  0.15824134089E+03  0.00000000000E+00 0. -1.
         21    1    1    2  503  504 -0.56859363905E+02 -0.21993176946E+02  0.88700618891E+03  0.88909879443E+03  0.00000000000E+00 0.  1.
         21    1    1    2  504  502  0.18035825062E+02 -0.11303316574E+03 -0.94070387052E+02  0.14815878396E+03  0.00000000000E+00 0. -1.
         21    1    1    2  505  501  0.62550265325E+02  0.88752670510E+02  0.51829944222E+02  0.12031589809E+03  0.00000000000E+00 0. -1.
          1    1    1    2  501    0 -0.23726726482E+02  0.46273672180E+02  0.36608715836E+03  0.36976210974E+03  0.00000000000E+00 0.  1.
<scales pt_clust_3="80.20118" pt_clust_4="14000.00000" pt_clust_5="107.23521" pt_clust_6="52.00202"></scales>
<clustering>
<clus scale="   52.002">  1  6  2 -1</clus>
<clus scale="   80.201">  1  3  2 -1</clus>
<clus scale="  107.235">  1  5  2 -1</clus>
<clus scale="  107.235">  2  3  1 -1</clus>
</clustering>
</event>
<event>
 6    0  0.1631680E+002  0.1063656E+03  0.7546771E-02  0.1267452E+00
         21   -1    0    0  505  502  0.00000000000E+00  0.00000000000E+00  0.64017961413E+03  0.64017961413E+03  0.00000000000E+00 0.  1.
          2   -1    0    0  504    0 -0.00000000000E+00 -0.00000000000E+00 -0.12906299590E+03  0.12906299590E+03  0.00000000000E+00 0. -1.
         21    1    1    2  503  501  0.42083467213E+02  0.74700576016E+01  0.41268100105E+02  0.59412760073E+02  0.00000000000E+00 0.  1.
         21    1    1    2  504  502  0.38166949379E+02 -0.88007307955E+02  0.38050238705E+03  0.39240803869E+03  0.00000000000E+00 0.  1.
         21    1    1    2  505  503  0.19605946419E+02  0.37397713637E+02  0.17433792725E+03  0.17937863585E+03  0.00000000000E+00 0.  1.
          2    1    1    2  501    0 -0.99856363011E+02  0.43139536717E+02 -0.84991796172E+02  0.13804317541E+03  0.00000000000E+00 0. -1.
<scales pt_clust_3="45.69319" pt_clust_4="106.36559" pt_clust_5="42.22537" pt_clust_6="14000.00000"></scales>
<clustering>
<clus scale="   42.225">  1  5  2 -1</clus>
<clus scale="   45.693">  1  3  2 -1</clus>
<clus scale="  106.366">  1  4  2 -1</clus>
<clus scale="   42.225">  1  3  2 -1</clus>
</clustering>
</event>
<event>
 6    0  0.1631680E+002  0.8074062E+02  0.7546771E-02  0.1326963E+00
         21   -1    0    0  504  502  0.00000000000E+00  0.00000000000E+00  0.26042640599E+02  0.26042640599E+02  0.00000000000E+00 0.  1.
          2   -1    0    0  505    0 -0.00000000000E+00 -0.00000000000E+00 -0.16346824355E+04  0.16346824355E+04  0.00000000000E+00 0. -1.
         21    1    1    2  503  502  0.27980236228E+02  0.41270335535E+02 -0.40058424333E+02  0.63959452582E+02  0.00000000000E+00 0.  1.
         21    1    1    2  504  501  0.24118638867E+02 -0.99520558903E+02 -0.23270599293E+03  0.25424029880E+03  0.00000000000E+00 0.  1.
         21    1    1    2  505  503  0.29088388506E+02  0.26822001329E+02 -0.24425956382E+03  0.24744350591E+03  0.00000000000E+00 0.  1.
          2    1    1    2  501    0 -0.81187263601E+02  0.31428222039E+02 -0.10916158138E+04  0.10950818188E+04  0.00000000000E+00 0. -1.
<scales pt_clust_3="51.30491" pt_clust_4="80.74062" pt_clust_5="39.56708" pt_clust_6="14000.00000"></scales>
<clustering>
<clus scale="   39.567">  2  5  1 -1</clus>
<clus scale="   51.305">  1  3  2 -1</clus>
<clus scale="   80.741">  1  4  2 -1</clus>
<clus scale="   51.305">  1  3  2 -1</clus>
</clustering>
</event>
<event>
 6    0  0.1631680E+002  0.2745009E+03  0.7546771E-02  0.1098731E+00
         21   -1    0    0  505  502  0.00000000000E+00  0.00000000000E+00  0.59370974618E+02  0.59370974618E+02  0.00000000000E+00 0. -1.
          1   -1    0    0  503    0 -0.00000000000E+00 -0.00000000000E+00 -0.26852600678E+04  0.26852600678E+04  0.00000000000E+00 0. -1.
         21    1    1    2  503  504 -0.22607878563E+01  0.33660721906E+02 -0.24537319222E+03  0.24768156738E+03  0.00000000000E+00 0. -1.
         21    1    1    2  504  502 -0.61230477050E+02  0.90614539607E+02 -0.12635934526E+03  0.16711328566E+03  0.00000000000E+00 0. -1.
         21    1    1    2  505  501  0.27176848839E+03  0.76083493696E+02 -0.83048868852E+03  0.87713070352E+03  0.00000000000E+00 0. -1.
          1    1    1    2  501    0 -0.20827722348E+03 -0.20035875521E+03 -0.14236678672E+04  0.14527054859E+04  0.00000000000E+00 0. -1.
<scales pt_clust_3="33.73656" pt_clust_4="111.12153" pt_clust_5="274.50094" pt_clust_6="14000.00000"></scales>
<clustering>
<clus scale="   33.737">  2  3  1 -1</clus>
<clus scale="  111.122">  1  4  2 -1</clus>
<clus scale="  274.501">  1  5  2 -1</clus>
<clus scale="  111.122">  1  3  2 -1</clus>
</clustering>
</event>
<event>
 6    0  0.1631680E+002  0.1456297E+03  0.7546771E-02  0.1205948E+00
         21   -1    0    0  504  502  0.00000000000E+00  0.00000000000E+00  0.18797052731E+04  0.18797052731E+04  0.00000000000E+00 0. -1.
          2   -1    0    0  503    0 -0.00000000000E+00 -0.00000000000E+00 -0.25830201419E+04  0.25830201419E+04  0.00000000000E+00 0.  1.
         21    1    1    2  503  505 -0.25895302869E+02  0.16010268433E+02 -0.15342329644E+03  0.15641484359E+03  0.00000000000E+00 0. -1.
         21    1    1    2  504  501 -0.12204214477E+03 -0.12244594284E+03 -0.11213401754E+04  0.11345885083E+04  0.00000000000E+00 0. -1.
         21    1    1    2  505  502  0.54361306560E+02  0.13503822660E+02  0.18678199831E+04  0.18686596786E+04  0.00000000000E+00 0. -1.
          2    1    1    2  501    0  0.93576141079E+02  0.92931851752E+02 -0.12963713801E+04  0.13030623847E+04  0.00000000000E+00 0.  1.
<scales pt_clust_3="30.44496" pt_clust_4="14000.00000" pt_clust_5="56.00976" pt_clust_6="145.62974"></scales>
<clustering>
<clus scale="   30.445">  2  3  1 -1</clus>
<clus scale="   56.010">  1  5  2 -1</clus>
<clus scale="  145.630">  2  6  1 -1</clus>
<clus scale="   56.010">  1  3  2 -1</clus>
</clustering>
</event>
<event>
 6    0  0.1631680E+002  0.3247350E+03  0.7546771E-02  0.1073491E+00
          1   -1    0    0  505    0 -0.00000000000E+00  0.00000000000E+00  0.15267685521E+04  0.15267685521E+04  0.00000000000E+00 0. -1.
         21   -1    0    0  501  502  0.00000000000E+00 -0.00000000000E+00 -0.43678728492E+03  0.43678728492E+03  0.00000000000E+00 0. -1.
         21    1    1    2  503  504  0.55691922646E+02  0.42643550438E+02  0.73211479734E+03  0.73546729304E+03  0.00000000000E+00 0. -1.
         21    1    1    2  504  502 -0.30185023078E+03 -0.12507058026E+03 -0.31904844811E+03  0.45667069547E+03  0.00000000000E+00 0. -1.
         21    1    1    2  505  503 -0.33190623058E+02 -0.40978898626E+02  0.44013953535E+02  0.68688541238E+02  0.00000000000E+00 0. -1.
          1    1    1    2  501    0  0.27934893119E+03  0.12340592845E+03  0.63290096438E+03  0.70272930723E+03  0.00000000000E+00 0. -1.
<scales pt_clust_3="44.98449" pt_clust_4="324.73500" pt_clust_5="52.73412" pt_clust_6="14000.00000"></scales>
<clustering>
<clus scale="   52.734">  1  5  2 -1</clus>
<clus scale="   44.984">  1  3  2 -1</clus>
<clus scale="  324.735">  2  4  1 -1</clus>
<clus scale="  324.735">  2  3  1 -1</clus>
</clustering>
</event>
<event>
 6    0  0.1631680E+002  0.1705507E+03  0.7546771E-02  0.1177275E+00
         21   -1    0    0  503  502  0.00000000000E+00  0.00000000000E+00  0.12647795616E+03  0.12647795616E+03  0.00000000000E+00 0.  1.
          1   -1    0    0  505    0 -0.00000000000E+00 -0.00000000000E+00 -0.16957654488E+04  0.16957654488E+04  0.00000000000E+00 0. -1.
         21    1    1    2  503  504 -0.46141263938E+02  0.31034967549E+01  0.10369507696E+03  0.11353993534E+03  0.00000000000E+00 0.  1.
         21    1    1    2  504  501 -0.12297255736E+02  0.34991019810E+02 -0.90903730924E+02  0.98178827972E+02  0.00000000000E+00 0. -1.
         21    1    1    2  505  502  0.15596669863E+03 -0.84257979213E+02 -0.12167021826E+04  0.12295483802E+04  0.00000000000E+00 0.  1.
          1    1    1    2  501    0 -0.97528178955E+02  0.46163462648E+02 -0.36537665611E+03  0.38097626147E+03  0.00000000000E+00 0. -1.
<scales pt_clust_3="46.24552" pt_clust_4="30.74573" pt_clust_5="162.28808" pt_clust_6="30.74573"></scales>
<clustering>
<clus scale="   30.746">  4  6 -1 -1</clus>
<clus scale="   46.246">  1  3  2 -1</clus>
<clus scale="  162.288">  2  5  1 -1</clus>
<clus scale="   46.246">  1  3  2 -1</clus>
</clustering>
</event>
<event>
 6    0  0.1631680E+002  0.1708710E+03  0.7546771E-02  0.1176943E+00
          1   -1    0    0  504    0 -0.00000000000E+00  0.00000000000E+00  0.28043514326E+03  0.28043514326E+03  0.00000000000E+00 0. -1.
         21   -1    0    0  505  502  0.00000000000E+00 -0.00000000000E+00 -0.44598958825E+03  0.44598958825E+03  0.00000000000E+00 0.  1.
         21    1    1    2  503  501 -0.93694759785E+02  0.10713522358E+03 -0.62402441728E+02  0.15540504778E+03  0.00000000000E+00 0.  1.
         21    1    1    2  504  502 -0.45555018716E+02  0.20023687783E+02 -0.25026102314E+03  0.25516031726E+03  0.00000000000E+00 0.  1.
         21    1    1    2  505  503  0.27928598662E+02  0.14721013253E+02 -0.43310804097E+02  0.53596087599E+02  0.00000000000E+00 0.  1.
          1    1    1    2  501    0  0.11132117984E+03 -0.14187992461E+03  0.19041982397E+03  0.26226327888E+03  0.00000000000E+00 0. -1.
<scales pt_clust_3="14000.00000" pt_clust_4="40.44975" pt_clust_5="31.57079" pt_clust_6="170.87102"></scales>
<clustering>
<clus scale="   31.571">  2  5  1 -1</clus>
<clus scale="   40.450">  2  4  1 -1</clus>
<clus scale="  170.871">  1  6  2 -1</clus>
<clus scale="   31.571">  2  3  1 -1</clus>
</clustering>
</event>
<event>
 6    0  0.1631680E+002  0.1720722E+03  0.7546771E-02  0.1175704E+00
         21   -1    0    0  504  502  0.00000000000E+00  0.00000000000E+00  0.52799160638E+03  0.52799160638E+03  0.00000000000E+00 0.  1.
          2   -1    0    0  503    0 -0.00000000000E+00 -0.00000000000E+00 -0.13894990825E+04  0.13894990825E+04  0.00000000000E+00 0.  1.
         21    1    1    2  503  502 -0.84578464224E+02  0.17819067476E+03 -0.35797137392E+03  0.40871620683E+03  0.00000000000E+00 0.  1.
         21    1    1    2  504  505  0.16890289923E+03 -0.41235863857E+02  0.48037407799E+03  0.51086969047E+03  0.00000000000E+00 0.  1.
         21    1    1    2  505  501 -0.64725831815E+02 -0.79961773616E+02 -0.51837377340E+03  0.52848338431E+03  0.00000000000E+00 0.  1.
          2    1    1    2  501    0 -0.19598603193E+02 -0.56993037286E+02 -0.46553640683E+03  0.46942140730E+03  0.00000000000E+00 0.  1.
<scales pt_clust_3="172.07218" pt_clust_4="14000.00000" pt_clust_5="33.07658" pt_clust_6="166.53747"></scales>
<clustering>
<clus scale="   33.077">  5  6 -1 -1</clus>
<clus scale="  166.537">  2  5  1 -1</clus>
<clus scale="  172.072">  2  3  1 -1</clus>
<clus scale="  172.072">  1  3  2 -1</clus>
</clustering>
</event>
<event>
 6    0  0.1631680E+002  0.7623563E+02  0.7546771E-02  0.1340087E+00
         21   -1    0    0  504  502  0.00000000000E+00  0.00000000000E+00  0.25270350434E+03  0.25270350434E+03  0.00000000000E+00 0. -1.
          1   -1    0    0  505    0 -0.00000000000E+00 -0.00000000000E+00 -0.13273860924E+04  0.13273860924E+04  0.00000000000E+00 0. -1.
         21    1    1    2  503  501 -0.77008544377E+02 -0.26252269622E+02 -0.44017824003E+03  0.44763420397E+03  0.00000000000E+00 0. -1.
         21    1    1    2  504  503  0.71922742406E+02 -0.69186966687E+02 -0.17285328011E+03  0.19959452317E+03  0.00000000000E+00 0. -1.
         21    1    1    2  505  502 -0.42041904326E+02  0.32661106844E+02  0.23034978782E+03  0.23642185679E+03  0.00000000000E+00 0. -1.
          1    1    1    2  501    0  0.47127706297E+02  0.62778129465E+02 -0.69200085572E+03  0.69643901281E+03  0.00000000000E+00 0. -1.
<scales pt_clust_3="76.23563" pt_clust_4="63.27429" pt_clust_5="53.23786" pt_clust_6="14000.00000"></scales>
<clustering>
<clus scale="   53.238">  1  5  2 -1</clus>
<clus scale="   63.274">  1  4  2 -1</clus>
<clus scale="   76.236">  1  3  2 -1</clus>
<clus scale="   53.238">  1  3  2 -1</clus>
</clustering>
</event>
<event>
 6    0  0.1631680E+002  0.1056876E+03  0.7546771E-02  0.1268771E+00
          1   -1    0    0  503    0 -0.00000000000E+00  0.00000000000E+00  0.14583323279E+02  0.14583323279E+02  0.00000000000E+00 0. -1.
         21   -1    0    0  504  502  0.00000000000E+00 -0.00000000000E+00 -0.24482792795E+04  0.24482792795E+04  0.00000000000E+00 0. -1.
         21    1    1    2  503  505 -0.69663278279E+01  0.43685446411E+02 -0.18652982238E+03  0.19170373651E+03  0.00000000000E+00 0.  1.
         21    1    1    2  504  501  0.69433928359E+02  0.88586869590E+01 -0.49776464840E+03  0.50266210514E+03  0.00000000000E+00 0. -1.
         21    1    1    2  505  502 -0.10910719631E+03  0.60367906870E+02 -0.11522225215E+04  0.11589501299E+04  0.00000000000E+00 0. -1.
          1    1    1    2  501    0  0.46639595774E+02 -0.11291204024E+03 -0.59717896389E+03  0.60954663123E+03  0.00000000000E+00 0. -1.
<scales pt_clust_3="44.23740" pt_clust_4="70.29656" pt_clust_5="105.68757" pt_clust_6="14000.00000"></scales>
<clustering>
<clus scale="   44.237">  1  3  2 -1</clus>
<clus scale="   70.297">  2  4  1 -1</clus>
<clus scale="  105.688">  2  5  1 -1</clus>
<clus scale="   70.297">  2  3  1 -1</clus>
</clustering>
</event>
<event>
 6    0  0.1631680E+002  0.1100377E+03  0.7546771E-02  0.1260500E+00
          4   -1    0    0  503    0 -0.00000000000E+00  0.00000000000E+00  0.11244044032E+03  0.11244044032E+03  0.00000000000E+00 0.  1.
         21   -1    0    0  505  502  0.00000000000E+00 -0.00000000000E+00 -0.50751454506E+03  0.50751454506E+03  0.00000000000E+00 0.  1.
         21    1    1    2  503  504 -0.34595749430E+02  0.23436681482E+02  0.36971305923E+02  0.55794456527E+02  0.00000000000E+00 0. -1.
         21    1    1    2  504  502  0.13355184521E+03 -0.11738121887E+02 -0.13413112978E+03  0.18964450649E+03  0.00000000000E+00 0.  1.
         21    1    1    2  505  501 -0.25384079931E+02 -0.65127944031E+02 -0.27073751855E+03  0.27961545837E+03  0.00000000000E+00 0.  1.
          4    1    1    2  501    0 -0.73572015846E+02  0.53429384436E+02 -0.27176762325E+02  0.94900563999E+02  0.00000000000E+00 0.  1.
<scales pt_clust_3="41.78689" pt_clust_4="14000.00000" pt_clust_5="69.33087" pt_clust_6="110.03774"></scales>
<clustering>
<clus scale="   41.787">  1  3  2 -1</clus>
<clus scale="   69.331">  2  5  1 -1</clus>
<clus scale="  110.038">  1  6  2 -1</clus>
<clus scale="   69.331">  2  3  1 -1</clus>
</clustering>
</event>
<event>
 6    0  0.1631680E+002  0.5115460E+03  0.7546771E-02  0.1010808E+00
         21   -1    0    0  503  502  0.00000000000E+00  0.00000000000E+00  0.26097736641E+03  0.26097736641E+03  0.00000000000E+00 0. -1.
          2   -1    0    0  504    0 -0.00000000000E+00 -0.00000000000E+00 -0.32304911820E+04  0.32304911820E+04  0.00000000000E+00 0. -1.
         21    1    1    2  503  505 -0.39759943960E+02  0.35405720856E+02  0.10133589316E+03  0.11447000243E+03  0.00000000000E+00 0. -1.
         21    1    1    2  504  502 -0.56582348969E+02 -0.38797473854E+02 -0.13942451735E+03  0.15538983954E+03  0.00000000000E+00 0. -1.
         21    1    1    2  505  501 -0.21081691985E+02 -0.49886911174E+03 -0.40456678133E+03  0.64264228693E+03  0.00000000000E+00 0. -1.
          2    1    1    2  501    0  0.11742398492E+03  0.50226086474E+03 -0.25268584101E+04  0.25789664196E+04  0.00000000000E+00 0. -1.
<scales pt_clust_3="53.23925" pt_clust_4="69.32449" pt_clust_5="14000.00000" pt_clust_6="511.54602"></scales>
<clustering>
<clus scale="   53.239">  1  3  2 -1</clus>
<clus scale="   69.324">  1  4  2 -1</clus>
<clus scale="  511.546">  2  6  1 -1</clus>
<clus scale="   53.239">  1  3  2 -1</clus>
</clustering>
</event>
<event>
 6    0  0.1631680E+002  0.5936207E+02  0.7546771E-02  0.1400528E+00
         -4   -1    0    0    0  501 -0.00000000000E+00  0.00000000000E+00  0.35940399412E+03  0.35940399412E+03  0.00000000000E+00 0.  1.
         21   -1    0    0  503  502  0.00000000000E+00 -0.00000000000E+00 -0.26484894680E+03  0.26484894680E+03  0.00000000000E+00 0. -1.
         21    1    1    2  503  505 -0.52885377667E+02  0.71014137562E+01 -0.16304505076E+03  0.17155460305E+03  0.00000000000E+00 0. -1.
         21    1    1    2  504  501 -0.76291583221E+02  0.23165716401E+02  0.20122086996E+03  0.21644143456E+03  0.00000000000E+00 0.  1.
         21    1    1    2  505  504  0.97118671824E+02 -0.20206614413E+02 -0.59452686069E+02  0.11565018618E+03  0.00000000000E+00 0.  1.
         -4    1    1    2    0  502  0.32058289064E+02 -0.10060515745E+02  0.11583191418E+03  0.12060671713E+03  0.00000000000E+00 0.  1.
<scales pt_clust_3="59.36207" pt_clust_4="50.64053" pt_clust_5="14000.00000" pt_clust_6="33.59982"></scales>
<clustering>
<clus scale="   33.600">  1  6  2 -1</clus>
<clus scale="   50.641">  1  4  2 -1</clus>
<clus scale="   59.362">  2  3  1 -1</clus>
<clus scale="   59.362">  2  3  1 -1</clus>
</clustering>
</event>
<event>
 6    0  0.1631680E+002  0.1509497E+03  0.7546771E-02  0.1199311E+00
         21   -1    0    0  501  502  0.00000000000E+00  0.00000000000E+00  0.10458401093E+03  0.10458401093E+03  0.00000000000E+00 0.  1.
          2   -1    0    0  503    0 -0.00000000000E+00 -0.00000000000E+00 -0.72222018616E+03  0.72222018616E+03  0.00000000000E+00 0.  1.
         21    1    1    2  503  505 -0.51496346431E+02 -0.25675669651E+02 -0.12369892864E+03  0.13642777816E+03  0.00000000000E+00 0.  1.
         21    1    1    2  504  502  0.51724038289E+02  0.92787520451E+02 -0.82256382683E+02  0.13435405681E+03  0.00000000000E+00 0.  1.
         21    1    1    2  505  504 -0.15230186599E+03  0.15046609825E+02 -0.60422290287E+02  0.16453908963E+03  0.00000000000E+00 0.  1.
          2    1    1    2  501    0  0.15207417414E+03 -0.82158460625E+02 -0.35125857363E+03  0.39148327249E+03  0.00000000000E+00 0.  1.
<scales pt_clust_3="57.54228" pt_clust_4="97.72333" pt_clust_5="150.94968" pt_clust_6="14000.00000"></scales>
<clustering>
<clus scale="   57.542">  2  3  1 -1</clus>
<clus scale="   97.723">  1  4  2 -1</clus>
<clus scale="  150.950">  1  5  2 -1</clus>
<clus scale="   97.723">  1  3  2 -1</clus>
</clustering>
</event>
<event>
 6    0  0.1631680E+002  0.1066183E+03  0.7546771E-02  0.1266963E+00
         21   -1    0    0  503  502  0.00000000000E+00  0.00000000000E+00  0.25906531422E+03  0.25906531422E+03  0.00000000000E+00 0. -1.
          2   -1    0    0  505    0 -0.00000000000E+00 -0.00000000000E+00 -0.40427924514E+03  0.40427924514E+03  0.00000000000E+00 0. -1.
         21    1    1    2  503  504 -0.34280614235E+02 -0.38538828939E+02  0.93135831174E+02  0.10646447716E+03  0.00000000000E+00 0.  1.
         21    1    1    2  504  501 -0.76027465208E+02  0.29519109706E+02  0.12728492920E+03  0.15117210889E+03  0.00000000000E+00 0. -1.
         21    1    1    2  505  502 -0.16092222562E+01 -0.44906593957E+02 -0.54170558714E+02  0.70382108582E+02  0.00000000000E+00 0. -1.
          2    1    1    2  501    0  0.11191730170E+03  0.53926313190E+02 -0.31146413258E+03  0.33532586473E+03  0.00000000000E+00 0. -1.
<scales pt_clust_3="52.25673" pt_clust_4="106.61835" pt_clust_5="44.93542" pt_clust_6="14000.00000"></scales>
<clustering>
<clus scale="   44.935">  2  5  1 -1</clus>
<clus scale="   52.257">  1  3  2 -1</clus>
<clus scale="  106.618">  1  4  2 -1</clus>
<clus scale="   52.257">  1  3  2 -1</clus>
</clustering>
</event>
<event>
 6    0  0.1631680E+002  0.1798438E+03  0.7546771E-02  0.1167954E+00
          2   -1    0    0  504    0 -0.00000000000E+00  0.00000000000E+00  0.21138332147E+04  0.21138332147E+04  0.00000000000E+00 0.  1.
         21   -1    0    0  501  502  0.00000000000E+00 -0.00000000000E+00 -0.92695746402E+02  0.92695746402E+02  0.00000000000E+00 0. -1.
         21    1    1    2  503  502  0.12007514615E+03 -0.18353202798E+02  0.99519416819E+01  0.12187666684E+03  0.00000000000E+00 0. -1.
         21    1    1    2  504  505  0.40669675667E+02 -0.33562232938E+02  0.73626870828E+03  0.73815449385E+03  0.00000000000E+00 0.  1.
         21    1    1    2  505  503  0.70643965657E+02 -0.10806437039E+03  0.62689389906E+03  0.64005034076E+03  0.00000000000E+00 0.  1.
          2    1    1    2  501    0 -0.23138878748E+03  0.15997980612E+03  0.64802291925E+03  0.70644745963E+03  0.00000000000E+00 0.  1.
<scales pt_clust_3="123.64421" pt_clust_4="52.72993" pt_clust_5="14000.00000" pt_clust_6="179.84377"></scales>
<clustering>
<clus scale="   52.730">  1  4  2 -1</clus>
<clus scale="  123.644">  2  3  1 -1</clus>
<clus scale="  179.844">  2  6  1 -1</clus>
<clus scale="  123.644">  2  3  1 -1</clus>
</clustering>
</event>
<event>
 6    0  0.1631680E+002  0.1330612E+03  0.7546771E-02  0.1222983E+00
         21   -1    0    0  501  502  0.00000000000E+00  0.00000000000E+00  0.70466847756E+03  0.70466847756E+03  0.00000000000E+00 0. -1.
          2   -1    0    0  505    0 -0.00000000000E+00 -0.00000000000E+00 -0.44467117807E+03  0.44467117807E+03  0.00000000000E+00 0. -1.
         21    1    1    2  503  504  0.45321503319E+02 -0.69625297940E+02  0.18603856099E+03  0.20374510289E+03  0.00000000000E+00 0. -1.
         21    1    1    2  504  502  0.65855625819E+01 -0.59971028044E+02  0.49411160262E+03  0.49778124682E+03  0.00000000000E+00 0. -1.
         21    1    1    2  505  503 -0.28937181269E+02  0.28701466657E+02 -0.56113135749E+02  0.69352856118E+02  0.00000000000E+00 0.  1.
          2    1    1    2  501    0 -0.22969884632E+02  0.10089485933E+03 -0.36403972837E+03  0.37846044981E+03  0.00000000000E+00 0. -1.
<scales pt_clust_3="133.06121" pt_clust_4="60.17943" pt_clust_5="40.75702" pt_clust_6="14000.00000"></scales>
<clustering>
<clus scale="   40.757">  2  5  1 -1</clus>
<clus scale="   60.179">  1  4  2 -1</clus>
<clus scale="  133.061">  1  3  2 -1</clus>
<clus scale="   60.179">  1  3  2 -1</clus>
</clustering>
</event>
<event>
 6    0  0.1631680E+002  0.1356112E+03  0.7546771E-02  0.1219359E+00
         21   -1    0    0  504  502  0.00000000000E+00  0.00000000000E+00  0.12909412734E+03  0.12909412734E+03  0.00000000000E+00 0.  1.
          2   -1    0    0  505    0 -0.00000000000E+00 -0.00000000000E+00 -0.24300517533E+04  0.24300517533E+04  0.00000000000E+00 0. -1.
         21    1    1    2  503  502  0.43960143048E+02 -0.57309657677E+02 -0.78259362589E+02  0.10649609792E+03  0.00000000000E+00 0.  1.
         21    1    1    2  504  501  0.94092146428E+02  0.70082376200E+02  0.81408997779E+02  0.14280159800E+03  0.00000000000E+00 0.  1.
         21    1    1    2  505  503 -0.30787954088E+02 -0.19908912058E+02 -0.22535268704E+03  0.22831578231E+03  0.00000000000E+00 0. -1.
          2    1    1    2  501    0 -0.10726433539E+03  0.71361935345E+01 -0.20787545741E+04  0.20815324024E+04  0.00000000000E+00 0. -1.
<scales pt_clust_3="72.12099" pt_clust_4="135.61120" pt_clust_5="36.66419" pt_clust_6="14000.00000"></scales>
<clustering>
<clus scale="   36.664">  2  5  1 -1</clus>
<clus scale="   72.121">  1  3  2 -1</clus>
<clus scale="  135.611">  1  4  2 -1</clus>
<clus scale="   72.121">  1  3  2 -1</clus>
</clustering>
</event>
<event>
 6    0  0.1631680E+002  0.8064493E+02  0.7546771E-02  0.1327231E+00
         -2   -1    0    0    0  501 -0.00000000000E+00  0.00000000000E+00  0.97548155594E+03  0.97548155594E+03  0.00000000000E+00 0. -1.
         21   -1    0    0  503  502  0.00000000000E+00 -0.00000000000E+00 -0.29156210677E+03  0.29156210677E+03  0.00000000000E+00 0.  1.
         21    1    1    2  503  505 -0.34820295738E+02 -0.31531581529E+01 -0.19659724695E+02  0.40111097925E+02  0.00000000000E+00 0. -1.
         21    1    1    2  504  502 -0.40860148421E+02  0.34703830995E+02 -0.24911274350E+03  0.25481575028E+03  0.00000000000E+00 0.  1.
         21    1    1    2  505  501  0.40166271586E+02  0.70358971402E+02  0.30919507943E+03  0.31963308868E+03  0.00000000000E+00 0. -1.
         -2    1    1    2    0  504  0.35514172573E+02 -0.10190964424E+03  0.64349683793E+03  0.65248372583E+03  0.00000000000E+00 0. -1.
<scales pt_clust_3="34.96277" pt_clust_4="80.64493" pt_clust_5="80.61986" pt_clust_6="14000.00000"></scales>
<clustering>
<clus scale="   34.963">  2  3  1 -1</clus>
<clus scale="   80.620">  1  5  2 -1</clus>
<clus scale="   80.645">  2  4  1 -1</clus>
<clus scale="   34.963">  2  3  1 -1</clus>
</clustering>
</event>
<event>
 6    0  0.1631680E+002  0.1184065E+03  0.7546771E-02  0.1245749E+00
          2   -1    0    0  502    0 -0.00000000000E+00  0.00000000000E+00  0.19302396558E+04  0.19302396558E+04  0.00000000000E+00 0. -1.
         21   -1    0    0  503  502  0.00000000000E+00 -0.00000000000E+00 -0.42070226614E+02  0.42070226614E+02  0.00000000000E+00 0. -1.
         21    1    1    2  503  504 -0.25830189149E+01  0.31445273362E+02  0.76437339620E+01  0.32463885664E+02  0.00000000000E+00 0. -1.
         21    1    1    2  504  505  0.57128895527E+02  0.71380142415E+01  0.22492667907E+02  0.61810857145E+02  0.00000000000E+00 0. -1.
         21    1    1    2  505  501  0.29472840146E+02  0.68264867668E+02  0.18346989285E+03  0.19796449694E+03  0.00000000000E+00 0. -1.
          2    1    1    2  501    0 -0.84018716757E+02 -0.10684815527E+03  0.16745631345E+04  0.16800706427E+04  0.00000000000E+00 0. -1.
<scales pt_clust_3="31.55118" pt_clust_4="62.07998" pt_clust_5="14000.00000" pt_clust_6="118.40647"></scales>
<clustering>
<clus scale="   31.551">  2  3  1 -1</clus>
<clus scale="   62.080">  2  4  1 -1</clus>
<clus scale="  118.406">  1  6  2 -1</clus>
<clus scale="   31.551">  2  3  1 -1</clus>
</clustering>
</event>
<event>
 6    0  0.1631680E+002  0.1787619E+03  0.7546771E-02  0.1169007E+00
         -4   -1    0    0    0  501 -0.00000000000E+00  0.00000000000E+00  0.42054558376E+03  0.42054558376E+03  0.00000000000E+00 0. -1.
         21   -1    0    0  505  502  0.00000000000E+00 -0.00000000000E+00 -0.82480812821E+03  0.82480812821E+03  0.00000000000E+00 0. -1.
         21    1    1    2  503  501  0.61291348356E+01 -0.33023379838E+02  0.64003686710E+02  0.72281268820E+02  0.00000000000E+00 0.  1.
         21    1    1    2  504  503  0.98683742876E+02  0.14236005495E+03 -0.31916154664E+03  0.36313765875E+03  0.00000000000E+00 0. -1.
         21    1    1    2  505  504 -0.15155176725E+03 -0.11112806067E+03 -0.45928590821E+03  0.49624684332E+03  0.00000000000E+00 0. -1.
         -4    1    1    2    0  502  0.46738889541E+02  0.17913855602E+01  0.31018122368E+03  0.31368794108E+03  0.00000000000E+00 0. -1.
<scales pt_clust_3="33.58735" pt_clust_4="14000.00000" pt_clust_5="178.76191" pt_clust_6="58.94099"></scales>
<clustering>
<clus scale="   33.587">  1  3  2 -1</clus>
<clus scale="   58.941">  1  6  2 -1</clus>
<clus scale="  178.762">  2  5  1 -1</clus>
<clus scale="  178.762">  2  3  1 -1</clus>
</clustering>
</event>
<event>
 6    0  0.1631680E+002  0.6810889E+02  0.7546771E-02  0.1366645E+00
          1   -1    0    0  504    0 -0.00000000000E+00  0.00000000000E+00  0.75610198338E+03  0.75610198338E+03  0.00000000000E+00 0.  1.
         21   -1    0    0  505  502  0.00000000000E+00 -0.00000000000E+00 -0.41533042742E+03  0.41533042742E+03  0.00000000000E+00 0. -1.
         21    1    1    2  503  501  0.62554913506E+02 -0.15360364485E+02  0.38054998787E+02  0.74814710676E+02  0.00000000000E+00 0. -1.
         21    1    1    2  504  502 -0.34490784781E+02  0.78146465971E+02 -0.32997935135E+03  0.34085606449E+03  0.00000000000E+00 0. -1.
         21    1    1    2  505  503  0.33133902471E+02 -0.28766059748E+02 -0.51690391981E+02  0.67802937322E+02  0.00000000000E+00 0. -1.
          1    1    1    2  501    0 -0.61198031196E+02 -0.34020041738E+02  0.68438630051E+03  0.68795869831E+03  0.00000000000E+00 0.  1.
<scales pt_clust_3="14000.00000" pt_clust_4="51.11434" pt_clust_5="43.87872" pt_clust_6="68.10889"></scales>
<clustering>
<clus scale="   43.879">  2  5  1 -1</clus>
<clus scale="   51.114">  2  4  1 -1</clus>
<clus scale="   68.109">  1  6  2 -1</clus>
<clus scale="   43.879">  2  3  1 -1</clus>
</clustering>
</event>
<event>
 6    0  0.1631680E+002  0.1327747E+03  0.7546771E-02  0.1223396E+00
          4   -1    0    0  504    0 -0.00000000000E+00  0.00000000000E+00  0.27913867933E+03  0.27913867933E+03  0.00000000000E+00 0.  1.
         21   -1    0    0  503  502  0.00000000000E+00 -0.00000000000E+00 -0.60602582415E+03  0.60602582415E+03  0.00000000000E+00 0.  1.
         21    1    1    2  503  501 -0.32479075918E+02  0.56455131874E+02 -0.47090368755E+02  0.80371481988E+02  0.00000000000E+00 0. -1.
         21    1    1    2  504  505 -0.30078273921E+02 -0.29983212144E+02  0.22048853857E+02  0.47852351342E+02  0.00000000000E+00 0. -1.
         21    1    1    2  505  502  0.94467849800E+02  0.67550703218E+02 -0.51173679644E+03  0.52474929345E+03  0.00000000000E+00 0.  1.
          4    1    1    2  501    0 -0.31910499962E+02 -0.94022622948E+02  0.20989116652E+03  0.23219137670E+03  0.00000000000E+00 0.  1.
<scales pt_clust_3="64.44293" pt_clust_4="42.46994" pt_clust_5="132.77472" pt_clust_6="14000.00000"></scales>
<clustering>
<clus scale="   42.470">  1  4  2 -1</clus>
<clus scale="   64.443">  2  3  1 -1</clus>
<clus scale="  132.775">  2  5  1 -1</clus>
<clus scale="   64.443">  2  3  1 -1</clus>
</clustering>
</event>
<event>
 6    0  0.1631680E+002  0.1569076E+03  0.7546771E-02  0.1192233E+00
         21   -1    0    0  501  502  0.00000000000E+00  0.00000000000E+00  0.11423487521E+04  0.11423487521E+04  0.00000000000E+00 0.  1.
          1   -1    0    0  504    0 -0.00000000000E+00 -0.00000000000E+00 -0.31509768116E+02  0.31509768116E+02  0.00000000000E+00 0.  1.
         21    1    1    2  503  505 -0.63637141118E+02 -0.26499108125E+02  0.29575401729E+03  0.30368129215E+03  0.00000000000E+00 0.  1.
         21    1    1    2  504  503 -0.65630951536E+02 -0.22298334633E+02  0.17757934123E+03  0.19062806708E+03  0.00000000000E+00 0.  1.
         21    1    1    2  505  502 -0.12760962069E+02 -0.33516020423E+02  0.32107609647E+03  0.32307278670E+03  0.00000000000E+00 0.  1.
          1    1    1    2  501    0  0.14202905472E+03  0.82313463182E+02  0.31642952900E+03  0.35647637429E+03  0.00000000000E+00 0.  1.
<scales pt_clust_3="34.62956" pt_clust_4="34.62956" pt_clust_5="35.86315" pt_clust_6="153.01685"></scales>
<clustering>
<clus scale="   34.630">  3  4 -1 -1</clus>
<clus scale="   35.863">  1  5  2 -1</clus>
<clus scale="  153.017">  2  6  1 -1</clus>
<clus scale="   35.863">  1  3  2 -1</clus>
</clustering>
</event>
<event>
 6    0  0.1631680E+002  0.1428525E+03  0.7546771E-02  0.1209541E+00
         21   -1    0    0  504  502  0.00000000000E+00  0.00000000000E+00  0.48260522417E+02  0.48260522417E+02  0.00000000000E+00 0. -1.
          1   -1    0    0  505    0 -0.00000000000E+00 -0.00000000000E+00 -0.11941977759E+04  0.11941977759E+04  0.00000000000E+00 0. -1.
         21    1    1    2  503  502 -0.28683974577E+02 -0.20509593789E+02 -0.80788367217E+02  0.88148591098E+02  0.00000000000E+00 0.  1.
         21    1    1    2  504  501  0.11187027299E+03 -0.11744284087E+03 -0.17038256860E+03  0.23524029955E+03  0.00000000000E+00 0. -1.
         21    1    1    2  505  503  0.23719218420E+02  0.48607137610E+02 -0.11665647344E+03  0.12858455563E+03  0.00000000000E+00 0.  1.
          1    1    1    2  501    0 -0.10690551684E+03  0.89345297046E+02 -0.77810984423E+03  0.79048485205E+03  0.00000000000E+00 0. -1.
<scales pt_clust_3="35.26207" pt_clust_4="142.85251" pt_clust_5="49.98732" pt_clust_6="14000.00000"></scales>
<clustering>
<clus scale="   35.262">  1  3  2 -1</clus>
<clus scale="   49.987">  1  5  2 -1</clus>
<clus scale="  142.853">  1  4  2 -1</clus>
<clus scale="   35.262">  1  3  2 -1</clus>
</clustering>
</event>
<event>
 6    0  0.1631680E+002  0.1355930E+03  0.7546771E-02  0.1219385E+00
          1   -1    0    0  504    0 -0.00000000000E+00  0.00000000000E+00  0.13715464919E+04  0.13715464919E+04  0.00000000000E+00 0.  1.
         21   -1    0    0  501  502  0.00000000000E+00 -0.00000000000E+00 -0.12748538110E+03  0.12748538110E+03  0.00000000000E+00 0.  1.
         21    1    1    2  503  502  0.23177129894E+02 -0.44991436552E+02  0.14732699357E+02  0.52711110247E+02  0.00000000000E+00 0.  1.
         21    1    1    2  504  505 -0.38738476683E+01 -0.66062256719E+02  0.90303968961E+03  0.90546115846E+03  0.00000000000E+00 0. -1.
         21    1    1    2  505  503 -0.61376634002E+02 -0.63941852339E+02  0.34842480799E+03  0.35952120731E+03  0.00000000000E+00 0.  1.
          1    1    1    2  501    0  0.42073351776E+02  0.17499554561E+03 -0.22136086151E+02  0.18133839699E+03  0.00000000000E+00 0.  1.
<scales pt_clust_3="50.61036" pt_clust_4="66.66243" pt_clust_5="14000.00000" pt_clust_6="135.59298"></scales>
<clustering>
<clus scale="   50.610">  2  3  1 -1</clus>
<clus scale="   66.662">  1  4  2 -1</clus>
<clus scale="  135.593">  2  6  1 -1</clus>
<clus scale="   50.610">  2  3  1 -1</clus>
</clustering>
</event>
<event>
 6    0  0.1631680E+002  0.6631095E+02  0.7546771E-02  0.1373107E+00
         -3   -1    0    0    0  501 -0.00000000000E+00  0.00000000000E+00  0.11632650696E+03  0.11632650696E+03  0.00000000000E+00 0. -1.
         21   -1    0    0  505  502  0.00000000000E+00 -0.00000000000E+00 -0.47908954632E+03  0.47908954632E+03  0.00000000000E+00 0. -1.
         21    1    1    2  503  501  0.92062311566E+01 -0.34047803758E+02  0.62977815642E+02  0.72181804466E+02  0.00000000000E+00 0. -1.
         21    1    1    2  504  503  0.57939236275E+02  0.17289461390E+02  0.79096798970E+01  0.60979042395E+02  0.00000000000E+00 0. -1.
         21    1    1    2  505  504  0.12937479216E+01 -0.57883335758E+02 -0.13462234004E+03  0.14654463067E+03  0.00000000000E+00 0.  1.
         -3    1    1    2    0  502 -0.68439215354E+02  0.74641678126E+02 -0.29902819486E+03  0.31571057574E+03  0.00000000000E+00 0. -1.
<scales pt_clust_3="35.27049" pt_clust_4="66.31095" pt_clust_5="62.09414" pt_clust_6="14000.00000"></scales>
<clustering>
<clus scale="   35.270">  1  3  2 -1</clus>
<clus scale="   62.094">  2  5  1 -1</clus>
<clus scale="   66.311">  1  4  2 -1</clus>
<clus scale="   62.094">  2  3  1 -1</clus>
</clustering>
</event>
<event>
 6    0  0.1631680E+002  0.2598866E+03  0.7546771E-02  0.1107211E+00
          2   -1    0    0  504    0 -0.00000000000E+00  0.00000000000E+00  0.26389964816E+04  0.26389964816E+04  0.00000000000E+00 0.  1.
         21   -1    0    0  505  502  0.00000000000E+00 -0.00000000000E+00 -0.28831525746E+03  0.28831525746E+03  0.00000000000E+00 0.  1.
         21    1    1    2  503  502 -0.27527810113E+03 -0.10286480453E+03  0.32920249407E+03  0.44128616914E+03  0.00000000000E+00 0.  1.
         21    1    1    2  504  503  0.15054161075E+03 -0.82999947155E+02  0.46952354902E+03  0.50000413086E+03  0.00000000000E+00 0.  1.
         21    1    1    2  505  501  0.24648244794E+03 -0.10232671460E+03 -0.11453608543E+03  0.29041843696E+03  0.00000000000E+00 0.  1.
          2    1    1    2  501    0 -0.12174595756E+03  0.28819146629E+03  0.16664912664E+04  0.16956030020E+04  0.00000000000E+00 0.  1.
<scales pt_clust_3="14000.00000" pt_clust_4="171.90628" pt_clust_5="259.88657" pt_clust_6="223.46360"></scales>
<clustering>
<clus scale="  171.906">  1  4  2 -1</clus>
<clus scale="  223.464">  1  6  2 -1</clus>
<clus scale="  259.887">  2  5  1 -1</clus>
<clus scale="  259.887">  2  3  1 -1</clus>
</clustering>
</event>
<event>
 6    0  0.1631680E+002  0.1099606E+03  0.7546771E-02  0.1260643E+00
         21   -1    0    0  503  502  0.00000000000E+00  0.00000000000E+00  0.36586521039E+03  0.36586521039E+03  0.00000000000E+00 0. -1.
         -1   -1    0    0    0  501 -0.00000000000E+00 -0.00000000000E+00 -0.24981717720E+03  0.24981717720E+03  0.00000000000E+00 0. -1.
         21    1    1    2  503  501  0.69449901893E+02  0.11736222145E+03  0.26477229589E+03  0.29782805201E+03  0.00000000000E+00 0. -1.
         21    1    1    2  504  502 -0.85047983842E+02 -0.17870077340E+02  0.43012084541E+02  0.96966688281E+02  0.00000000000E+00 0. -1.
         21    1    1    2  505  504  0.74562716052E+01 -0.63447553149E+02 -0.15961792580E+03  0.17192751445E+03  0.00000000000E+00 0. -1.
         -1    1    1    2    0  505  0.81418103439E+01 -0.36044590963E+02 -0.32118421434E+02  0.48960132851E+02  0.00000000000E+00 0. -1.
<scales pt_clust_3="101.01873" pt_clust_4="86.90512" pt_clust_5="33.03386" pt_clust_6="33.03386"></scales>
<clustering>
<clus scale="   33.034">  5  6 -1 -1</clus>
<clus scale="   86.905">  1  4  2 -1</clus>
<clus scale="  101.019">  1  3  2 -1</clus>
<clus scale="   86.905">  1  3  2 -1</clus>
</clustering>
</event>
<event>
 6    0  0.1631680E+002  0.8863112E+02  0.7546771E-02  0.1306201E+00
         21   -1    0    0  504  502  0.00000000000E+00  0.00000000000E+00  0.18112501161E+03  0.18112501161E+03  0.00000000000E+00 0.  1.
          2   -1    0    0  503    0 -0.00000000000E+00 -0.00000000000E+00 -0.10619857307E+04  0.10619857307E+04  0.00000000000E+00 0. -1.
         21    1    1    2  503  502  0.37571588163E+02  0.25101687620E+02 -0.83266834647E+03  0.83389345493E+03  0.00000000000E+00 0. -1.
         21    1    1    2  504  505 -0.10756868268E+02  0.33003960677E+02  0.61096822294E+02  0.70269433822E+02  0.00000000000E+00 0. -1.
         21    1    1    2  505  501  0.47814133203E+02 -0.11039373897E+03  0.69025235728E+02  0.13869914241E+03  0.00000000000E+00 0.  1.
          2    1    1    2  501    0 -0.74628853098E+02  0.52288090672E+02 -0.17831443061E+03  0.20024871111E+03  0.00000000000E+00 0. -1.
<scales pt_clust_3="45.23556" pt_clust_4="34.71270" pt_clust_5="88.63112" pt_clust_6="14000.00000"></scales>
<clustering>
<clus scale="   34.713">  1  4  2 -1</clus>
<clus scale="   45.236">  2  3  1 -1</clus>
<clus scale="   88.631">  1  5  2 -1</clus>
<clus scale="   34.713">  1  3  2 -1</clus>
</clustering>
</event>
<event>
 6    0  0.1631680E+002  0.1094918E+03  0.7546771E-02  0.1261514E+00
          2   -1    0    0  505    0 -0.00000000000E+00  0.00000000000E+00  0.94583174701E+03  0.94583174701E+03  0.00000000000E+00 0. -1.
         21   -1    0    0  501  502  0.00000000000E+00 -0.00000000000E+00 -0.11943195644E+04  0.11943195644E+04  0.00000000000E+00 0. -1.
         21    1    1    2  503  504 -0.93934400980E+02  0.20134528561E+02  0.58928713884E+02  0.11270166036E+03  0.00000000000E+00 0. -1.
         21    1    1    2  504  502  0.98974215169E+02 -0.47954774054E+02 -0.11605904730E+04  0.11657897760E+04  0.00000000000E+00 0. -1.
         21    1    1    2  505  503 -0.46587870944E+02  0.53770564664E+02  0.46612258937E+03  0.47152091328E+03  0.00000000000E+00 0. -1.
          2    1    1    2  501    0  0.41548056755E+02 -0.25950319172E+02  0.38705135243E+03  0.39013896178E+03  0.00000000000E+00 0. -1.
<scales pt_clust_3="14000.00000" pt_clust_4="109.49183" pt_clust_5="33.99003" pt_clust_6="48.98633"></scales>
<clustering>
<clus scale="   48.986">  1  6  2 -1</clus>
<clus scale="   33.990">  1  5  2 -1</clus>
<clus scale="  109.492">  2  4  1 -1</clus>
<clus scale="  109.492">  2  3  1 -1</clus>
</clustering>
</event>
<event>
 6    0  0.1631680E+002  0.1014357E+03  0.7546771E-02  0.1277305E+00
          1   -1    0    0  504    0 -0.00000000000E+00  0.00000000000E+00  0.14810502271E+04  0.14810502271E+04  0.00000000000E+00 0.  1.
         21   -1    0    0  505  502  0.00000000000E+00 -0.00000000000E+00 -0.26803633697E+02  0.26803633697E+02  0.00000000000E+00 0.  1.
         21    1    1    2  503  502  0.62324070142E+02 -0.53223255371E+02  0.74461053518E+02  0.11073144595E+03  0.00000000000E+00 0.  1.
         21    1    1    2  504  503 -0.30174972169E+02 -0.14888466736E+02  0.23934552828E+03  0.24169914624E+03  0.00000000000E+00 0.  1.
         21    1    1    2  505  501 -0.16909316932E+02 -0.43806546830E+02  0.12176537891E+03  0.13050573184E+03  0.00000000000E+00 0. -1.
          1    1    1    2  501    0 -0.15239781040E+02  0.11191826894E+03  0.10186746327E+04  0.10249175367E+04  0.00000000000E+00 0.  1.
<scales pt_clust_3="101.43571" pt_clust_4="33.64811" pt_clust_5="49.52815" pt_clust_6="14000.00000"></scales>
<clustering>
<clus scale="   33.648">  1  4  2 -1</clus>
<clus scale="   49.528">  2  5  1 -1</clus>
<clus scale="  101.436">  2  3  1 -1</clus>
<clus scale="   49.528">  2  3  1 -1</clus>
</clustering>
</event>
<event>
 6    0  0.1631680E+002  0.1206626E+03  0.7546771E-02  0.1242008E+00
         21   -1    0    0  504  502  0.00000000000E+00  0.00000000000E+00  0.27862484588E+03  0.27862484588E+03  0.00000000000E+00 0.  1.
          2   -1    0    0  505    0 -0.00000000000E+00 -0.00000000000E+00 -0.50016353575E+04  0.50016353575E+04  0.00000000000E+00 0. -1.
         21    1    1    2  503  502 -0.61240303925E+02 -0.13441870182E+03 -0.45985684511E+02  0.15470438069E+03  0.00000000000E+00 0.  1.
         21    1    1    2  504  501  0.42807302861E+02  0.25143208131E+02  0.20943559750E+03  0.21523920552E+03  0.00000000000E+00 0.  1.
         21    1    1    2  505  503  0.52627022733E+02 -0.44604141934E+02 -0.43651472270E+04  0.43656923215E+04  0.00000000000E+00 0. -1.
          2    1    1    2  501    0 -0.34194021668E+02  0.15387963562E+03 -0.52131319760E+03  0.54462429561E+03  0.00000000000E+00 0. -1.
<scales pt_clust_3="14000.00000" pt_clust_4="49.64520" pt_clust_5="69.05417" pt_clust_6="120.66262"></scales>
<clustering>
<clus scale="   49.645">  1  4  2 -1</clus>
<clus scale="   69.054">  2  5  1 -1</clus>
<clus scale="  120.663">  2  6  1 -1</clus>
<clus scale="   49.645">  1  3  2 -1</clus>
</clustering>
</event>
<event>
 6    0  0.1631680E+002  0.1206589E+03  0.7546771E-02  0.1242014E+00
         21   -1    0    0  505  502  0.00000000000E+00  0.00000000000E+00  0.13233032526E+04  0.13233032526E+04  0.00000000000E+00 0.  1.
          2   -1    0    0  504    0 -0.00000000000E+00 -0.00000000000E+00 -0.91197820163E+03  0.91197820163E+03  0.00000000000E+00 0.  1.
         21    1    1    2  503  502 -0.99916044503E+02 -0.57185216856E+02  0.13066603003E+04  0.13117219620E+04  0.00000000000E+00 0.  1.
         21    1    1    2  504  503  0.38451074958E+02 -0.12807400228E+02 -0.25257895471E+02  0.47754329120E+02  0.00000000000E+00 0.  1.
         21    1    1    2  505  501  0.25584785750E+02  0.43806699089E+02 -0.32670938964E+03  0.33062461105E+03  0.00000000000E+00 0.  1.
          2    1    1    2  501    0  0.35880183795E+02  0.26185917995E+02 -0.54336796422E+03  0.54518055214E+03  0.00000000000E+00 0.  1.
<scales pt_clust_3="115.04521" pt_clust_4="40.52795" pt_clust_5="34.03764" pt_clust_6="34.03764"></scales>
<clustering>
<clus scale="   34.038">  5  6 -1 -1</clus>
<clus scale="   40.528">  2  4  1 -1</clus>
<clus scale="  115.045">  1  3  2 -1</clus>
<clus scale="  115.045">  1  3  2 -1</clus>
</clustering>
</event>
<event>
 6    0  0.1631680E+002  0.1313023E+03  0.7546771E-02  0.1225536E+00
         21   -1    0    0  505  502  0.00000000000E+00  0.00000000000E+00  0.69986716634E+02  0.69986716634E+02  0.00000000000E+00 0.  1.
          2   -1    0    0  503    0 -0.00000000000E+00 -0.00000000000E+00 -0.16442110628E+04  0.16442110628E+04  0.00000000000E+00 0.  1.
         21    1    1    2  503  504  0.35802271672E+02 -0.83584666931E+01 -0.46824631238E+03  0.46968742338E+03  0.00000000000E+00 0.  1.
         21    1    1    2  504  502 -0.12315349688E+03 -0.77053183853E+02 -0.63039009513E+02  0.15836001281E+03  0.00000000000E+00 0.  1.
         21    1    1    2  505  501  0.11084736185E+03  0.28976717615E+02 -0.13893838102E+03  0.18008515073E+03  0.00000000000E+00 0.  1.
          2    1    1    2  501    0 -0.23496136644E+02  0.56434932931E+02 -0.90400064325E+03  0.90606519251E+03  0.00000000000E+00 0.  1.
<scales pt_clust_3="36.76502" pt_clust_4="14000.00000" pt_clust_5="131.30231" pt_clust_6="50.16399"></scales>
<clustering>
<clus scale="   36.765">  2  3  1 -1</clus>
<clus scale="   50.164">  2  6  1 -1</clus>
<clus scale="  131.302">  2  5  1 -1</clus>
<clus scale="  131.302">  1  3  2 -1</clus>
</clustering>
</event>
<event>
 6    0  0.1631680E+002  0.1703114E+03  0.7546771E-02  0.1177524E+00
         21   -1    0    0  503  502  0.00000000000E+00  0.00000000000E+00  0.19099843247E+03  0.19099843247E+03  0.00000000000E+00 0. -1.
         -1   -1    0    0    0  501 -0.00000000000E+00 -0.00000000000E+00 -0.17978158091E+04  0.17978158091E+04  0.00000000000E+00 0.  1.
         21    1    1    2  503  505  0.30548037260E+02 -0.82802538473E+01  0.11337688176E+03  0.11771177724E+03  0.00000000000E+00 0. -1.
         21    1    1    2  504  502 -0.60783582036E+02 -0.60523241144E+01  0.13955293901E+02  0.62657997894E+02  0.00000000000E+00 0. -1.
         21    1    1    2  505  501 -0.96096391858E+02 -0.10580448638E+03 -0.12500128038E+03  0.18988003044E+03  0.00000000000E+00 0. -1.
         -1    1    1    2    0  504  0.12633193663E+03  0.12013706434E+03 -0.16091482719E+04  0.16185644360E+04  0.00000000000E+00 0.  1.
<scales pt_clust_3="31.65036" pt_clust_4="46.42202" pt_clust_5="170.31139" pt_clust_6="14000.00000"></scales>
<clustering>
<clus scale="   31.650">  1  3  2 -1</clus>
<clus scale="   46.422">  1  4  2 -1</clus>
<clus scale="  170.311">  1  5  2 -1</clus>
<clus scale="   31.650">  1  3  2 -1</clus>
</clustering>
</event>
<event>
 6    0  0.1631680E+002  0.1662675E+03  0.7546771E-02  0.1181797E+00
         21   -1    0    0  505  502  0.00000000000E+00  0.00000000000E+00  0.25079702642E+04  0.25079702642E+04  0.00000000000E+00 0. -1.
         -2   -1    0    0    0  501 -0.00000000000E+00 -0.00000000000E+00 -0.17708648416E+02  0.17708648416E+02  0.00000000000E+00 0. -1.
         21    1    1    2  503  504  0.19013893796E+02 -0.12170416265E+03  0.11023102883E+04  0.11091714939E+04  0.00000000000E+00 0. -1.
         21    1    1    2  504  501  0.36359381618E+02  0.17310479749E+02  0.77869608970E+02  0.87666033000E+02  0.00000000000E+00 0. -1.
         21    1    1    2  505  503  0.29109908982E+02 -0.24783474541E+02  0.64299741288E+03  0.64413296793E+03  0.00000000000E+00 0. -1.
         -2    1    1    2    0  502 -0.84483184396E+02  0.12917715744E+03  0.66708430571E+03  0.68470841778E+03  0.00000000000E+00 0. -1.
<scales pt_clust_3="36.11755" pt_clust_4="40.26981" pt_clust_5="36.11755" pt_clust_6="153.10730"></scales>
<clustering>
<clus scale="   36.118">  3  5 -1 -1</clus>
<clus scale="   40.270">  2  4  1 -1</clus>
<clus scale="  153.107">  2  6  1 -1</clus>
<clus scale="  166.267">  1  3  2 -1</clus>
</clustering>
</event>
<event>
 6    0  0.1631680E+002  0.9555821E+02  0.7546771E-02  0.1289924E+00
         21   -1    0    0  503  502  0.00000000000E+00  0.00000000000E+00  0.65246055101E+02  0.65246055101E+02  0.00000000000E+00 0. -1.
          2   -1    0    0  504    0 -0.00000000000E+00 -0.00000000000E+00 -0.50243754689E+03  0.50243754689E+03  0.00000000000E+00 0. -1.
         21    1    1    2  503  505 -0.54797331907E+02  0.18671770055E+02 -0.43708835738E+02  0.72538575274E+02  0.00000000000E+00 0. -1.
         21    1    1    2  504  502  0.75995666693E+02  0.88164183566E+02 -0.47303635993E+02  0.12564194601E+03  0.00000000000E+00 0. -1.
         21    1    1    2  505  501 -0.55179637738E+01 -0.80954735825E+02 -0.14585655446E+03  0.16690791370E+03  0.00000000000E+00 0.  1.
          2    1    1    2  501    0 -0.15680371012E+02 -0.25881217796E+02 -0.20032246559E+03  0.20259516700E+03  0.00000000000E+00 0. -1.
<scales pt_clust_3="59.42014" pt_clust_4="14000.00000" pt_clust_5="95.55821" pt_clust_6="30.26072"></scales>
<clustering>
<clus scale="   30.261">  2  6  1 -1</clus>
<clus scale="   59.420">  1  3  2 -1</clus>
<clus scale="   95.558">  2  5  1 -1</clus>
<clus scale="   59.420">  1  3  2 -1</clus>
</clustering>
</event>
<event>
 6    0  0.1631680E+002  0.9217702E+02  0.7546771E-02  0.1297664E+00
         21   -1    0    0  504  502  0.00000000000E+00  0.00000000000E+00  0.15919498827E+04  0.15919498827E+04  0.00000000000E+00 0.  1.
         -1   -1    0    0    0  501 -0.00000000000E+00 -0.00000000000E+00 -0.21458356544E+03  0.21458356544E+03  0.00000000000E+00 0. -1.
         21    1    1    2  503  502  0.91211136698E+02 -0.31354662370E+02  0.14430037343E+04  0.14462234832E+04  0.00000000000E+00 0.  1.
         21    1    1    2  504  505 -0.67454302599E+02  0.10085659724E+02  0.11412145727E+03  0.13294927785E+03  0.00000000000E+00 0. -1.
         21    1    1    2  505  501  0.20587041152E+02 -0.50179544475E+02 -0.58252820132E+02  0.79593994751E+02  0.00000000000E+00 0. -1.
         -1    1    1    2    0  503 -0.44343875252E+02  0.71448547121E+02 -0.12150605415E+03  0.14776669230E+03  0.00000000000E+00 0. -1.
<scales pt_clust_3="14000.00000" pt_clust_4="92.17702" pt_clust_5="54.23848" pt_clust_6="35.62558"></scales>
<clustering>
<clus scale="   54.238">  2  5  1 -1</clus>
<clus scale="   35.626">  2  6  1 -1</clus>
<clus scale="   92.177">  2  4  1 -1</clus>
<clus scale="   92.177">  1  3  2 -1</clus>
</clustering>
</event>
<event>
 6    0  0.1631680E+002  0.1490969E+03  0.7546771E-02  0.1201587E+00
         21   -1    0    0  501  502  0.00000000000E+00  0.00000000000E+00  0.92864216317E+02  0.92864216317E+02  0.00000000000E+00 0. -1.
          1   -1    0    0  503    0 -0.00000000000E+00 -0.00000000000E+00 -0.25255826526E+04  0.25255826526E+04  0.00000000000E+00 0.  1.
         21    1    1    2  503  504 -0.24320850266E+02 -0.23300690567E+02 -0.10188135697E+03  0.10730441201E+03  0.00000000000E+00 0.  1.
         21    1    1    2  504  505 -0.45223260500E+02  0.26659467364E+01 -0.26239592200E+03  0.26627780689E+03  0.00000000000E+00 0.  1.
         21    1    1    2  505  502  0.14418832541E+03  0.45831520745E+02  0.22044862179E+02  0.15289466121E+03  0.00000000000E+00 0. -1.
          1    1    1    2  501    0 -0.74644214646E+02 -0.25196776914E+02 -0.20904860195E+04  0.20919699888E+04  0.00000000000E+00 0.  1.
<scales pt_clust_3="33.68124" pt_clust_4="47.87890" pt_clust_5="149.09686" pt_clust_6="14000.00000"></scales>
<clustering>
<clus scale="   33.681">  2  3  1 -1</clus>
<clus scale="   47.879">  2  4  1 -1</clus>
<clus scale="  149.097">  1  5  2 -1</clus>
<clus scale="  149.097">  1  3  2 -1</clus>
</clustering>
</event>
<event>
 6    0  0.1631680E+002  0.1073875E+03  0.7546771E-02  0.1265486E+00
          2   -1    0    0  505    0 -0.00000000000E+00  0.00000000000E+00  0.75217476894E+03  0.75217476894E+03  0.00000000000E+00 0. -1.
         21   -1    0    0  504  502  0.00000000000E+00 -0.00000000000E+00 -0.89725105130E+02  0.89725105130E+02  0.00000000000E+00 0. -1.
         21    1    1    2  503  502 -0.27583934533E+02  0.11570058085E+03  0.39751037897E+03  0.41492408853E+03  0.00000000000E+00 0. -1.
         21    1    1    2  504  501  0.35316233274E+02 -0.10035188174E+03 -0.39068301676E+02  0.11333167562E+03  0.00000000000E+00 0. -1.
         21    1    1    2  505  503  0.28290772684E+02  0.12911147212E+02  0.11038104092E+03  0.11467798279E+03  0.00000000000E+00 0. -1.
          2    1    1    2  501    0 -0.36023071425E+02 -0.28259846316E+02  0.19362654559E+03  0.19896612713E+03  0.00000000000E+00 0. -1.
<scales pt_clust_3="107.38748" pt_clust_4="14000.00000" pt_clust_5="31.09768" pt_clust_6="36.57747"></scales>
<clustering>
<clus scale="   31.098">  1  5  2 -1</clus>
<clus scale="   36.577">  1  6  2 -1</clus>
<clus scale="  107.387">  1  3  2 -1</clus>
<clus scale="  107.387">  2  3  1 -1</clus>
</clustering>
</event>
<event>
 6    0  0.1631680E+002  0.7040893E+02  0.7546771E-02  0.1358708E+00
         21   -1    0    0  503  502  0.00000000000E+00  0.00000000000E+00  0.10336559157E+04  0.10336559157E+04  0.00000000000E+00 0. -1.
          1   -1    0    0  504    0 -0.00000000000E+00 -0.00000000000E+00 -0.14123902270E+04  0.14123902270E+04  0.00000000000E+00 0.  1.
         21    1    1    2  503  501  0.89140565830E+02  0.57704599229E+02  0.98068614430E+03  0.98641835693E+03  0.00000000000E+00 0. -1.
         21    1    1    2  504  505  0.47483285803E+02 -0.14490841430E+02 -0.25074394822E+03  0.25561137394E+03  0.00000000000E+00 0.  1.
         21    1    1    2  505  502 -0.49423077082E+02  0.35586345020E-01  0.32205199561E+02  0.58989971126E+02  0.00000000000E+00 0. -1.
          1    1    1    2  501    0 -0.87200774550E+02 -0.43249344145E+02 -0.11408817069E+04  0.11450264407E+04  0.00000000000E+00 0.  1.
<scales pt_clust_3="14000.00000" pt_clust_4="49.52876" pt_clust_5="49.42309" pt_clust_6="70.40893"></scales>
<clustering>
<clus scale="   49.423">  1  5  2 -1</clus>
<clus scale="   49.529">  2  4  1 -1</clus>
<clus scale="   70.409">  2  6  1 -1</clus>
<clus scale="   49.423">  1  3  2 -1</clus>
</clustering>
</event>
<event>
 6    0  0.1631680E+002  0.1438401E+03  0.7546771E-02  0.1208253E+00
         21   -1    0    0  504  502  0.00000000000E+00  0.00000000000E+00  0.65244411425E+03  0.65244411425E+03  0.00000000000E+00 0.  1.
         -1   -1    0    0    0  501 -0.00000000000E+00 -0.00000000000E+00 -0.33502621665E+03  0.33502621665E+03  0.00000000000E+00 0.  1.
         21    1    1    2  503  502  0.13528926721E+03 -0.13148310720E+03  0.51961203971E+03  0.55279984181E+03  0.00000000000E+00 0.  1.
         21    1    1    2  504  501 -0.13734258194E+02  0.83810532342E+02  0.81148657244E+02  0.11746463192E+03  0.00000000000E+00 0. -1.
         21    1    1    2  505  503 -0.66852009017E+02 -0.44726026122E+01 -0.12992922598E+03  0.14618754751E+03  0.00000000000E+00 0. -1.
         -1    1    1    2    0  505 -0.54703000002E+02  0.52145177469E+02 -0.15341357337E+03  0.17101830966E+03  0.00000000000E+00 0.  1.
<scales pt_clust_3="131.91611" pt_clust_4="84.92841" pt_clust_5="53.99178" pt_clust_6="53.99178"></scales>
<clustering>
<clus scale="   53.992">  5  6 -1 -1</clus>
<clus scale="   84.928">  1  4  2 -1</clus>
<clus scale="  131.916">  1  3  2 -1</clus>
<clus scale="   84.928">  1  3  2 -1</clus>
</clustering>
</event>
<event>
 6    0  0.1631680E+002  0.2500024E+03  0.7546771E-02  0.1113303E+00
         21   -1    0    0  504  502  0.00000000000E+00  0.00000000000E+00  0.86046027902E+02  0.86046027902E+02  0.00000000000E+00 0.  1.
         -3   -1    0    0    0  501 -0.00000000000E+00 -0.00000000000E+00 -0.31191326961E+04  0.31191326961E+04  0.00000000000E+00 0. -1.
         21    1    1    2  503  501  0.50762321544E+02 -0.53090170852E+02 -0.37544480895E+03  0.38256265382E+03  0.00000000000E+00 0. -1.
         21    1    1    2  504  503  0.25187443829E+02 -0.44025410839E+02 -0.49749189992E+02  0.71046646866E+02  0.00000000000E+00 0. -1.
         21    1    1    2  505  502 -0.16397750746E+03 -0.16573028305E+03 -0.14809285457E+03  0.27620036794E+03  0.00000000000E+00 0.  1.
         -3    1    1    2    0  505  0.88027742092E+02  0.26284586474E+03 -0.24597998146E+04  0.24753690553E+04  0.00000000000E+00 0. -1.
<scales pt_clust_3="75.77907" pt_clust_4="50.72124" pt_clust_5="14000.00000" pt_clust_6="250.00238"></scales>
<clustering>
<clus scale="   50.721">  1  4  2 -1</clus>
<clus scale="   75.779">  2  3  1 -1</clus>
<clus scale="  250.002">  2  6  1 -1</clus>
<clus scale="   50.721">  1  3  2 -1</clus>
</clustering>
</event>
<event>
 6    0  0.1631680E+002  0.1079303E+03  0.7546771E-02  0.1264451E+00
          2   -1    0    0  505    0 -0.00000000000E+00  0.00000000000E+00  0.57753643522E+03  0.57753643522E+03  0.00000000000E+00 0. -1.
         21   -1    0    0  501  502  0.00000000000E+00 -0.00000000000E+00 -0.10615779095E+03  0.10615779095E+03  0.00000000000E+00 0. -1.
         21    1    1    2  503  502  0.31896626327E+02  0.43217035642E+02  0.17335078489E+01  0.53741157321E+02  0.00000000000E+00 0. -1.
         21    1    1    2  504  503  0.77910823509E+02 -0.20328073191E+02 -0.28371417211E+02  0.85371331804E+02  0.00000000000E+00 0. -1.
         21    1    1    2  505  504  0.44347723107E+02 -0.35820760596E+02  0.75281439720E+02  0.94430623215E+02  0.00000000000E+00 0. -1.
          2    1    1    2  501    0 -0.15415517294E+03  0.12931798144E+02  0.42273511391E+03  0.45015111383E+03  0.00000000000E+00 0. -1.
<scales pt_clust_3="53.71319" pt_clust_4="107.93025" pt_clust_5="57.08866" pt_clust_6="14000.00000"></scales>
<clustering>
<clus scale="   53.713">  2  3  1 -1</clus>
<clus scale="   57.089">  1  5  2 -1</clus>
<clus scale="  107.930">  2  4  1 -1</clus>
<clus scale="   53.713">  2  3  1 -1</clus>
</clustering>
</event>
<event>
 6    0  0.1631680E+002  0.9907505E+02  0.7546771E-02  0.1282253E+00
         21   -1    0    0  505  502  0.00000000000E+00  0.00000000000E+00  0.89458394981E+02  0.89458394981E+02  0.00000000000E+00 0. -1.
         -4   -1    0    0    0  501 -0.00000000000E+00 -0.00000000000E+00 -0.17045800566E+04  0.17045800566E+04  0.00000000000E+00 0. -1.
         21    1    1    2  503  504 -0.12918966132E+03  0.52427388660E+02 -0.81502445687E+03  0.82686363143E+03  0.00000000000E+00 0. -1.
         21    1    1    2  504  501 -0.19157128919E+02 -0.27250717005E+02 -0.32699271882E+03  0.32868500929E+03  0.00000000000E+00 0. -1.
         21    1    1    2  505  503  0.94670577475E+02 -0.24050622297E+02  0.51993824683E+02  0.11065400344E+03  0.00000000000E+00 0. -1.
         -4    1    1    2    0  502  0.53676212761E+02 -0.11260493588E+01 -0.52509831065E+03  0.52783580748E+03  0.00000000000E+00 0. -1.
<scales pt_clust_3="14000.00000" pt_clust_4="33.31062" pt_clust_5="99.07505" pt_clust_6="47.76711"></scales>
<clustering>
<clus scale="   33.311">  2  4  1 -1</clus>
<clus scale="   47.767">  2  6  1 -1</clus>
<clus scale="   99.075">  1  5  2 -1</clus>
<clus scale="   99.075">  1  3  2 -1</clus>
</clustering>
</event>
<event>
 6    0  0.1631680E+002  0.7268436E+02  0.7546771E-02  0.1351196E+00
          2   -1    0    0  504    0 -0.00000000000E+00  0.00000000000E+00  0.12389461924E+04  0.12389461924E+04  0.00000000000E+00 0. -1.
         21   -1    0    0  503  502  0.00000000000E+00 -0.00000000000E+00 -0.45657162199E+02  0.45657162199E+02  0.00000000000E+00 0. -1.
         21    1    1    2  503  505  0.25396602776E+02 -0.38951820607E+02  0.38998958176E+02  0.60688965224E+02  0.00000000000E+00 0.  1.
         21    1    1    2  504  502  0.64725833136E+02  0.35004211986E+02  0.38818416949E+03  0.39509704855E+03  0.00000000000E+00 0. -1.
         21    1    1    2  505  501 -0.91697045733E+02  0.68590194727E+02  0.80041731732E+02  0.13971271176E+03  0.00000000000E+00 0. -1.
          2    1    1    2  501    0  0.15746098220E+01 -0.64642586105E+02  0.68606417082E+03  0.68910462908E+03  0.00000000000E+00 0. -1.
<scales pt_clust_3="46.49980" pt_clust_4="14000.00000" pt_clust_5="72.68436" pt_clust_6="66.39785"></scales>
<clustering>
<clus scale="   46.500">  2  3  1 -1</clus>
<clus scale="   66.398">  1  6  2 -1</clus>
<clus scale="   72.684">  2  5  1 -1</clus>
<clus scale="   46.500">  2  3  1 -1</clus>
</clustering>
</event>
<event>
 6    0  0.1631680E+002  0.1438340E+03  0.7546771E-02  0.1208261E+00
          1   -1    0    0  504    0 -0.00000000000E+00  0.00000000000E+00  0.73065751554E+03  0.73065751554E+03  0.00000000000E+00 0.  1.
         21   -1    0    0  503  502  0.00000000000E+00 -0.00000000000E+00 -0.72830351962E+02  0.72830351962E+02  0.00000000000E+00 0.  1.
         21    1    1    2  503  501 -0.48691372639E+02  0.70959450164E+02  0.20366672311E+03  0.22110230085E+03  0.00000000000E+00 0.  1.
         21    1    1    2  504  505  0.31974689261E+02 -0.30135225826E+02  0.26121068536E+02  0.51115778488E+02  0.00000000000E+00 0.  1.
         21    1    1    2  505  502  0.20366445416E+01 -0.12392331065E+03  0.34313354180E+02  0.12860225938E+03  0.00000000000E+00 0.  1.
          1    1    1    2  501    0  0.14680038837E+02  0.83099086308E+02  0.39372601775E+03  0.40266752879E+03  0.00000000000E+00 0.  1.
<scales pt_clust_3="130.12600" pt_clust_4="36.48744" pt_clust_5="36.48744" pt_clust_6="84.38579"></scales>
<clustering>
<clus scale="   36.487">  4  5 -1 -1</clus>
<clus scale="   84.386">  1  6  2 -1</clus>
<clus scale="  130.126">  1  3  2 -1</clus>
<clus scale="  143.834">  2  3  1 -1</clus>
</clustering>
</event>
<event>
 6    0  0.1631680E+002  0.2225327E+03  0.7546771E-02  0.1132009E+00
         21   -1    0    0  505  502  0.00000000000E+00  0.00000000000E+00  0.16573094144E+04  0.16573094144E+04  0.00000000000E+00 0. -1.
          3   -1    0    0  504    0 -0.00000000000E+00 -0.00000000000E+00 -0.17467566407E+04  0.17467566407E+04  0.00000000000E+00 0. -1.
         21    1    1    2  503  502  0.10557967715E+03 -0.19222250167E+03  0.13754458212E+04  0.13928200765E+04  0.00000000000E+00 0. -1.
         21    1    1    2  504  503 -0.29734585157E+02  0.13571771873E+02 -0.93639337658E+03  0.93696365685E+03  0.00000000000E+00 0. -1.
         21    1    1    2  505  501 -0.39446702413E+02  0.25600572717E+03  0.20839158844E+03  0.33244853558E+03  0.00000000000E+00 0. -1.
          3    1    1    2  501    0 -0.36398389581E+02 -0.77354997375E+02 -0.73689125930E+03  0.74183378625E+03  0.00000000000E+00 0. -1.
<scales pt_clust_3="222.53266" pt_clust_4="32.68545" pt_clust_5="14000.00000" pt_clust_6="90.87258"></scales>
<clustering>
<clus scale="   32.685">  2  4  1 -1</clus>
<clus scale="   90.873">  2  6  1 -1</clus>
<clus scale="  222.533">  1  3  2 -1</clus>
<clus scale="  222.533">  1  3  2 -1</clus>
</clustering>
</event>
<event>
 6    0  0.1631680E+002  0.9885412E+02  0.7546771E-02  0.1282724E+00
         21   -1    0    0  505  502  0.00000000000E+00  0.00000000000E+00  0.16779642393E+03  0.16779642393E+03  0.00000000000E+00 0. -1.
          2   -1    0    0  503    0 -0.00000000000E+00 -0.00000000000E+00 -0.73692243701E+03  0.73692243701E+03  0.00000000000E+00 0.  1.
         21    1    1    2  503  504 -0.14900893150E+02  0.59695958986E+02 -0.26398352095E+03  0.27105892988E+03  0.00000000000E+00 0.  1.
         21    1    1    2  504  502 -0.12379537105E+02 -0.27511808208E+02  0.12962870642E+03  0.13309302784E+03  0.00000000000E+00 0. -1.
         21    1    1    2  505  501 -0.82682661483E+02 -0.21606074627E+02 -0.47342527378E+02  0.97696263333E+02  0.00000000000E+00 0.  1.
          2    1    1    2  501    0  0.10996309174E+03 -0.10578076151E+02 -0.38742867117E+03  0.40287063989E+03  0.00000000000E+00 0.  1.
<scales pt_clust_3="59.25470" pt_clust_4="30.16873" pt_clust_5="14000.00000" pt_clust_6="98.85412"></scales>
<clustering>
<clus scale="   30.169">  1  4  2 -1</clus>
<clus scale="   59.255">  2  3  1 -1</clus>
<clus scale="   98.854">  2  6  1 -1</clus>
<clus scale="   30.169">  1  3  2 -1</clus>
</clustering>
</event>
<event>
 6    0  0.1631680E+002  0.1764774E+03  0.7546771E-02  0.1171256E+00
          2   -1    0    0  505    0 -0.00000000000E+00  0.00000000000E+00  0.50664060393E+04  0.50664060393E+04  0.00000000000E+00 0.  1.
         21   -1    0    0  501  502  0.00000000000E+00 -0.00000000000E+00 -0.75063116722E+02  0.75063116722E+02  0.00000000000E+00 0. -1.
         21    1    1    2  503  504  0.29941173989E+02  0.12726388531E+03  0.11019411694E+04  0.11096697307E+04  0.00000000000E+00 0.  1.
         21    1    1    2  504  502 -0.17675731518E+02 -0.18068401284E+03  0.50903568895E+02  0.18854791780E+03  0.00000000000E+00 0. -1.
         21    1    1    2  505  503  0.32878911388E+02 -0.40567524959E+02  0.43001871742E+03  0.43317761280E+03  0.00000000000E+00 0.  1.
          2    1    1    2  501    0 -0.45144353859E+02  0.93987652493E+02  0.34084794668E+04  0.34100738947E+04  0.00000000000E+00 0.  1.
<scales pt_clust_3="14000.00000" pt_clust_4="176.47742" pt_clust_5="52.21826" pt_clust_6="67.48423"></scales>
<clustering>
<clus scale="   52.218">  1  5  2 -1</clus>
<clus scale="   67.484">  1  6  2 -1</clus>
<clus scale="  176.477">  2  4  1 -1</clus>
<clus scale="  176.477">  2  3  1 -1</clus>
</clustering>
</event>
<event>
 6    0  0.1631680E+002  0.1658202E+03  0.7546771E-02  0.1182278E+00
         21   -1    0    0  504  502  0.00000000000E+00  0.00000000000E+00  0.20987025998E+03  0.20987025998E+03  0.00000000000E+00 0. -1.
          2   -1    0    0  505    0 -0.00000000000E+00 -0.00000000000E+00 -0.16043841892E+04  0.16043841892E+04  0.00000000000E+00 0. -1.
         21    1    1    2  503  502  0.42887088860E+02 -0.11860772658E+02  0.69657666024E+02  0.82656946198E+02  0.00000000000E+00 0.  1.
         21    1    1    2  504  501 -0.33933665484E+02  0.17420145014E+03  0.58595374479E+02  0.18689852004E+03  0.00000000000E+00 0. -1.
         21    1    1    2  505  503  0.11612805004E+02  0.43398811384E+02 -0.44622130175E+03  0.44847716130E+03  0.00000000000E+00 0. -1.
          2    1    1    2  501    0 -0.20566228380E+02 -0.20573948886E+03 -0.10765456680E+04  0.10962218216E+04  0.00000000000E+00 0. -1.
<scales pt_clust_3="44.49697" pt_clust_4="165.82018" pt_clust_5="44.92408" pt_clust_6="14000.00000"></scales>
<clustering>
<clus scale="   44.497">  1  3  2 -1</clus>
<clus scale="   44.924">  2  5  1 -1</clus>
<clus scale="  165.820">  1  4  2 -1</clus>
<clus scale="   44.497">  1  3  2 -1</clus>
</clustering>
</event>
<event>
 6    0  0.1631680E+002  0.6599923E+02  0.7546771E-02  0.1374252E+00
         21   -1    0    0  503  502  0.00000000000E+00  0.00000000000E+00  0.76770724215E+02  0.76770724215E+02  0.00000000000E+00 0.  1.
          2   -1    0    0  505    0 -0.00000000000E+00 -0.00000000000E+00 -0.21722331214E+04  0.21722331214E+04  0.00000000000E+00 0. -1.
         21    1    1    2  503  501  0.19948714512E+02  0.48412347381E+02 -0.74148857592E+02  0.90773121968E+02  0.00000000000E+00 0.  1.
         21    1    1    2  504  502 -0.18741716318E+02 -0.81259071260E+02  0.39222624069E+02  0.92155861623E+02  0.00000000000E+00 0.  1.
         21    1    1    2  505  504 -0.65503890171E+02 -0.13468927307E+01 -0.14008534724E+04  0.14023847635E+04  0.00000000000E+00 0. -1.
          2    1    1    2  501    0  0.64296891978E+02  0.34193616610E+02 -0.65968269127E+03  0.66369009854E+03  0.00000000000E+00 0. -1.
<scales pt_clust_3="52.36131" pt_clust_4="34.80744" pt_clust_5="14000.00000" pt_clust_6="65.99923"></scales>
<clustering>
<clus scale="   52.361">  1  3  2 -1</clus>
<clus scale="   34.807">  1  4  2 -1</clus>
<clus scale="   65.999">  1  6  2 -1</clus>
<clus scale="   52.361">  1  3  2 -1</clus>
</clustering>
</event>
<event>
 6    0  0.1631680E+002  0.1438881E+03  0.7546771E-02  0.1208191E+00
          1   -1    0    0  505    0 -0.00000000000E+00  0.00000000000E+00  0.16944757915E+03  0.16944757915E+03  0.00000000000E+00 0. -1.
         21   -1    0    0  503  502  0.00000000000E+00 -0.00000000000E+00 -0.28862836826E+03  0.28862836826E+03  0.00000000000E+00 0.  1.
         21    1    1    2  503  504  0.56846725200E+02 -0.39634337187E+02 -0.37551441700E+02  0.78819677898E+02  0.00000000000E+00 0.  1.
         21    1    1    2  504  501  0.46934785433E+02  0.10681867907E+02 -0.19442494390E+02  0.51913263948E+02  0.00000000000E+00 0.  1.
         21    1    1    2  505  502 -0.17413760942E+03 -0.20818286767E+02 -0.12948464970E+03  0.21799904263E+03  0.00000000000E+00 0.  1.
          1    1    1    2  501    0  0.70356098790E+02  0.49770756047E+02  0.67297796679E+02  0.10934396294E+03  0.00000000000E+00 0. -1.
<scales pt_clust_3="39.39140" pt_clust_4="39.39140" pt_clust_5="135.90377" pt_clust_6="86.18068"></scales>
<clustering>
<clus scale="   39.391">  3  4 -1 -1</clus>
<clus scale="   86.181">  1  6  2 -1</clus>
<clus scale="  135.904">  1  5  2 -1</clus>
<clus scale="  143.888">  2  3  1 -1</clus>
</clustering>
</event>
<event>
 6    0  0.1631680E+002  0.8496782E+02  0.7546771E-02  0.1315517E+00
         21   -1    0    0  503  502  0.00000000000E+00  0.00000000000E+00  0.21018729486E+02  0.21018729486E+02  0.00000000000E+00 0.  1.
          2   -1    0    0  504    0 -0.00000000000E+00 -0.00000000000E+00 -0.19914949581E+04  0.19914949581E+04  0.00000000000E+00 0. -1.
         21    1    1    2  503  501  0.78386615024E+02 -0.27590278043E+02 -0.93388165501E+02  0.12500813699E+03  0.00000000000E+00 0.  1.
         21    1    1    2  504  505 -0.30062773759E+02  0.10237517769E+02 -0.84545165799E+03  0.84604792012E+03  0.00000000000E+00 0.  1.
         21    1    1    2  505  502 -0.90272549141E+02  0.35467556161E+02 -0.69656915954E+03  0.70328918284E+03  0.00000000000E+00 0.  1.
          2    1    1    2  501    0  0.41948707876E+02 -0.18114795888E+02 -0.33506724560E+03  0.33816844766E+03  0.00000000000E+00 0. -1.
<scales pt_clust_3="84.96782" pt_clust_4="31.75810" pt_clust_5="14000.00000" pt_clust_6="36.39935"></scales>
<clustering>
<clus scale="   31.758">  2  4  1 -1</clus>
<clus scale="   36.399">  2  6  1 -1</clus>
<clus scale="   84.968">  1  3  2 -1</clus>
<clus scale="   84.968">  1  3  2 -1</clus>
</clustering>
</event>
<event>
 6    0  0.1631680E+002  0.9830184E+02  0.7546771E-02  0.1283908E+00
          2   -1    0    0  503    0 -0.00000000000E+00  0.00000000000E+00  0.21189192452E+03  0.21189192452E+03  0.00000000000E+00 0. -1.
         21   -1    0    0  501  502  0.00000000000E+00 -0.00000000000E+00 -0.49487661112E+03  0.49487661112E+03  0.00000000000E+00 0. -1.
         21    1    1    2  503  505 -0.35029474999E+02 -0.63773601421E+00  0.36915161009E+02  0.50894006899E+02  0.00000000000E+00 0. -1.
         21    1    1    2  504  502  0.45399563285E+02  0.11036349944E+02 -0.14941493660E+03  0.15654949583E+03  0.00000000000E+00 0. -1.
         21    1    1    2  505  504 -0.89750789528E+02 -0.94295270998E+02 -0.29925636239E+03  0.32634517429E+03  0.00000000000E+00 0. -1.
          2    1    1    2  501    0  0.79380701242E+02  0.83896657068E+02  0.12877145138E+03  0.17297985862E+03  0.00000000000E+00 0. -1.
<scales pt_clust_3="35.03528" pt_clust_4="45.99602" pt_clust_5="98.30184" pt_clust_6="14000.00000"></scales>
<clustering>
<clus scale="   35.035">  1  3  2 -1</clus>
<clus scale="   45.996">  2  4  1 -1</clus>
<clus scale="   98.302">  2  5  1 -1</clus>
<clus scale="   45.996">  2  3  1 -1</clus>
</clustering>
</event>
<event>
 6    0  0.1631680E+002  0.1339429E+03  0.7546771E-02  0.1221720E+00
         21   -1    0    0  503  502  0.00000000000E+00  0.00000000000E+00  0.44961899474E+02  0.44961899474E+02  0.00000000000E+00 0.  1.
          2   -1    0    0  505    0 -0.00000000000E+00 -0.00000000000E+00 -0.17342212722E+04  0.17342212722E+04  0.00000000000E+00 0. -1.
         21    1    1    2  503  504 -0.22036070812E+02 -0.27705229830E+02 -0.34072840852E+02  0.49133762939E+02  0.00000000000E+00 0.  1.
         21    1    1    2  504  501 -0.13023072727E+02  0.14643484073E+03 -0.15386208582E+03  0.21280579047E+03  0.00000000000E+00 0.  1.
         21    1    1    2  505  502 -0.36280982366E+02  0.33425056536E+02 -0.42975752583E+03  0.43257955927E+03  0.00000000000E+00 0.  1.
          2    1    1    2  501    0  0.71340125905E+02 -0.15215466743E+03 -0.10715669203E+04  0.10846640590E+04  0.00000000000E+00 0. -1.
<scales pt_clust_3="35.40012" pt_clust_4="133.94290" pt_clust_5="49.25224" pt_clust_6="14000.00000"></scales>
<clustering>
<clus scale="   35.400">  1  3  2 -1</clus>
<clus scale="   49.252">  2  5  1 -1</clus>
<clus scale="  133.943">  1  4  2 -1</clus>
<clus scale="   35.400">  1  3  2 -1</clus>
</clustering>
</event>
<event>
 6    0  0.1631680E+002  0.7344796E+02  0.7546771E-02  0.1348746E+00
         21   -1    0    0  501  502  0.00000000000E+00  0.00000000000E+00  0.18834992014E+03  0.18834992014E+03  0.00000000000E+00 0.  1.
          1   -1    0    0  505    0 -0.00000000000E+00 -0.00000000000E+00 -0.12159685539E+04  0.12159685539E+04  0.00000000000E+00 0.  1.
         21    1    1    2  503  504  0.94059940270E+02 -0.23029847213E+02 -0.38093367822E+02  0.10406128434E+03  0.00000000000E+00 0.  1.
         21    1    1    2  504  502 -0.28386235580E+02  0.26905070227E+02  0.14372065345E+03  0.14894726383E+03  0.00000000000E+00 0.  1.
         21    1    1    2  505  503  0.39722924782E+02  0.45811381139E+02 -0.15983475597E+03  0.17094953235E+03  0.00000000000E+00 0. -1.
          1    1    1    2  501    0 -0.10539662947E+03 -0.49686604153E+02 -0.97341116337E+03  0.98036039348E+03  0.00000000000E+00 0.  1.
<scales pt_clust_3="73.44796" pt_clust_4="39.11088" pt_clust_5="61.08293" pt_clust_6="14000.00000"></scales>
<clustering>
<clus scale="   39.111">  1  4  2 -1</clus>
<clus scale="   61.083">  2  5  1 -1</clus>
<clus scale="   73.448">  1  3  2 -1</clus>
<clus scale="   39.111">  1  3  2 -1</clus>
</clustering>
</event>
<event>
 6    0  0.1631680E+002  0.5542314E+02  0.7546771E-02  0.1418108E+00
         -2   -1    0    0    0  501 -0.00000000000E+00  0.00000000000E+00  0.33996265977E+03  0.33996265977E+03  0.00000000000E+00 0.  1.
         21   -1    0    0  503  502  0.00000000000E+00 -0.00000000000E+00 -0.18966766521E+04  0.18966766521E+04  0.00000000000E+00 0.  1.
         21    1    1    2  503  504 -0.10713451950E+01 -0.94372202346E+02 -0.10672747080E+04  0.10714394816E+04  0.00000000000E+00 0.  1.
         21    1    1    2  504  501  0.41779433946E+02 -0.14014247524E+01  0.41479209014E+02  0.58889811280E+02  0.00000000000E+00 0. -1.
         21    1    1    2  505  502  0.15331326763E+02  0.41371424993E+02 -0.81270407959E+03  0.81390083263E+03  0.00000000000E+00 0.  1.
         -2    1    1    2    0  505 -0.56039415514E+02  0.54402202105E+02  0.28178558623E+03  0.29240918640E+03  0.00000000000E+00 0.  1.
<scales pt_clust_3="55.42314" pt_clust_4="41.80293" pt_clust_5="44.14813" pt_clust_6="14000.00000"></scales>
<clustering>
<clus scale="   41.803">  1  4  2 -1</clus>
<clus scale="   44.148">  2  5  1 -1</clus>
<clus scale="   55.423">  2  3  1 -1</clus>
<clus scale="   44.148">  2  3  1 -1</clus>
</clustering>
</event>
<event>
 6    0  0.1631680E+002  0.1253105E+03  0.7546771E-02  0.1234585E+00
         21   -1    0    0  503  502  0.00000000000E+00  0.00000000000E+00  0.38409623465E+03  0.38409623465E+03  0.00000000000E+00 0. -1.
          3   -1    0    0  504    0 -0.00000000000E+00 -0.00000000000E+00 -0.83601586242E+03  0.83601586242E+03  0.00000000000E+00 0. -1.
         21    1    1    2  503  505  0.58296412057E+02 -0.60541505839E+02  0.19963660173E+03  0.21660682893E+03  0.00000000000E+00 0.  1.
         21    1    1    2  504  502 -0.33603487634E+01 -0.32760222447E+02 -0.42311901842E+03  0.42439866620E+03  0.00000000000E+00 0. -1.
         21    1    1    2  505  501 -0.16347546825E+03  0.12268833053E+03  0.10316790541E+03  0.22895473761E+03  0.00000000000E+00 0. -1.
          3    1    1    2  501    0  0.10853940495E+03 -0.29386602241E+02 -0.33160511649E+03  0.35015186434E+03  0.00000000000E+00 0. -1.
<scales pt_clust_3="84.48541" pt_clust_4="32.93211" pt_clust_5="14000.00000" pt_clust_6="125.31052"></scales>
<clustering>
<clus scale="   32.932">  2  4  1 -1</clus>
<clus scale="   84.485">  1  3  2 -1</clus>
<clus scale="  125.311">  2  6  1 -1</clus>
<clus scale="   84.485">  1  3  2 -1</clus>
</clustering>
</event>
<event>
 6    0  0.1631680E+002  0.8809429E+02  0.7546771E-02  0.1307533E+00
          2   -1    0    0  503    0 -0.00000000000E+00  0.00000000000E+00  0.29332549449E+03  0.29332549449E+03  0.00000000000E+00 0.  1.
         21   -1    0    0  504  502  0.00000000000E+00 -0.00000000000E+00 -0.93079932006E+03  0.93079932006E+03  0.00000000000E+00 0. -1.
         21    1    1    2  503  502 -0.76321162703E+01  0.34808014788E+02  0.90500251015E+02  0.97263264011E+02  0.00000000000E+00 0.  1.
         21    1    1    2  504  505 -0.59691888161E+02  0.62191659668E+02 -0.84256216274E+03  0.84696040174E+03  0.00000000000E+00 0. -1.
         21    1    1    2  505  501  0.11534155488E+03 -0.10288956452E+03 -0.10329988658E+01  0.15456714999E+03  0.00000000000E+00 0.  1.
          2    1    1    2  501    0 -0.48017550450E+02  0.58898900634E+01  0.11562108502E+03  0.12533399881E+03  0.00000000000E+00 0.  1.
<scales pt_clust_3="35.63491" pt_clust_4="88.09429" pt_clust_5="14000.00000" pt_clust_6="59.11158"></scales>
<clustering>
<clus scale="   35.635">  1  3  2 -1</clus>
<clus scale="   59.112">  1  6  2 -1</clus>
<clus scale="   88.094">  2  4  1 -1</clus>
<clus scale="   88.094">  2  3  1 -1</clus>
</clustering>
</event>
<event>
 6    0  0.1631680E+002  0.1519053E+03  0.7546771E-02  0.1198151E+00
         21   -1    0    0  505  502  0.00000000000E+00  0.00000000000E+00  0.66681390017E+03  0.66681390017E+03  0.00000000000E+00 0. -1.
         -2   -1    0    0    0  501 -0.00000000000E+00 -0.00000000000E+00 -0.18649067356E+04  0.18649067356E+04  0.00000000000E+00 0. -1.
         21    1    1    2  503  502  0.39385190616E+02  0.21818800097E+02  0.53247189293E+03  0.53437212693E+03  0.00000000000E+00 0. -1.
         21    1    1    2  504  503  0.20665153242E+02 -0.16030661355E+03  0.70645952609E+02  0.17639758934E+03  0.00000000000E+00 0. -1.
         21    1    1    2  505  501 -0.45499366194E+02 -0.40008501032E+02 -0.18097256486E+03  0.19084533453E+03  0.00000000000E+00 0. -1.
         -2    1    1    2    0  504 -0.14550977663E+02  0.17849631448E+03 -0.16202381161E+04  0.16301055850E+04  0.00000000000E+00 0. -1.
<scales pt_clust_3="45.02503" pt_clust_4="14000.00000" pt_clust_5="58.96107" pt_clust_6="151.90535"></scales>
<clustering>
<clus scale="   45.025">  1  3  2 -1</clus>
<clus scale="   58.961">  2  5  1 -1</clus>
<clus scale="  151.905">  2  6  1 -1</clus>
<clus scale="   45.025">  1  3  2 -1</clus>
</clustering>
</event>
<event>
 6    0  0.1631680E+002  0.1580534E+03  0.7546771E-02  0.1190912E+00
         21   -1    0    0  504  502  0.00000000000E+00  0.00000000000E+00  0.82468870349E+03  0.82468870349E+03  0.00000000000E+00 0. -1.
          2   -1    0    0  503    0 -0.00000000000E+00 -0.00000000000E+00 -0.22452093945E+03  0.22452093945E+03  0.00000000000E+00 0. -1.
         21    1    1    2  503  502  0.54574757262E+02  0.75136869939E+02 -0.43571137862E+02  0.10257873761E+03  0.00000000000E+00 0. -1.
         21    1    1    2  504  505  0.11335141676E+03 -0.93540167182E+02  0.41267977995E+03  0.43806724066E+03  0.00000000000E+00 0. -1.
         21    1    1    2  505  501 -0.20172776140E+03  0.23315297613E+02  0.33909841804E+03  0.39525362736E+03  0.00000000000E+00 0. -1.
          2    1    1    2  501    0  0.33801587384E+02 -0.49120003696E+01 -0.10803929609E+03  0.11331003732E+03  0.00000000000E+00 0. -1.
<scales pt_clust_3="104.87600" pt_clust_4="158.05337" pt_clust_5="14000.00000" pt_clust_6="34.15663"></scales>
<clustering>
<clus scale="   34.157">  2  6  1 -1</clus>
<clus scale="  104.876">  2  3  1 -1</clus>
<clus scale="  158.053">  1  4  2 -1</clus>
<clus scale="  158.053">  1  3  2 -1</clus>
</clustering>
</event>
<event>
 6    0  0.1631680E+002  0.9572091E+02  0.7546771E-02  0.1289561E+00
         21   -1    0    0  505  502  0.00000000000E+00  0.00000000000E+00  0.52077625218E+03  0.52077625218E+03  0.00000000000E+00 0. -1.
          1   -1    0    0  504    0 -0.00000000000E+00 -0.00000000000E+00 -0.27673286937E+03  0.27673286937E+03  0.00000000000E+00 0. -1.
         21    1    1    2  503  501  0.12437995830E+02 -0.91942854133E+02  0.14778004422E+03  0.17449107036E+03  0.00000000000E+00 0. -1.
         21    1    1    2  504  502 -0.42671983077E+02 -0.45985347980E+01  0.15760448678E+02  0.45721290495E+02  0.00000000000E+00 0.  1.
         21    1    1    2  505  503 -0.55428960098E+02  0.82680110358E+02  0.31336309132E+03  0.32879293981E+03  0.00000000000E+00 0. -1.
          1    1    1    2  501    0  0.85662947344E+02  0.13861278573E+02 -0.23286020142E+03  0.24850382089E+03  0.00000000000E+00 0. -1.
<scales pt_clust_3="95.72091" pt_clust_4="42.91905" pt_clust_5="14000.00000" pt_clust_6="86.09307"></scales>
<clustering>
<clus scale="   42.919">  1  4  2 -1</clus>
<clus scale="   86.093">  2  6  1 -1</clus>
<clus scale="   95.721">  2  3  1 -1</clus>
<clus scale="   42.919">  1  3  2 -1</clus>
</clustering>
</event>
<event>
 6    0  0.1631680E+002  0.1306265E+03  0.7546771E-02  0.1226529E+00
         21   -1    0    0  501  502  0.00000000000E+00  0.00000000000E+00  0.47578725980E+03  0.47578725980E+03  0.00000000000E+00 0. -1.
          1   -1    0    0  504    0 -0.00000000000E+00 -0.00000000000E+00 -0.12111935634E+04  0.12111935634E+04  0.00000000000E+00 0. -1.
         21    1    1    2  503  502  0.48216359005E+02  0.59883399081E+02  0.32690528280E+03  0.33582421396E+03  0.00000000000E+00 0. -1.
         21    1    1    2  504  505 -0.46599175715E+01  0.63535446411E+02 -0.23366374774E+03  0.24219251597E+03  0.00000000000E+00 0. -1.
         21    1    1    2  505  503  0.26376567380E+02 -0.16918199620E+03  0.85235078521E+02  0.19126758679E+03  0.00000000000E+00 0. -1.
          1    1    1    2  501    0 -0.69933008814E+02  0.45763150710E+02 -0.91388291723E+03  0.91769650653E+03  0.00000000000E+00 0. -1.
<scales pt_clust_3="77.09560" pt_clust_4="63.70610" pt_clust_5="14000.00000" pt_clust_6="130.62654"></scales>
<clustering>
<clus scale="   63.706">  2  4  1 -1</clus>
<clus scale="   77.096">  1  3  2 -1</clus>
<clus scale="  130.627">  2  6  1 -1</clus>
<clus scale="   77.096">  1  3  2 -1</clus>
</clustering>
</event>
<event>
 6    0  0.1631680E+002  0.9563965E+02  0.7546771E-02  0.1289742E+00
         21   -1    0    0  504  502  0.00000000000E+00  0.00000000000E+00  0.17944577477E+02  0.17944577477E+02  0.00000000000E+00 0.  1.
          3   -1    0    0  505    0 -0.00000000000E+00 -0.00000000000E+00 -0.22373756330E+04  0.22373756330E+04  0.00000000000E+00 0. -1.
         21    1    1    2  503  502 -0.42995439041E+02 -0.53112185008E+02 -0.23424793978E+03  0.24401149413E+03  0.00000000000E+00 0.  1.
         21    1    1    2  504  501 -0.31942175766E+02 -0.19774419683E+02 -0.25975636462E+02  0.45673449137E+02  0.00000000000E+00 0.  1.
         21    1    1    2  505  503  0.68828016093E+01 -0.31466097728E+02 -0.28947487046E+03  0.29126137556E+03  0.00000000000E+00 0.  1.
          3    1    1    2  501    0  0.68054813198E+02  0.10435270242E+03 -0.16697326089E+04  0.16743738917E+04  0.00000000000E+00 0. -1.
<scales pt_clust_3="95.63965" pt_clust_4="37.76888" pt_clust_5="32.21006" pt_clust_6="14000.00000"></scales>
<clustering>
<clus scale="   32.210">  2  5  1 -1</clus>
<clus scale="   37.769">  1  4  2 -1</clus>
<clus scale="   95.640">  1  3  2 -1</clus>
<clus scale="   37.769">  1  3  2 -1</clus>
</clustering>
</event>
<event>
 6    0  0.1631680E+002  0.8259589E+02  0.7546771E-02  0.1321842E+00
         21   -1    0    0  504  502  0.00000000000E+00  0.00000000000E+00  0.29324030158E+03  0.29324030158E+03  0.00000000000E+00 0.  1.
          1   -1    0    0  503    0 -0.00000000000E+00 -0.00000000000E+00 -0.11732137331E+04  0.11732137331E+04  0.00000000000E+00 0.  1.
         21    1    1    2  503  505  0.52980249948E+02 -0.84416121123E+01 -0.26537831263E+03  0.27074677563E+03  0.00000000000E+00 0. -1.
         21    1    1    2  504  501  0.10078450488E+03 -0.60762356708E+02 -0.50360460614E+02  0.12800686079E+03  0.00000000000E+00 0. -1.
         21    1    1    2  505  502 -0.75349426692E+02  0.27471056600E+02  0.24284568913E+03  0.25574640522E+03  0.00000000000E+00 0.  1.
          1    1    1    2  501    0 -0.78415328136E+02  0.41732912220E+02 -0.80708034741E+03  0.81195399305E+03  0.00000000000E+00 0.  1.
<scales pt_clust_3="53.64856" pt_clust_4="14000.00000" pt_clust_5="82.59589" pt_clust_6="46.16840"></scales>
<clustering>
<clus scale="   53.649">  2  3  1 -1</clus>
<clus scale="   46.168">  2  6  1 -1</clus>
<clus scale="   82.596">  1  5  2 -1</clus>
<clus scale="   82.596">  1  3  2 -1</clus>
</clustering>
</event>
<event>
 6    0  0.1631680E+002  0.1102883E+03  0.7546771E-02  0.1260037E+00
         21   -1    0    0  501  502  0.00000000000E+00  0.00000000000E+00  0.14048943044E+03  0.14048943044E+03  0.00000000000E+00 0.  1.
          2   -1    0    0  504    0 -0.00000000000E+00 -0.00000000000E+00 -0.65107230929E+03  0.65107230929E+03  0.00000000000E+00 0.  1.
         21    1    1    2  503  505  0.80835824713E+02  0.14876830829E+03 -0.14810936319E+02  0.16995824177E+03  0.00000000000E+00 0.  1.
         21    1    1    2  504  503  0.30127158838E+02  0.34739419436E+00 -0.61481057660E+02  0.68466684113E+02  0.00000000000E+00 0.  1.
         21    1    1    2  505  502 -0.27369329265E+02 -0.64218133795E+02  0.28391671275E+02  0.75360041735E+02  0.00000000000E+00 0.  1.
          2    1    1    2  501    0 -0.83593654286E+02 -0.84897568691E+02 -0.46268255615E+03  0.47777677212E+03  0.00000000000E+00 0.  1.
<scales pt_clust_3="14000.00000" pt_clust_4="30.12916" pt_clust_5="69.32994" pt_clust_6="110.28827"></scales>
<clustering>
<clus scale="   30.129">  2  4  1 -1</clus>
<clus scale="   69.330">  1  5  2 -1</clus>
<clus scale="  110.288">  2  6  1 -1</clus>
<clus scale="   69.330">  1  3  2 -1</clus>
</clustering>
</event>
<event>
 6    0  0.1631680E+002  0.1764442E+03  0.7546771E-02  0.1171289E+00
         21   -1    0    0  504  502  0.00000000000E+00  0.00000000000E+00  0.34222653430E+02  0.34222653430E+02  0.00000000000E+00 0. -1.
         -1   -1    0    0    0  501 -0.00000000000E+00 -0.00000000000E+00 -0.14846603889E+04  0.14846603889E+04  0.00000000000E+00 0. -1.
         21    1    1    2  503  501 -0.26360193510E+02  0.41526731072E+02 -0.21899290868E+03  0.22444870961E+03  0.00000000000E+00 0.  1.
         21    1    1    2  504  503 -0.74639281546E+02  0.12683888242E+03 -0.25990878872E+03  0.29868328192E+03  0.00000000000E+00 0. -1.
         21    1    1    2  505  502  0.13087584405E+02 -0.48294238518E+02 -0.10244521706E+03  0.11401158203E+03  0.00000000000E+00 0. -1.
         -1    1    1    2    0  505  0.87911890651E+02 -0.12007137498E+03 -0.86909082098E+03  0.88173946873E+03  0.00000000000E+00 0. -1.
<scales pt_clust_3="43.92286" pt_clust_4="43.92286" pt_clust_5="50.03617" pt_clust_6="159.24885"></scales>
<clustering>
<clus scale="   43.923">  3  4 -1 -1</clus>
<clus scale="   50.036">  1  5  2 -1</clus>
<clus scale="  159.249">  2  6  1 -1</clus>
<clus scale="   50.036">  1  3  2 -1</clus>
</clustering>
</event>
<event>
 6    0  0.1631680E+002  0.1417159E+03  0.7546771E-02  0.1211039E+00
         21   -1    0    0  505  502  0.00000000000E+00  0.00000000000E+00  0.31471424403E+03  0.31471424403E+03  0.00000000000E+00 0. -1.
          1   -1    0    0  503    0 -0.00000000000E+00 -0.00000000000E+00 -0.83476489187E+03  0.83476489187E+03  0.00000000000E+00 0. -1.
         21    1    1    2  503  504  0.13370552570E+02  0.33884156375E+02 -0.27532014282E+03  0.27771944255E+03  0.00000000000E+00 0. -1.
         21    1    1    2  504  502  0.39561957293E+02 -0.99078000972E+02  0.37909281094E+02  0.11321975240E+03  0.00000000000E+00 0. -1.
         21    1    1    2  505  501  0.25157890247E+02 -0.35760541333E+02  0.22801882456E+03  0.23217303916E+03  0.00000000000E+00 0. -1.
          1    1    1    2  501    0 -0.78090400111E+02  0.10095438593E+03 -0.51065861068E+03  0.52636690178E+03  0.00000000000E+00 0. -1.
<scales pt_clust_3="36.42674" pt_clust_4="141.71593" pt_clust_5="43.64906" pt_clust_6="14000.00000"></scales>
<clustering>
<clus scale="   36.427">  2  3  1 -1</clus>
<clus scale="   43.649">  1  5  2 -1</clus>
<clus scale="  141.716">  1  4  2 -1</clus>
<clus scale="   43.649">  1  3  2 -1</clus>
</clustering>
</event>
<event>
 6    0  0.1631680E+002  0.5472654E+02  0.7546771E-02  0.1421397E+00
         21   -1    0    0  504  502  0.00000000000E+00  0.00000000000E+00  0.60172964104E+02  0.60172964104E+02  0.00000000000E+00 0.  1.
          2   -1    0    0  505    0 -0.00000000000E+00 -0.00000000000E+00 -0.14434096274E+04  0.14434096274E+04  0.00000000000E+00 0. -1.
         21    1    1    2  503  502  0.21218347712E+00  0.52427162423E+02 -0.48016278886E+02  0.71093005419E+02  0.00000000000E+00 0.  1.
         21    1    1    2  504  501  0.19776525841E+02 -0.98349231709E+02 -0.87268103892E+01  0.10069677041E+03  0.00000000000E+00 0.  1.
         21    1    1    2  505  503 -0.19191798628E+02 -0.23176663783E+02 -0.82637419632E+03  0.82692187976E+03  0.00000000000E+00 0. -1.
          2    1    1    2  501    0 -0.79691069021E+00  0.69098733069E+02 -0.50011937772E+03  0.50487093594E+03  0.00000000000E+00 0. -1.
<scales pt_clust_3="50.21604" pt_clust_4="54.72654" pt_clust_5="30.09124" pt_clust_6="14000.00000"></scales>
<clustering>
<clus scale="   30.091">  2  5  1 -1</clus>
<clus scale="   50.216">  1  3  2 -1</clus>
<clus scale="   54.727">  1  4  2 -1</clus>
<clus scale="   50.216">  1  3  2 -1</clus>
</clustering>
</event>
<event>
 6    0  0.1631680E+002  0.1745352E+03  0.7546771E-02  0.1173199E+00
         21   -1    0    0  504  502  0.00000000000E+00  0.00000000000E+00  0.14939881994E+03  0.14939881994E+03  0.00000000000E+00 0.  1.
          2   -1    0    0  505    0 -0.00000000000E+00 -0.00000000000E+00 -0.17939742419E+04  0.17939742419E+04  0.00000000000E+00 0.  1.
         21    1    1    2  503  502  0.62756995098E+02 -0.14870541514E+03  0.18634745670E+02  0.16247767438E+03  0.00000000000E+00 0.  1.
         21    1    1    2  504  501 -0.12290493115E+03 -0.14880498963E+02 -0.50266287823E+02  0.13361792934E+03  0.00000000000E+00 0. -1.
         21    1    1    2  505  503 -0.18250614876E+02 -0.65457696301E+02 -0.15319483334E+03  0.16759013071E+03  0.00000000000E+00 0. -1.
          2    1    1    2  501    0  0.78398550927E+02  0.22904361040E+03 -0.14597490465E+04  0.14796873275E+04  0.00000000000E+00 0.  1.
<scales pt_clust_3="174.53515" pt_clust_4="125.31487" pt_clust_5="67.95436" pt_clust_6="14000.00000"></scales>
<clustering>
<clus scale="   67.954">  2  5  1 -1</clus>
<clus scale="  125.315">  1  4  2 -1</clus>
<clus scale="  174.535">  1  3  2 -1</clus>
<clus scale="  125.315">  1  3  2 -1</clus>
</clustering>
</event>
<event>
 6    0  0.1631680E+002  0.4249271E+03  0.7546771E-02  0.1035475E+00
         -4   -1    0    0    0  501 -0.00000000000E+00  0.00000000000E+00  0.81967744446E+03  0.81967744446E+03  0.00000000000E+00 0.  1.
         21   -1    0    0  505  502  0.00000000000E+00 -0.00000000000E+00 -0.14465001857E+04  0.14465001857E+04  0.00000000000E+00 0.  1.
         21    1    1    2  503  504 -0.41368515925E+02  0.35115439471E+02 -0.25475058879E+03  0.26046556526E+03  0.00000000000E+00 0.  1.
         21    1    1    2  504  501 -0.89109447349E+02 -0.44604372480E+02  0.83637449199E+02  0.13009714278E+03  0.00000000000E+00 0. -1.
         21    1    1    2  505  503 -0.18888971847E+03  0.31236750485E+03 -0.10639464224E+04  0.11248265527E+04  0.00000000000E+00 0.  1.
         -4    1    1    2    0  502  0.31936768174E+03 -0.30287857184E+03  0.60823682081E+03  0.75078836939E+03  0.00000000000E+00 0.  1.
<scales pt_clust_3="30.62449" pt_clust_4="99.64960" pt_clust_5="30.62449" pt_clust_6="417.43720"></scales>
<clustering>
<clus scale="   30.624">  3  5 -1 -1</clus>
<clus scale="   99.650">  1  4  2 -1</clus>
<clus scale="  417.437">  1  6  2 -1</clus>
<clus scale="  424.927">  2  3  1 -1</clus>
</clustering>
</event>
<event>
 6    0  0.1631680E+002  0.9302729E+02  0.7546771E-02  0.1295682E+00
          1   -1    0    0  503    0 -0.00000000000E+00  0.00000000000E+00  0.19108475414E+03  0.19108475414E+03  0.00000000000E+00 0. -1.
         21   -1    0    0  505  502  0.00000000000E+00 -0.00000000000E+00 -0.49396231757E+03  0.49396231757E+03  0.00000000000E+00 0. -1.
         21    1    1    2  503  504 -0.24439311936E+02  0.21855103191E+02 -0.72427294743E+01  0.33576519082E+02  0.00000000000E+00 0. -1.
         21    1    1    2  504  502  0.26343082976E+02 -0.89251525151E+02 -0.42556747077E+03  0.43562307668E+03  0.00000000000E+00 0. -1.
         21    1    1    2  505  501  0.36741671933E+02  0.10602844037E+03  0.60476958905E+02  0.12747330380E+03  0.00000000000E+00 0. -1.
          1    1    1    2  501    0 -0.38645442973E+02 -0.38632018411E+02  0.69455677902E+02  0.88374172143E+02  0.00000000000E+00 0. -1.
<scales pt_clust_3="32.78606" pt_clust_4="14000.00000" pt_clust_5="93.02729" pt_clust_6="57.32565"></scales>
<clustering>
<clus scale="   32.786">  1  3  2 -1</clus>
<clus scale="   57.326">  1  6  2 -1</clus>
<clus scale="   93.027">  1  5  2 -1</clus>
<clus scale="   93.027">  2  3  1 -1</clus>
</clustering>
</event>
<event>
 6    0  0.1631680E+002  0.1462298E+03  0.7546771E-02  0.1205184E+00
          2   -1    0    0  505    0 -0.00000000000E+00  0.00000000000E+00  0.16367489719E+04  0.16367489719E+04  0.00000000000E+00 0. -1.
         21   -1    0    0  504  502  0.00000000000E+00 -0.00000000000E+00 -0.50927060761E+03  0.50927060761E+03  0.00000000000E+00 0. -1.
         21    1    1    2  503  502  0.12434941022E+03  0.66701293927E+02  0.60180754561E+01  0.14123758588E+03  0.00000000000E+00 0. -1.
         21    1    1    2  504  501 -0.14610357475E+03  0.50225140249E+02 -0.42337219715E+03  0.45068041514E+03  0.00000000000E+00 0. -1.
         21    1    1    2  505  503  0.21877168515E+02  0.20542575662E+02  0.38057634629E+03  0.38175772851E+03  0.00000000000E+00 0. -1.
          2    1    1    2  501    0 -0.12300398360E+00 -0.13746900984E+03  0.11642561397E+04  0.11723438500E+04  0.00000000000E+00 0. -1.
<scales pt_clust_3="14000.00000" pt_clust_4="146.22982" pt_clust_5="30.01013" pt_clust_6="120.07150"></scales>
<clustering>
<clus scale="   30.010">  1  5  2 -1</clus>
<clus scale="  120.072">  1  6  2 -1</clus>
<clus scale="  146.230">  2  4  1 -1</clus>
<clus scale="  146.230">  2  3  1 -1</clus>
</clustering>
</event>
<event>
 6    0  0.1631680E+002  0.1057907E+03  0.7546771E-02  0.1268570E+00
          2   -1    0    0  505    0 -0.00000000000E+00  0.00000000000E+00  0.12898189427E+04  0.12898189427E+04  0.00000000000E+00 0.  1.
         21   -1    0    0  503  502  0.00000000000E+00 -0.00000000000E+00 -0.42067288224E+02  0.42067288224E+02  0.00000000000E+00 0.  1.
         21    1    1    2  503  504  0.69040172497E+02 -0.41806068836E+02  0.13944715349E+03  0.16112045626E+03  0.00000000000E+00 0.  1.
         21    1    1    2  504  501 -0.10295070506E+03  0.83592660182E+02  0.12994606989E+03  0.18566787980E+03  0.00000000000E+00 0.  1.
         21    1    1    2  505  502  0.64288221562E+00  0.32647400812E+02  0.22878252994E+03  0.23110108629E+03  0.00000000000E+00 0.  1.
          2    1    1    2  501    0  0.33267650349E+02 -0.74433992158E+02  0.74957590114E+03  0.75399680856E+03  0.00000000000E+00 0.  1.
<scales pt_clust_3="14000.00000" pt_clust_4="105.79070" pt_clust_5="32.65373" pt_clust_6="61.37252"></scales>
<clustering>
<clus scale="   32.654">  1  5  2 -1</clus>
<clus scale="   61.373">  1  6  2 -1</clus>
<clus scale="  105.791">  1  4  2 -1</clus>
<clus scale="  105.791">  2  3  1 -1</clus>
</clustering>
</event>
<event>
 6    0  0.1631680E+002  0.1892692E+03  0.7546771E-02  0.1159122E+00
         -2   -1    0    0    0  501 -0.00000000000E+00  0.00000000000E+00  0.12743293203E+04  0.12743293203E+04  0.00000000000E+00 0.  1.
         21   -1    0    0  503  502  0.00000000000E+00 -0.00000000000E+00 -0.35048250911E+03  0.35048250911E+03  0.00000000000E+00 0.  1.
         21    1    1    2  503  505 -0.55024497465E+02  0.10896718593E+03 -0.79133274084E+01  0.12232809849E+03  0.00000000000E+00 0.  1.
         21    1    1    2  504  502  0.29033549799E+02  0.13885760624E+03 -0.22969556115E+03  0.26997117001E+03  0.00000000000E+00 0.  1.
         21    1    1    2  505  501  0.75766163136E+02 -0.12453433718E+03  0.13890903875E+03  0.20135797392E+03  0.00000000000E+00 0.  1.
         -2    1    1    2    0  504 -0.49775215470E+02 -0.12329045498E+03  0.10225466610E+04  0.10311545870E+04  0.00000000000E+00 0.  1.
<scales pt_clust_3="122.07188" pt_clust_4="14000.00000" pt_clust_5="189.26917" pt_clust_6="131.75303"></scales>
<clustering>
<clus scale="  122.072">  2  3  1 -1</clus>
<clus scale="  131.753">  1  6  2 -1</clus>
<clus scale="  189.269">  1  5  2 -1</clus>
<clus scale="  122.072">  2  3  1 -1</clus>
</clustering>
</event>
<event>
 6    0  0.1631680E+002  0.1965360E+03  0.7546771E-02  0.1152695E+00
         21   -1    0    0  505  502  0.00000000000E+00  0.00000000000E+00  0.95867930035E+02  0.95867930035E+02  0.00000000000E+00 0.  1.
         -2   -1    0    0    0  501 -0.00000000000E+00 -0.00000000000E+00 -0.65678298177E+03  0.65678298177E+03  0.00000000000E+00 0.  1.
         21    1    1    2  503  501  0.33224571021E+02  0.43057040912E+02 -0.24505764044E+03  0.25101997536E+03  0.00000000000E+00 0.  1.
         21    1    1    2  504  502 -0.32073159189E+02 -0.37689513491E+02  0.42253291543E+01  0.49669310183E+02  0.00000000000E+00 0.  1.
         21    1    1    2  505  503  0.13612276579E+03  0.70728483613E+02 -0.21080550612E+03  0.26071226893E+03  0.00000000000E+00 0.  1.
         -2    1    1    2    0  504 -0.13727417762E+03 -0.76096011034E+02 -0.10927723432E+03  0.19124935733E+03  0.00000000000E+00 0.  1.
<scales pt_clust_3="54.38548" pt_clust_4="41.18782" pt_clust_5="182.33535" pt_clust_6="41.18782"></scales>
<clustering>
<clus scale="   41.188">  4  6 -1 -1</clus>
<clus scale="   54.385">  2  3  1 -1</clus>
<clus scale="  182.335">  2  5  1 -1</clus>
<clus scale="  196.536">  1  3  2 -1</clus>
</clustering>
</event>
<event>
 6    0  0.1631680E+002  0.6268013E+02  0.7546771E-02  0.1386917E+00
         21   -1    0    0  505  502  0.00000000000E+00  0.00000000000E+00  0.80748609552E+03  0.80748609552E+03  0.00000000000E+00 0.  1.
          2   -1    0    0  503    0 -0.00000000000E+00 -0.00000000000E+00 -0.15522414155E+04  0.15522414155E+04  0.00000000000E+00 0. -1.
         21    1    1    2  503  504  0.21616663796E+02  0.72849026208E+02 -0.16376134429E+02  0.77733123905E+02  0.00000000000E+00 0.  1.
         21    1    1    2  504  502 -0.31245116290E+02  0.47373199850E+02  0.69044624463E+03  0.69277449006E+03  0.00000000000E+00 0.  1.
         21    1    1    2  505  501 -0.13366635556E+02 -0.61855721021E+02  0.72694690469E+02  0.96381093538E+02  0.00000000000E+00 0.  1.
          2    1    1    2  501    0  0.22995088051E+02 -0.58366505037E+02 -0.14915201206E+04  0.14928388035E+04  0.00000000000E+00 0. -1.
<scales pt_clust_3="62.68013" pt_clust_4="56.74925" pt_clust_5="45.30616" pt_clust_6="14000.00000"></scales>
<clustering>
<clus scale="   56.749">  1  4  2 -1</clus>
<clus scale="   45.306">  1  5  2 -1</clus>
<clus scale="   62.680">  1  3  2 -1</clus>
<clus scale="   56.749">  1  3  2 -1</clus>
</clustering>
</event>
<event>
 6    0  0.1631680E+002  0.6322413E+02  0.7546771E-02  0.1384779E+00
         21   -1    0    0  504  502  0.00000000000E+00  0.00000000000E+00  0.23086553323E+04  0.23086553323E+04  0.00000000000E+00 0. -1.
          1   -1    0    0  503    0 -0.00000000000E+00 -0.00000000000E+00 -0.22598431217E+04  0.22598431217E+04  0.00000000000E+00 0.  1.
         21    1    1    2  503  505 -0.11590264415E+02 -0.42460813984E+02 -0.32023264462E+03  0.32324325458E+03  0.00000000000E+00 0. -1.
         21    1    1    2  504  501  0.34669784097E+02  0.51951539339E+02  0.21914228632E+04  0.21923127335E+04  0.00000000000E+00 0. -1.
         21    1    1    2  505  502 -0.74822824422E+02 -0.81518193232E+02  0.87462553717E+02  0.14104385554E+03  0.00000000000E+00 0.  1.
          1    1    1    2  501    0  0.51743304740E+02  0.72027467877E+02 -0.19098405616E+04  0.19118986104E+04  0.00000000000E+00 0.  1.
<scales pt_clust_3="44.01426" pt_clust_4="63.22413" pt_clust_5="14000.00000" pt_clust_6="50.35077"></scales>
<clustering>
<clus scale="   44.014">  2  3  1 -1</clus>
<clus scale="   50.351">  2  6  1 -1</clus>
<clus scale="   63.224">  1  4  2 -1</clus>
<clus scale="   63.224">  1  3  2 -1</clus>
</clustering>
</event>
<event>
 6    0  0.1631680E+002  0.7448164E+02  0.7546771E-02  0.1345484E+00
          4   -1    0    0  503    0 -0.00000000000E+00  0.00000000000E+00  0.59627833326E+03  0.59627833326E+03  0.00000000000E+00 0.  1.
         21   -1    0    0  505  502  0.00000000000E+00 -0.00000000000E+00 -0.30404676937E+03  0.30404676937E+03  0.00000000000E+00 0.  1.
         21    1    1    2  503  504  0.16699726550E+02 -0.25514012227E+02  0.16827779545E+02  0.34828434521E+02  0.00000000000E+00 0.  1.
         21    1    1    2  504  502  0.48510006676E+02  0.59218167618E+02  0.16982181334E+03  0.18627791176E+03  0.00000000000E+00 0.  1.
         21    1    1    2  505  501 -0.59513811504E+02  0.45432581271E+02 -0.27779989640E+03  0.28771304392E+03  0.00000000000E+00 0.  1.
          4    1    1    2  501    0 -0.56959217221E+01 -0.79136736661E+02  0.38338186741E+03  0.39150571244E+03  0.00000000000E+00 0.  1.
<scales pt_clust_3="30.49337" pt_clust_4="74.25049" pt_clust_5="14000.00000" pt_clust_6="74.48164"></scales>
<clustering>
<clus scale="   30.493">  1  3  2 -1</clus>
<clus scale="   74.250">  1  4  2 -1</clus>
<clus scale="   74.482">  1  6  2 -1</clus>
<clus scale="   74.482">  2  3  1 -1</clus>
</clustering>
</event>
<event>
 6    0  0.1631680E+002  0.1680718E+03  0.7546771E-02  0.1179874E+00
         21   -1    0    0  504  502  0.00000000000E+00  0.00000000000E+00  0.14900631037E+03  0.14900631037E+03  0.00000000000E+00 0. -1.
         -4   -1    0    0    0  501 -0.00000000000E+00 -0.00000000000E+00 -0.10346561016E+04  0.10346561016E+04  0.00000000000E+00 0. -1.
         21    1    1    2  503  502  0.15681078863E+03  0.91429457824E+02 -0.37589742294E+02  0.18536978695E+03  0.00000000000E+00 0. -1.
         21    1    1    2  504  505 -0.34119563378E+02  0.20496883124E+02  0.55647384538E+02  0.68417090181E+02  0.00000000000E+00 0. -1.
         21    1    1    2  505  501 -0.26274454129E+02  0.33064728226E+02 -0.12512180446E+03  0.13205714348E+03  0.00000000000E+00 0.  1.
         -4    1    1    2    0  503 -0.96416771125E+02 -0.14499106917E+03 -0.77858562897E+03  0.79781839132E+03  0.00000000000E+00 0. -1.
<scales pt_clust_3="14000.00000" pt_clust_4="39.80285" pt_clust_5="43.72263" pt_clust_6="168.07179"></scales>
<clustering>
<clus scale="   39.803">  1  4  2 -1</clus>
<clus scale="   43.723">  2  5  1 -1</clus>
<clus scale="  168.072">  2  6  1 -1</clus>
<clus scale="   39.803">  1  3  2 -1</clus>
</clustering>
</event>
<event>
 6    0  0.1631680E+002  0.8511501E+02  0.7546771E-02  0.1315132E+00
         21   -1    0    0  505  502  0.00000000000E+00  0.00000000000E+00  0.32772536203E+03  0.32772536203E+03  0.00000000000E+00 0. -1.
         -2   -1    0    0    0  501 -0.00000000000E+00 -0.00000000000E+00 -0.21772771642E+04  0.21772771642E+04  0.00000000000E+00 0.  1.
         21    1    1    2  503  504 -0.32924911394E+02 -0.58317330833E+02 -0.27915905525E+03  0.28707967360E+03  0.00000000000E+00 0.  1.
         21    1    1    2  504  501  0.54301021191E+02  0.14878811044E+02 -0.19172104932E+03  0.19981726821E+03  0.00000000000E+00 0. -1.
         21    1    1    2  505  503 -0.84212469266E+02  0.12986120020E+02  0.31330681852E+03  0.32468683654E+03  0.00000000000E+00 0. -1.
         -2    1    1    2    0  502  0.62836359470E+02  0.30452399769E+02 -0.16919785161E+04  0.16934187479E+04  0.00000000000E+00 0.  1.
<scales pt_clust_3="61.56965" pt_clust_4="56.30257" pt_clust_5="85.11501" pt_clust_6="14000.00000"></scales>
<clustering>
<clus scale="   56.303">  2  4  1 -1</clus>
<clus scale="   61.570">  2  3  1 -1</clus>
<clus scale="   85.115">  1  5  2 -1</clus>
<clus scale="   85.115">  1  3  2 -1</clus>
</clustering>
</event>
<event>
 6    0  0.1631680E+002  0.1335945E+03  0.7546771E-02  0.1222218E+00
         21   -1    0    0  505  502  0.00000000000E+00  0.00000000000E+00  0.22423464491E+03  0.22423464491E+03  0.00000000000E+00 0.  1.
          2   -1    0    0  503    0 -0.00000000000E+00 -0.00000000000E+00 -0.13675865346E+04  0.13675865346E+04  0.00000000000E+00 0.  1.
         21    1    1    2  503  502  0.49847291086E+02 -0.21908174338E+02 -0.38027148541E+02  0.66413737717E+02  0.00000000000E+00 0.  1.
         21    1    1    2  504  501  0.40319442991E+02  0.18516461159E+03  0.97502665849E+02  0.21311583873E+03  0.00000000000E+00 0.  1.
         21    1    1    2  505  504 -0.11671452910E+02 -0.56286239588E+02  0.35048235404E+02  0.67325644334E+02  0.00000000000E+00 0.  1.
          2    1    1    2  501    0 -0.78495281167E+02 -0.10697019766E+03 -0.12378756424E+04  0.12449659587E+04  0.00000000000E+00 0.  1.
<scales pt_clust_3="54.44925" pt_clust_4="14000.00000" pt_clust_5="61.62709" pt_clust_6="133.59451"></scales>
<clustering>
<clus scale="   54.449">  1  3  2 -1</clus>
<clus scale="   61.627">  1  5  2 -1</clus>
<clus scale="  133.595">  2  6  1 -1</clus>
<clus scale="   54.449">  1  3  2 -1</clus>
</clustering>
</event>
<event>
 6    0  0.1631680E+002  0.6887790E+02  0.7546771E-02  0.1363951E+00
         21   -1    0    0  501  502  0.00000000000E+00  0.00000000000E+00  0.12444072694E+04  0.12444072694E+04  0.00000000000E+00 0.  1.
          1   -1    0    0  504    0 -0.00000000000E+00 -0.00000000000E+00 -0.71039926289E+03  0.71039926289E+03  0.00000000000E+00 0.  1.
         21    1    1    2  503  505  0.10847136876E+03 -0.53485679666E+01  0.16703700009E+03  0.19923856157E+03  0.00000000000E+00 0. -1.
         21    1    1    2  504  503 -0.27000969503E+02  0.65231873823E+02 -0.27244412096E+03  0.28144279838E+03  0.00000000000E+00 0. -1.
         21    1    1    2  505  502 -0.66196752964E+02 -0.44613010879E+01  0.10537422099E+04  0.10558288489E+04  0.00000000000E+00 0.  1.
          1    1    1    2  501    0 -0.15273646290E+02 -0.55422004769E+02 -0.41432708251E+03  0.41829632342E+03  0.00000000000E+00 0.  1.
<scales pt_clust_3="68.87790" pt_clust_4="43.39026" pt_clust_5="14000.00000" pt_clust_6="57.48811"></scales>
<clustering>
<clus scale="   57.488">  2  6  1 -1</clus>
<clus scale="   43.390">  2  4  1 -1</clus>
<clus scale="   68.878">  2  3  1 -1</clus>
<clus scale="   68.878">  1  3  2 -1</clus>
</clustering>
</event>
<event>
 6    0  0.1631680E+002  0.1671751E+03  0.7546771E-02  0.1180826E+00
         21   -1    0    0  503  502  0.00000000000E+00  0.00000000000E+00  0.18040808985E+04  0.18040808985E+04  0.00000000000E+00 0. -1.
         -2   -1    0    0    0  501 -0.00000000000E+00 -0.00000000000E+00 -0.44622212926E+02  0.44622212926E+02  0.00000000000E+00 0. -1.
         21    1    1    2  503  505 -0.10647194356E+03 -0.10520522727E+03  0.14755551943E+04  0.14831276230E+04  0.00000000000E+00 0. -1.
         21    1    1    2  504  502  0.12701225588E+03  0.51828157469E+02  0.19826850642E+03  0.24109888363E+03  0.00000000000E+00 0. -1.
         21    1    1    2  505  501 -0.35041711705E+02  0.70400373682E+01  0.14995982938E+02  0.38760330103E+02  0.00000000000E+00 0. -1.
         -2    1    1    2    0  504  0.14501399386E+02  0.46337032434E+02  0.70639001902E+02  0.85716274701E+02  0.00000000000E+00 0. -1.
<scales pt_clust_3="152.03002" pt_clust_4="44.44801" pt_clust_5="35.74190" pt_clust_6="44.44801"></scales>
<clustering>
<clus scale="   35.742">  2  5  1 -1</clus>
<clus scale="   44.448">  4  6 -1 -1</clus>
<clus scale="  152.030">  1  3  2 -1</clus>
<clus scale="  152.030">  1  3  2 -1</clus>
</clustering>
</event>
<event>
 6    0  0.1631680E+002  0.9314035E+02  0.7546771E-02  0.1295420E+00
         21   -1    0    0  505  502  0.00000000000E+00  0.00000000000E+00  0.37527144220E+03  0.37527144220E+03  0.00000000000E+00 0. -1.
          4   -1    0    0  504    0 -0.00000000000E+00 -0.00000000000E+00 -0.68468164738E+03  0.68468164738E+03  0.00000000000E+00 0. -1.
         21    1    1    2  503  502  0.85850394574E+02 -0.21515771662E+02  0.32890890408E+03  0.34060869904E+03  0.00000000000E+00 0. -1.
         21    1    1    2  504  503  0.48536043180E+00  0.44542569242E+02 -0.16830847752E+03  0.17410347399E+03  0.00000000000E+00 0. -1.
         21    1    1    2  505  501 -0.36755983769E+02 -0.62163020809E+02 -0.12332814581E+01  0.72227172740E+02  0.00000000000E+00 0. -1.
          4    1    1    2  501    0 -0.49579771237E+02  0.39136223229E+02 -0.46877735029E+03  0.47301374380E+03  0.00000000000E+00 0. -1.
<scales pt_clust_3="93.14035" pt_clust_4="44.54521" pt_clust_5="69.47454" pt_clust_6="14000.00000"></scales>
<clustering>
<clus scale="   44.545">  2  4  1 -1</clus>
<clus scale="   69.475">  1  5  2 -1</clus>
<clus scale="   93.140">  1  3  2 -1</clus>
<clus scale="   69.475">  1  3  2 -1</clus>
</clustering>
</event>
<event>
 6    0  0.1631680E+002  0.3590748E+03  0.7546771E-02  0.1058951E+00
          2   -1    0    0  503    0 -0.00000000000E+00  0.00000000000E+00  0.15952528390E+04  0.15952528390E+04  0.00000000000E+00 0. -1.
         21   -1    0    0  504  502  0.00000000000E+00 -0.00000000000E+00 -0.32055041523E+03  0.32055041523E+03  0.00000000000E+00 0. -1.
         21    1    1    2  503  505 -0.13378619309E+03  0.60065780858E+02  0.11589904835E+03  0.18692039187E+03  0.00000000000E+00 0.  1.
         21    1    1    2  504  501  0.37810247081E+03 -0.29461360763E+03 -0.15149034619E+02  0.47957079715E+03  0.00000000000E+00 0. -1.
         21    1    1    2  505  502  0.30791615710E+02  0.23550666625E+02  0.18479218140E+02  0.42944603847E+02  0.00000000000E+00 0.  1.
          2    1    1    2  501    0 -0.27510789343E+03  0.21099716015E+03  0.11554731919E+04  0.12063674614E+04  0.00000000000E+00 0. -1.
<scales pt_clust_3="144.58043" pt_clust_4="14000.00000" pt_clust_5="38.76542" pt_clust_6="359.07484"></scales>
<clustering>
<clus scale="   38.765">  2  5  1 -1</clus>
<clus scale="  144.580">  2  3  1 -1</clus>
<clus scale="  359.075">  1  6  2 -1</clus>
<clus scale="   38.765">  2  3  1 -1</clus>
</clustering>
</event>
<event>
 6    0  0.1631680E+002  0.1063049E+03  0.7546771E-02  0.1267570E+00
          2   -1    0    0  504    0 -0.00000000000E+00  0.00000000000E+00  0.47001282752E+03  0.47001282752E+03  0.00000000000E+00 0.  1.
         21   -1    0    0  505  502  0.00000000000E+00 -0.00000000000E+00 -0.15839336043E+03  0.15839336043E+03  0.00000000000E+00 0.  1.
         21    1    1    2  503  502  0.58587100081E+02  0.44636377366E+02  0.11172882587E+02  0.74496226654E+02  0.00000000000E+00 0.  1.
         21    1    1    2  504  503  0.10550816906E+02  0.56197445898E+02  0.18033989639E+03  0.18918760766E+03  0.00000000000E+00 0.  1.
         21    1    1    2  505  501 -0.12713859284E+03 -0.57617050424E+02 -0.73708028427E+02  0.15785062478E+03  0.00000000000E+00 0.  1.
          2    1    1    2  501    0  0.58000675855E+02 -0.43216772840E+02  0.19381471654E+03  0.20687172886E+03  0.00000000000E+00 0.  1.
<scales pt_clust_3="106.30493" pt_clust_4="57.17930" pt_clust_5="14000.00000" pt_clust_6="65.51821"></scales>
<clustering>
<clus scale="   57.179">  1  4  2 -1</clus>
<clus scale="   65.518">  1  6  2 -1</clus>
<clus scale="  106.305">  1  3  2 -1</clus>
<clus scale="  106.305">  2  3  1 -1</clus>
</clustering>
</event>
<event>
 6    0  0.1631680E+002  0.8765520E+02  0.7546771E-02  0.1308631E+00
         -3   -1    0    0    0  501 -0.00000000000E+00  0.00000000000E+00  0.52322588239E+02  0.52322588239E+02  0.00000000000E+00 0.  1.
         21   -1    0    0  503  502  0.00000000000E+00 -0.00000000000E+00 -0.20018123731E+04  0.20018123731E+04  0.00000000000E+00 0. -1.
         21    1    1    2  503  501  0.11985836082E+02  0.42094342079E+02 -0.89257707151E+02  0.99410925896E+02  0.00000000000E+00 0. -1.
         21    1    1    2  504  502 -0.32290200538E+02  0.22576175347E+02 -0.10675345416E+04  0.10682613624E+04  0.00000000000E+00 0. -1.
         21    1    1    2  505  504  0.87105833976E+01  0.65138553490E+02 -0.74467728341E+03  0.74757150952E+03  0.00000000000E+00 0. -1.
         -3    1    1    2    0  505  0.11593781059E+02 -0.12980907092E+03 -0.48020252679E+02  0.13889116357E+03  0.00000000000E+00 0.  1.
<scales pt_clust_3="45.22423" pt_clust_4="39.39976" pt_clust_5="14000.00000" pt_clust_6="87.65520"></scales>
<clustering>
<clus scale="   39.400">  2  4  1 -1</clus>
<clus scale="   45.224">  1  3  2 -1</clus>
<clus scale="   87.655">  1  6  2 -1</clus>
<clus scale="   39.400">  2  3  1 -1</clus>
</clustering>
</event>
<event>
 6    0  0.1631680E+002  0.1270948E+03  0.7546771E-02  0.1231831E+00
          1   -1    0    0  505    0 -0.00000000000E+00  0.00000000000E+00  0.12988261419E+04  0.12988261419E+04  0.00000000000E+00 0.  1.
         21   -1    0    0  503  502  0.00000000000E+00 -0.00000000000E+00 -0.13734654333E+03  0.13734654333E+03  0.00000000000E+00 0. -1.
         21    1    1    2  503  501 -0.59406245365E+02 -0.44231481799E+01  0.50896699996E+03  0.51244128764E+03  0.00000000000E+00 0.  1.
         21    1    1    2  504  502 -0.11648224343E+03  0.10316445653E+02 -0.56988667963E+02  0.13008555017E+03  0.00000000000E+00 0. -1.
         21    1    1    2  505  504  0.18835805670E+03 -0.59136611617E+02  0.19932241682E+03  0.28054468842E+03  0.00000000000E+00 0. -1.
          1    1    1    2  501    0 -0.12469567898E+02  0.53243314144E+02  0.51017884974E+03  0.51310115898E+03  0.00000000000E+00 0.  1.
<scales pt_clust_3="73.91158" pt_clust_4="14000.00000" pt_clust_5="127.09483" pt_clust_6="54.68401"></scales>
<clustering>
<clus scale="   54.684">  1  6  2 -1</clus>
<clus scale="   73.912">  1  3  2 -1</clus>
<clus scale="  127.095">  1  5  2 -1</clus>
<clus scale="  127.095">  2  3  1 -1</clus>
</clustering>
</event>
<event>
 6    0  0.1631680E+002  0.8100640E+02  0.7546771E-02  0.1326219E+00
          1   -1    0    0  503    0 -0.00000000000E+00  0.00000000000E+00  0.14444289101E+04  0.14444289101E+04  0.00000000000E+00 0. -1.
         21   -1    0    0  505  502  0.00000000000E+00 -0.00000000000E+00 -0.27681122224E+03  0.27681122224E+03  0.00000000000E+00 0. -1.
         21    1    1    2  503  502 -0.24993280746E+00 -0.53834434456E+02 -0.14052086110E+03  0.15048030172E+03  0.00000000000E+00 0. -1.
         21    1    1    2  504  501  0.44695061998E+02 -0.60714667025E+02  0.10495550800E+02  0.76118827800E+02  0.00000000000E+00 0. -1.
         21    1    1    2  505  504 -0.44576677123E+02  0.32812188349E+02 -0.89423725580E+02  0.10516806808E+03  0.00000000000E+00 0. -1.
          1    1    1    2  501    0  0.13154793274E+00  0.81736913132E+02  0.13870667238E+04  0.13894729348E+04  0.00000000000E+00 0. -1.
<scales pt_clust_3="53.83501" pt_clust_4="14000.00000" pt_clust_5="45.31786" pt_clust_6="81.00640"></scales>
<clustering>
<clus scale="   53.835">  2  3  1 -1</clus>
<clus scale="   45.318">  2  5  1 -1</clus>
<clus scale="   81.006">  1  6  2 -1</clus>
<clus scale="   53.835">  2  3  1 -1</clus>
</clustering>
</event>
<event>
 6    0  0.1631680E+002  0.1227409E+03  0.7546771E-02  0.1238643E+00
         -3   -1    0    0    0  501 -0.00000000000E+00  0.00000000000E+00  0.87744023424E+02  0.87744023424E+02  0.00000000000E+00 0.  1.
         21   -1    0    0  504  502  0.00000000000E+00 -0.00000000000E+00 -0.14813584306E+04  0.14813584306E+04  0.00000000000E+00 0.  1.
         21    1    1    2  503  502  0.91099034052E+02 -0.28862528702E+02 -0.40158563968E+03  0.41279911042E+03  0.00000000000E+00 0. -1.
         21    1    1    2  504  505 -0.14465692665E+03 -0.85251408102E+02 -0.98255484218E+03  0.99679859897E+03  0.00000000000E+00 0.  1.
         21    1    1    2  505  501 -0.23559074692E+02  0.46494572630E+02 -0.21206771728E+02  0.56271684278E+02  0.00000000000E+00 0.  1.
         -3    1    1    2    0  503  0.77116967295E+02  0.67619364174E+02  0.11732846453E+02  0.10323306031E+03  0.00000000000E+00 0.  1.
<scales pt_clust_3="92.69472" pt_clust_4="14000.00000" pt_clust_5="52.12269" pt_clust_6="122.74089"></scales>
<clustering>
<clus scale="   52.123">  1  5  2 -1</clus>
<clus scale="   92.695">  2  3  1 -1</clus>
<clus scale="  122.741">  1  6  2 -1</clus>
<clus scale="   92.695">  2  3  1 -1</clus>
</clustering>
</event>
<event>
 6    0  0.1631680E+002  0.1354384E+03  0.7546771E-02  0.1219602E+00
         -4   -1    0    0    0  501 -0.00000000000E+00  0.00000000000E+00  0.85944995243E+02  0.85944995243E+02  0.00000000000E+00 0. -1.
         21   -1    0    0  504  502  0.00000000000E+00 -0.00000000000E+00 -0.11843004197E+04  0.11843004197E+04  0.00000000000E+00 0.  1.
         21    1    1    2  503  501 -0.24240914180E+02  0.21755533060E+02 -0.67729819542E+01  0.33268580125E+02  0.00000000000E+00 0.  1.
         21    1    1    2  504  503  0.70832610848E+02  0.95602738844E+02 -0.32081826414E+03  0.34217174202E+03  0.00000000000E+00 0.  1.
         21    1    1    2  505  502 -0.21362477172E+02  0.34549520315E+02 -0.73576981581E+03  0.73689025414E+03  0.00000000000E+00 0.  1.
         -4    1    1    2    0  505 -0.25229219496E+02 -0.15190779222E+03 -0.34994362538E+02  0.15791483864E+03  0.00000000000E+00 0. -1.
<scales pt_clust_3="32.57185" pt_clust_4="14000.00000" pt_clust_5="40.86140" pt_clust_6="135.43837"></scales>
<clustering>
<clus scale="   32.572">  1  3  2 -1</clus>
<clus scale="   40.861">  2  5  1 -1</clus>
<clus scale="  135.438">  1  6  2 -1</clus>
<clus scale="   40.861">  2  3  1 -1</clus>
</clustering>
</event>
<event>
 6    0  0.1631680E+002  0.9245218E+02  0.7546771E-02  0.1297020E+00
         21   -1    0    0  501  502  0.00000000000E+00  0.00000000000E+00  0.41314960101E+02  0.41314960101E+02  0.00000000000E+00 0. -1.
          1   -1    0    0  505    0 -0.00000000000E+00 -0.00000000000E+00 -0.77995240714E+03  0.77995240714E+03  0.00000000000E+00 0. -1.
         21    1    1    2  503  504 -0.73442657019E+02 -0.24460871814E+02 -0.95470151084E+02  0.12290934817E+03  0.00000000000E+00 0. -1.
         21    1    1    2  504  502  0.16548388797E+02 -0.29227947999E+02 -0.29473711887E+02  0.44685812160E+02  0.00000000000E+00 0. -1.
         21    1    1    2  505  503 -0.30929813177E+02 -0.29759119396E+02 -0.43893674994E+03  0.44103030392E+03  0.00000000000E+00 0. -1.
          1    1    1    2  501    0  0.87824081399E+02  0.83447939209E+02 -0.17475683413E+03  0.21264190299E+03  0.00000000000E+00 0. -1.
<scales pt_clust_3="92.45218" pt_clust_4="33.58753" pt_clust_5="43.19234" pt_clust_6="14000.00000"></scales>
<clustering>
<clus scale="   33.588">  1  4  2 -1</clus>
<clus scale="   43.192">  2  5  1 -1</clus>
<clus scale="   92.452">  1  3  2 -1</clus>
<clus scale="   33.588">  1  3  2 -1</clus>
</clustering>
</event>
<event>
 6    0  0.1631680E+002  0.6320610E+02  0.7546771E-02  0.1384849E+00
          2   -1    0    0  503    0 -0.00000000000E+00  0.00000000000E+00  0.59099228114E+02  0.59099228114E+02  0.00000000000E+00 0.  1.
         21   -1    0    0  505  502  0.00000000000E+00 -0.00000000000E+00 -0.11848504645E+04  0.11848504645E+04  0.00000000000E+00 0. -1.
         21    1    1    2  503  504  0.21531129246E+02  0.56963903461E+02 -0.70128734904E+02  0.92879035759E+02  0.00000000000E+00 0. -1.
         21    1    1    2  504  502 -0.43126298310E+02 -0.17773056921E+02 -0.76202032275E+03  0.76344661335E+03  0.00000000000E+00 0. -1.
         21    1    1    2  505  501  0.80992310170E+02 -0.19529748390E+02 -0.31157953871E+03  0.32252592813E+03  0.00000000000E+00 0. -1.
          2    1    1    2  501    0 -0.59397141106E+02 -0.19661098150E+02  0.17977359977E+02  0.65098115363E+02  0.00000000000E+00 0.  1.
<scales pt_clust_3="55.13663" pt_clust_4="46.64503" pt_clust_5="63.20610" pt_clust_6="14000.00000"></scales>
<clustering>
<clus scale="   46.645">  2  4  1 -1</clus>
<clus scale="   55.137">  2  3  1 -1</clus>
<clus scale="   63.206">  2  5  1 -1</clus>
<clus scale="   46.645">  2  3  1 -1</clus>
</clustering>
</event>
<event>
 6    0  0.1631680E+002  0.8421992E+02  0.7546771E-02  0.1317485E+00
         21   -1    0    0  503  502  0.00000000000E+00  0.00000000000E+00  0.54962704360E+03  0.54962704360E+03  0.00000000000E+00 0. -1.
          2   -1    0    0  505    0 -0.00000000000E+00 -0.00000000000E+00 -0.22193666358E+04  0.22193666358E+04  0.00000000000E+00 0.  1.
         21    1    1    2  503  501 -0.10305975884E+02  0.36329059977E+02  0.28900940372E+03  0.29146603434E+03  0.00000000000E+00 0.  1.
         21    1    1    2  504  502 -0.63184060376E+02  0.58964260256E+01  0.25083078535E+03  0.25873360084E+03  0.00000000000E+00 0. -1.
         21    1    1    2  505  504  0.96420340817E+02  0.58988382996E+01 -0.55419374074E+03  0.56254989174E+03  0.00000000000E+00 0. -1.
          2    1    1    2  501    0 -0.22930304556E+02 -0.48124324302E+02 -0.16553860405E+04  0.16562441525E+04  0.00000000000E+00 0.  1.
<scales pt_clust_3="37.76260" pt_clust_4="84.21992" pt_clust_5="14000.00000" pt_clust_6="53.26116"></scales>
<clustering>
<clus scale="   37.763">  1  3  2 -1</clus>
<clus scale="   53.261">  2  6  1 -1</clus>
<clus scale="   84.220">  1  4  2 -1</clus>
<clus scale="   37.763">  1  3  2 -1</clus>
</clustering>
</event>
<event>
 6    0  0.1631680E+002  0.3708273E+03  0.7546771E-02  0.1054377E+00
          2   -1    0    0  503    0 -0.00000000000E+00  0.00000000000E+00  0.49542187737E+03  0.49542187737E+03  0.00000000000E+00 0.  1.
         21   -1    0    0  501  502  0.00000000000E+00 -0.00000000000E+00 -0.56965487393E+03  0.56965487393E+03  0.00000000000E+00 0.  1.
         21    1    1    2  503  505 -0.48446406813E+02 -0.62280606421E+01  0.18446201215E+03  0.19081948799E+03  0.00000000000E+00 0.  1.
         21    1    1    2  504  502 -0.21617185140E+02  0.28157916065E+02 -0.87554608682E+02  0.94477406992E+02  0.00000000000E+00 0.  1.
         21    1    1    2  505  504 -0.59339320393E+02 -0.36497720919E+03  0.11953803720E+02  0.36996271649E+03  0.00000000000E+00 0.  1.
          2    1    1    2  501    0  0.12940291235E+03  0.34304735377E+03 -0.18309420375E+03  0.40981713982E+03  0.00000000000E+00 0.  1.
<scales pt_clust_3="48.96406" pt_clust_4="35.49889" pt_clust_5="14000.00000" pt_clust_6="370.82727"></scales>
<clustering>
<clus scale="   35.499">  2  4  1 -1</clus>
<clus scale="   48.964">  1  3  2 -1</clus>
<clus scale="  370.827">  2  6  1 -1</clus>
<clus scale="   35.499">  2  3  1 -1</clus>
</clustering>
</event>
<event>
 6    0  0.1631680E+002  0.1489570E+03  0.7546771E-02  0.1201760E+00
          2   -1    0    0  503    0 -0.00000000000E+00  0.00000000000E+00  0.34819691028E+03  0.34819691028E+03  0.00000000000E+00 0. -1.
         21   -1    0    0  505  502  0.00000000000E+00 -0.00000000000E+00 -0.22630747261E+03  0.22630747261E+03  0.00000000000E+00 0. -1.
         21    1    1    2  503  504 -0.13195750633E+02 -0.42468405049E+02  0.55078712796E+02  0.70790944798E+02  0.00000000000E+00 0.  1.
         21    1    1    2  504  502  0.20279761760E+02 -0.53836207748E+02  0.32541447950E+02  0.66095021268E+02  0.00000000000E+00 0.  1.
         21    1    1    2  505  501  0.88019059757E+02  0.13689405293E+03 -0.15320713162E+03  0.22351680426E+03  0.00000000000E+00 0. -1.
          2    1    1    2  501    0 -0.95103070883E+02 -0.40589440135E+02  0.18747640854E+03  0.21410161256E+03  0.00000000000E+00 0. -1.
<scales pt_clust_3="36.62981" pt_clust_4="36.62981" pt_clust_5="143.01220" pt_clust_6="103.40260"></scales>
<clustering>
<clus scale="   36.630">  3  4 -1 -1</clus>
<clus scale="  103.403">  1  6  2 -1</clus>
<clus scale="  143.012">  2  5  1 -1</clus>
<clus scale="  143.012">  2  3  1 -1</clus>
</clustering>
</event>
<event>
 6    0  0.1631680E+002  0.7950257E+02  0.7546771E-02  0.1330469E+00
          2   -1    0    0  504    0 -0.00000000000E+00  0.00000000000E+00  0.67126168669E+03  0.67126168669E+03  0.00000000000E+00 0. -1.
         21   -1    0    0  503  502  0.00000000000E+00 -0.00000000000E+00 -0.52609056798E+03  0.52609056798E+03  0.00000000000E+00 0. -1.
         21    1    1    2  503  505  0.34440715785E+02  0.30364642487E+02 -0.46619927916E+03  0.46845484554E+03  0.00000000000E+00 0. -1.
         21    1    1    2  504  502  0.20180932722E+02  0.39652138954E+02  0.67768901877E+02  0.81069021400E+02  0.00000000000E+00 0. -1.
         21    1    1    2  505  501  0.40681171302E+01 -0.10028631845E+03  0.13929392261E+00  0.10036889283E+03  0.00000000000E+00 0. -1.
          2    1    1    2  501    0 -0.58689765637E+02  0.30269537013E+02  0.54346220208E+03  0.54745949489E+03  0.00000000000E+00 0. -1.
<scales pt_clust_3="45.99303" pt_clust_4="44.49227" pt_clust_5="79.50257" pt_clust_6="14000.00000"></scales>
<clustering>
<clus scale="   44.492">  1  4  2 -1</clus>
<clus scale="   45.993">  2  3  1 -1</clus>
<clus scale="   79.503">  2  5  1 -1</clus>
<clus scale="   45.993">  2  3  1 -1</clus>
</clustering>
</event>
<event>
 6    0  0.1631680E+002  0.1361369E+03  0.7546771E-02  0.1218624E+00
          1   -1    0    0  505    0 -0.00000000000E+00  0.00000000000E+00  0.32771026820E+04  0.32771026820E+04  0.00000000000E+00 0. -1.
         21   -1    0    0  503  502  0.00000000000E+00 -0.00000000000E+00 -0.22255566121E+03  0.22255566121E+03  0.00000000000E+00 0.  1.
         21    1    1    2  503  501 -0.77827148573E+01 -0.41256336327E+02 -0.96483130255E+02  0.10522191008E+03  0.00000000000E+00 0.  1.
         21    1    1    2  504  502  0.94873662732E+02 -0.64826744002E+02 -0.91534617186E+02  0.14690849111E+03  0.00000000000E+00 0.  1.
         21    1    1    2  505  504 -0.50766715543E+02  0.26924037280E+01  0.45898466486E+03  0.46179154499E+03  0.00000000000E+00 0.  1.
          1    1    1    2  501    0 -0.36324232331E+02  0.10339067660E+03  0.27835801034E+04  0.27857363970E+04  0.00000000000E+00 0. -1.
<scales pt_clust_3="41.98400" pt_clust_4="136.13691" pt_clust_5="50.90475" pt_clust_6="14000.00000"></scales>
<clustering>
<clus scale="   41.984">  2  3  1 -1</clus>
<clus scale="   50.905">  1  5  2 -1</clus>
<clus scale="  136.137">  2  4  1 -1</clus>
<clus scale="   41.984">  2  3  1 -1</clus>
</clustering>
</event>
<event>
 6    0  0.1631680E+002  0.1700378E+03  0.7546771E-02  0.1177808E+00
         21   -1    0    0  503  502  0.00000000000E+00  0.00000000000E+00  0.20608620344E+03  0.20608620344E+03  0.00000000000E+00 0. -1.
          2   -1    0    0  505    0 -0.00000000000E+00 -0.00000000000E+00 -0.89889613091E+03  0.89889613091E+03  0.00000000000E+00 0. -1.
         21    1    1    2  503  504 -0.78230531856E+00  0.12136979398E+03  0.80044560186E+02  0.14539040721E+03  0.00000000000E+00 0. -1.
         21    1    1    2  504  501 -0.10200587841E+03  0.78677647291E+02 -0.26816242324E+02  0.13158450618E+03  0.00000000000E+00 0. -1.
         21    1    1    2  505  502 -0.47181383725E+02 -0.10153789504E+03 -0.78414970853E+02  0.13669284822E+03  0.00000000000E+00 0.  1.
          2    1    1    2  501    0  0.14996956745E+03 -0.98509546230E+02 -0.66762327448E+03  0.69131457275E+03  0.00000000000E+00 0. -1.
<scales pt_clust_3="64.53359" pt_clust_4="170.03775" pt_clust_5="111.96440" pt_clust_6="14000.00000"></scales>
<clustering>
<clus scale="  111.964">  1  5  2 -1</clus>
<clus scale="   64.534">  1  3  2 -1</clus>
<clus scale="  170.038">  1  4  2 -1</clus>
<clus scale="  111.964">  1  3  2 -1</clus>
</clustering>
</event>
<event>
 6    0  0.1631680E+002  0.1433953E+03  0.7546771E-02  0.1208832E+00
          2   -1    0    0  503    0 -0.00000000000E+00  0.00000000000E+00  0.36807540687E+04  0.36807540687E+04  0.00000000000E+00 0.  1.
         21   -1    0    0  501  502  0.00000000000E+00 -0.00000000000E+00 -0.13020416958E+03  0.13020416958E+03  0.00000000000E+00 0. -1.
         21    1    1    2  503  504  0.34738868733E+02  0.32671319735E+02  0.52505585947E+03  0.52721708973E+03  0.00000000000E+00 0. -1.
         21    1    1    2  504  505 -0.70280820688E+02  0.65818441715E+02  0.14289261136E+02  0.97342919672E+02  0.00000000000E+00 0.  1.
         21    1    1    2  505  502 -0.62098064125E+02 -0.10156465924E+01 -0.74849932706E+02  0.97261058663E+02  0.00000000000E+00 0. -1.
          2    1    1    2  501    0  0.97640016081E+02 -0.97474114857E+02  0.30860547112E+04  0.30891371702E+04  0.00000000000E+00 0.  1.
<scales pt_clust_3="47.68862" pt_clust_4="14000.00000" pt_clust_5="61.98120" pt_clust_6="143.39528"></scales>
<clustering>
<clus scale="   47.689">  1  3  2 -1</clus>
<clus scale="   61.981">  2  5  1 -1</clus>
<clus scale="  143.395">  1  6  2 -1</clus>
<clus scale="   61.981">  2  3  1 -1</clus>
</clustering>
</event>
<event>
 6    0  0.1631680E+002  0.1344631E+03  0.7546771E-02  0.1220980E+00
          2   -1    0    0  503    0 -0.00000000000E+00  0.00000000000E+00  0.13440691121E+04  0.13440691121E+04  0.00000000000E+00 0.  1.
         21   -1    0    0  504  502  0.00000000000E+00 -0.00000000000E+00 -0.61844616631E+03  0.61844616631E+03  0.00000000000E+00 0.  1.
         21    1    1    2  503  505  0.34951223263E+02 -0.17114015645E+01  0.17434677296E+03  0.17782382896E+03  0.00000000000E+00 0.  1.
         21    1    1    2  504  501 -0.16293250804E+02 -0.14478697342E+03 -0.51512664677E+03  0.53533559559E+03  0.00000000000E+00 0.  1.
         21    1    1    2  505  502  0.61129266324E+02  0.18243594419E+02 -0.74737955492E+02  0.98261782651E+02  0.00000000000E+00 0. -1.
          2    1    1    2  501    0 -0.79787238782E+02  0.12825478057E+03  0.11411407751E+04  0.11510940712E+04  0.00000000000E+00 0.  1.
<scales pt_clust_3="34.99310" pt_clust_4="134.46307" pt_clust_5="64.12599" pt_clust_6="14000.00000"></scales>
<clustering>
<clus scale="   34.993">  1  3  2 -1</clus>
<clus scale="   64.126">  2  5  1 -1</clus>
<clus scale="  134.463">  2  4  1 -1</clus>
<clus scale="   64.126">  2  3  1 -1</clus>
</clustering>
</event>
<event>
 6    0  0.1631680E+002  0.7983102E+02  0.7546771E-02  0.1329532E+00
         -1   -1    0    0    0  501 -0.00000000000E+00  0.00000000000E+00  0.47817767350E+03  0.47817767350E+03  0.00000000000E+00 0.  1.
         21   -1    0    0  503  502  0.00000000000E+00 -0.00000000000E+00 -0.21246619111E+03  0.21246619111E+03  0.00000000000E+00 0.  1.
         21    1    1    2  503  501 -0.28992210017E+02 -0.42553602505E+02  0.15430518163E+03  0.16266974644E+03  0.00000000000E+00 0.  1.
         21    1    1    2  504  502  0.71301459137E+02  0.71667572088E+02 -0.12496299445E+03  0.16073546263E+03  0.00000000000E+00 0.  1.
         21    1    1    2  505  504 -0.70244662396E+02  0.59827613184E+00 -0.44675668748E+02  0.83250140586E+02  0.00000000000E+00 0. -1.
         -1    1    1    2    0  505  0.27935413275E+02 -0.29712245715E+02  0.28104496396E+03  0.28398851496E+03  0.00000000000E+00 0.  1.
<scales pt_clust_3="66.92414" pt_clust_4="14000.00000" pt_clust_5="79.83102" pt_clust_6="40.78241"></scales>
<clustering>
<clus scale="   40.782">  1  6  2 -1</clus>
<clus scale="   66.924">  1  3  2 -1</clus>
<clus scale="   79.831">  1  5  2 -1</clus>
<clus scale="   79.831">  2  3  1 -1</clus>
</clustering>
</event>
<event>
 6    0  0.1631680E+002  0.1192339E+03  0.7546771E-02  0.1244366E+00
          2   -1    0    0  504    0 -0.00000000000E+00  0.00000000000E+00  0.20442936702E+04  0.20442936702E+04  0.00000000000E+00 0.  1.
         21   -1    0    0  503  502  0.00000000000E+00 -0.00000000000E+00 -0.31410887307E+03  0.31410887307E+03  0.00000000000E+00 0.  1.
         21    1    1    2  503  505  0.37053032942E+02 -0.98897730727E+01 -0.25265215961E+03  0.25554617707E+03  0.00000000000E+00 0.  1.
         21    1    1    2  504  502  0.72322988976E+02  0.43533214559E+02  0.10131400484E+03  0.13187222255E+03  0.00000000000E+00 0. -1.
         21    1    1    2  505  501 -0.13060711654E+01 -0.91922973923E+02  0.67336507985E+01  0.92178527922E+02  0.00000000000E+00 0. -1.
          2    1    1    2  501    0 -0.10806995075E+03  0.58279532437E+02  0.18747893011E+04  0.18788056158E+04  0.00000000000E+00 0.  1.
<scales pt_clust_3="38.35016" pt_clust_4="91.46838" pt_clust_5="119.23394" pt_clust_6="14000.00000"></scales>
<clustering>
<clus scale="   38.350">  2  3  1 -1</clus>
<clus scale="   91.468">  2  4  1 -1</clus>
<clus scale="  119.234">  2  5  1 -1</clus>
<clus scale="   38.350">  2  3  1 -1</clus>
</clustering>
</event>
<event>
 6    0  0.1631680E+002  0.1395443E+03  0.7546771E-02  0.1213943E+00
         21   -1    0    0  505  502  0.00000000000E+00  0.00000000000E+00  0.17949797265E+03  0.17949797265E+03  0.00000000000E+00 0.  1.
         -3   -1    0    0    0  501 -0.00000000000E+00 -0.00000000000E+00 -0.82455967330E+03  0.82455967330E+03  0.00000000000E+00 0.  1.
         21    1    1    2  503  502 -0.25368653484E+02 -0.17178413269E+02 -0.13773079706E+01  0.30668606739E+02  0.00000000000E+00 0. -1.
         21    1    1    2  504  503 -0.13811018100E+03 -0.62260188686E+02 -0.21857291808E+03  0.26594148549E+03  0.00000000000E+00 0.  1.
         21    1    1    2  505  501  0.15941692368E+03  0.22038020652E+02  0.93186149739E+02  0.18596528820E+03  0.00000000000E+00 0.  1.
         -3    1    1    2    0  504  0.40619107995E+01  0.57400581302E+02 -0.51829762434E+03  0.52148226552E+03  0.00000000000E+00 0.  1.
<scales pt_clust_3="30.63766" pt_clust_4="139.54434" pt_clust_5="14000.00000" pt_clust_6="57.36178"></scales>
<clustering>
<clus scale="   30.638">  1  3  2 -1</clus>
<clus scale="   57.362">  2  6  1 -1</clus>
<clus scale="  139.544">  2  4  1 -1</clus>
<clus scale="   30.638">  1  3  2 -1</clus>
</clustering>
</event>
<event>
 6    0  0.1631680E+002  0.1311580E+03  0.7546771E-02  0.1225748E+00
          2   -1    0    0  503    0 -0.00000000000E+00  0.00000000000E+00  0.88636577675E+03  0.88636577675E+03  0.00000000000E+00 0.  1.
         21   -1    0    0  505  502  0.00000000000E+00 -0.00000000000E+00 -0.38350156378E+03  0.38350156378E+03  0.00000000000E+00 0.  1.
         21    1    1    2  503  504 -0.94701346997E+02 -0.37160895575E+01 -0.31943885863E+01  0.94828047344E+02  0.00000000000E+00 0.  1.
         21    1    1    2  504  502 -0.10633617524E+02 -0.30790069283E+02 -0.27594099372E+03  0.27785703915E+03  0.00000000000E+00 0.  1.
         21    1    1    2  505  501 -0.15022118789E+02 -0.29421604999E+02 -0.46782366938E+02  0.57270278068E+02  0.00000000000E+00 0.  1.
          2    1    1    2  501    0  0.12035708331E+03  0.63927763840E+02  0.82878196222E+03  0.83991197598E+03  0.00000000000E+00 0.  1.
<scales pt_clust_3="131.15799" pt_clust_4="32.57456" pt_clust_5="48.82801" pt_clust_6="14000.00000"></scales>
<clustering>
<clus scale="   32.575">  2  4  1 -1</clus>
<clus scale="   48.828">  2  5  1 -1</clus>
<clus scale="  131.158">  2  3  1 -1</clus>
<clus scale="   32.575">  2  3  1 -1</clus>
</clustering>
</event>
<event>
 6    0  0.1631680E+002  0.1006897E+03  0.7546771E-02  0.1278852E+00
         21   -1    0    0  505  502  0.00000000000E+00  0.00000000000E+00  0.38864425554E+03  0.38864425554E+03  0.00000000000E+00 0. -1.
          2   -1    0    0  504    0 -0.00000000000E+00 -0.00000000000E+00 -0.27339914531E+03  0.27339914531E+03  0.00000000000E+00 0. -1.
         21    1    1    2  503  502 -0.28654409989E+02 -0.29830772065E+02 -0.16593346151E+02  0.44567805760E+02  0.00000000000E+00 0.  1.
         21    1    1    2  504  503  0.14756730972E+02  0.28564041972E+02 -0.70848701344E+02  0.77802339842E+02  0.00000000000E+00 0. -1.
         21    1    1    2  505  501  0.52983698849E+02  0.86037174615E+02  0.35054343776E+03  0.36481552806E+03  0.00000000000E+00 0. -1.
          2    1    1    2  501    0 -0.39086019832E+02 -0.84770444522E+02 -0.14785628004E+03  0.17485772719E+03  0.00000000000E+00 0. -1.
<scales pt_clust_3="36.65578" pt_clust_4="32.15067" pt_clust_5="100.68969" pt_clust_6="14000.00000"></scales>
<clustering>
<clus scale="   32.151">  2  4  1 -1</clus>
<clus scale="   36.656">  2  3  1 -1</clus>
<clus scale="  100.690">  1  5  2 -1</clus>
<clus scale="  100.690">  1  3  2 -1</clus>
</clustering>
</event>
<event>
 6    0  0.1631680E+002  0.1213674E+03  0.7546771E-02  0.1240858E+00
         21   -1    0    0  503  502  0.00000000000E+00  0.00000000000E+00  0.10133571279E+04  0.10133571279E+04  0.00000000000E+00 0. -1.
         -2   -1    0    0    0  501 -0.00000000000E+00 -0.00000000000E+00 -0.23854125670E+04  0.23854125670E+04  0.00000000000E+00 0. -1.
         21    1    1    2  503  504 -0.11181785232E+03  0.18063620613E+02  0.15293419989E+03  0.19031131334E+03  0.00000000000E+00 0.  1.
         21    1    1    2  504  501  0.26285302050E+02  0.20974030389E+02 -0.42810685372E+02  0.54438789817E+02  0.00000000000E+00 0. -1.
         21    1    1    2  505  502  0.89164650470E+01  0.47871184776E+02  0.83376185175E+03  0.83518260225E+03  0.00000000000E+00 0. -1.
         -2    1    1    2    0  505  0.76616085218E+02 -0.86908835778E+02 -0.23159408054E+04  0.23188369896E+04  0.00000000000E+00 0. -1.
<scales pt_clust_3="121.36744" pt_clust_4="33.62777" pt_clust_5="48.70223" pt_clust_6="14000.00000"></scales>
<clustering>
<clus scale="   33.628">  2  4  1 -1</clus>
<clus scale="   48.702">  1  5  2 -1</clus>
<clus scale="  121.367">  1  3  2 -1</clus>
<clus scale="   48.702">  1  3  2 -1</clus>
</clustering>
</event>
<event>
 6    0  0.1631680E+002  0.8052954E+02  0.7546771E-02  0.1327555E+00
         -4   -1    0    0    0  501 -0.00000000000E+00  0.00000000000E+00  0.20862090121E+04  0.20862090121E+04  0.00000000000E+00 0.  1.
         21   -1    0    0  503  502  0.00000000000E+00 -0.00000000000E+00 -0.19193845792E+03  0.19193845792E+03  0.00000000000E+00 0.  1.
         21    1    1    2  503  505 -0.77481742409E+02  0.14978267824E+02 -0.16653841631E+03  0.18429002420E+03  0.00000000000E+00 0.  1.
         21    1    1    2  504  502  0.14800007722E+03 -0.52707799940E+02  0.39685127187E+03  0.42681736963E+03  0.00000000000E+00 0. -1.
         21    1    1    2  505  501 -0.21073359330E+02  0.32500960084E+02  0.34905283896E+03  0.35119550576E+03  0.00000000000E+00 0. -1.
         -4    1    1    2    0  504 -0.49444975485E+02  0.52285720317E+01  0.13149048597E+04  0.13158445704E+04  0.00000000000E+00 0.  1.
<scales pt_clust_3="80.52954" pt_clust_4="14000.00000" pt_clust_5="38.73498" pt_clust_6="71.90205"></scales>
<clustering>
<clus scale="   38.735">  1  5  2 -1</clus>
<clus scale="   71.902">  1  6  2 -1</clus>
<clus scale="   80.530">  2  3  1 -1</clus>
<clus scale="   80.530">  2  3  1 -1</clus>
</clustering>
</event>
<event>
 6    0  0.1631680E+002  0.1096256E+03  0.7546771E-02  0.1261265E+00
          1   -1    0    0  505    0 -0.00000000000E+00  0.00000000000E+00  0.11074454270E+04  0.11074454270E+04  0.00000000000E+00 0.  1.
         21   -1    0    0  504  502  0.00000000000E+00 -0.00000000000E+00 -0.43916764878E+02  0.43916764878E+02  0.00000000000E+00 0.  1.
         21    1    1    2  503  502  0.28182718954E+02 -0.18749647531E+02 -0.92419991917E+01  0.35088879709E+02  0.00000000000E+00 0.  1.
         21    1    1    2  504  501 -0.10991172667E+02 -0.29561509840E+02  0.15812203171E+02  0.35280511756E+02  0.00000000000E+00 0.  1.
         21    1    1    2  505  503  0.61249978764E+02 -0.64030609014E+02  0.36525954293E+03  0.37585371156E+03  0.00000000000E+00 0.  1.
          1    1    1    2  501    0 -0.78441525051E+02  0.11234176639E+03  0.69169891524E+03  0.70513908888E+03  0.00000000000E+00 0.  1.
<scales pt_clust_3="43.37229" pt_clust_4="31.53869" pt_clust_5="14000.00000" pt_clust_6="109.62561"></scales>
<clustering>
<clus scale="   31.539">  2  4  1 -1</clus>
<clus scale="   43.372">  2  3  1 -1</clus>
<clus scale="  109.626">  2  6  1 -1</clus>
<clus scale="   31.539">  2  3  1 -1</clus>
</clustering>
</event>
<event>
 6    0  0.1631680E+002  0.9902667E+02  0.7546771E-02  0.1282356E+00
          2   -1    0    0  505    0 -0.00000000000E+00  0.00000000000E+00  0.34915103304E+02  0.34915103304E+02  0.00000000000E+00 0. -1.
         21   -1    0    0  503  502  0.00000000000E+00 -0.00000000000E+00 -0.29597614426E+04  0.29597614426E+04  0.00000000000E+00 0. -1.
         21    1    1    2  503  501 -0.85797962587E+02 -0.27175282036E+02 -0.80704769537E+03  0.81205034877E+03  0.00000000000E+00 0. -1.
         21    1    1    2  504  502  0.98277904620E+02 -0.68436615795E+02 -0.19294753808E+04  0.19331883928E+04  0.00000000000E+00 0. -1.
         21    1    1    2  505  504  0.39473735079E+02 -0.12407059054E+02 -0.31240859501E+02  0.51846910976E+02  0.00000000000E+00 0.  1.
          2    1    1    2  501    0 -0.51953677112E+02  0.10801895688E+03 -0.15708240363E+03  0.19759089337E+03  0.00000000000E+00 0. -1.
<scales pt_clust_3="86.58873" pt_clust_4="14000.00000" pt_clust_5="41.37766" pt_clust_6="99.02667"></scales>
<clustering>
<clus scale="   41.378">  1  5  2 -1</clus>
<clus scale="   86.589">  2  3  1 -1</clus>
<clus scale="   99.027">  1  6  2 -1</clus>
<clus scale="   86.589">  2  3  1 -1</clus>
</clustering>
</event>
<event>
 6    0  0.1631680E+002  0.1919000E+03  0.7546771E-02  0.1156759E+00
         21   -1    0    0  501  502  0.00000000000E+00  0.00000000000E+00  0.19843488381E+03  0.19843488381E+03  0.00000000000E+00 0. -1.
          1   -1    0    0  505    0 -0.00000000000E+00 -0.00000000000E+00 -0.18716582812E+04  0.18716582812E+04  0.00000000000E+00 0.  1.
         21    1    1    2  503  502  0.48637336138E+02  0.36112866917E+02  0.50020207312E+02  0.78560491108E+02  0.00000000000E+00 0. -1.
         21    1    1    2  504  503  0.14825285956E+03  0.27393794084E+02  0.39648514513E+02  0.15588885471E+03  0.00000000000E+00 0. -1.
         21    1    1    2  505  504 -0.61086131662E+02 -0.13360928998E+03 -0.16192648617E+04  0.16259156344E+04  0.00000000000E+00 0.  1.
          1    1    1    2  501    0 -0.13580406403E+03  0.70102628978E+02 -0.14362725753E+03  0.20972818481E+03  0.00000000000E+00 0.  1.
<scales pt_clust_3="40.72284" pt_clust_4="40.72284" pt_clust_5="146.91139" pt_clust_6="180.82711"></scales>
<clustering>
<clus scale="   40.723">  3  4 -1 -1</clus>
<clus scale="  146.911">  2  5  1 -1</clus>
<clus scale="  180.827">  2  6  1 -1</clus>
<clus scale="  191.900">  1  3  2 -1</clus>
</clustering>
</event>
<event>
 6    0  0.1631680E+002  0.9833051E+02  0.7546771E-02  0.1283846E+00
         21   -1    0    0  505  502  0.00000000000E+00  0.00000000000E+00  0.11026087880E+03  0.11026087880E+03  0.00000000000E+00 0.  1.
          1   -1    0    0  503    0 -0.00000000000E+00 -0.00000000000E+00 -0.39436992525E+04  0.39436992525E+04  0.00000000000E+00 0. -1.
         21    1    1    2  503  502 -0.11058852334E+02  0.30532430378E+02 -0.40392540624E+03  0.40522865314E+03  0.00000000000E+00 0. -1.
         21    1    1    2  504  501  0.73365414476E+02 -0.47403289809E+02 -0.10834812141E+04  0.10869963648E+04  0.00000000000E+00 0. -1.
         21    1    1    2  505  504  0.37510904161E+02 -0.89535133636E+01  0.10328469672E+03  0.11024954380E+03  0.00000000000E+00 0.  1.
          1    1    1    2  501    0 -0.99817466303E+02  0.25824372794E+02 -0.24493164502E+04  0.24514855696E+04  0.00000000000E+00 0. -1.
<scales pt_clust_3="32.47349" pt_clust_4="98.33051" pt_clust_5="38.54711" pt_clust_6="14000.00000"></scales>
<clustering>
<clus scale="   32.473">  2  3  1 -1</clus>
<clus scale="   38.547">  1  5  2 -1</clus>
<clus scale="   98.331">  1  4  2 -1</clus>
<clus scale="   38.547">  1  3  2 -1</clus>
</clustering>
</event>
<event>
 6    0  0.1631680E+002  0.3290939E+03  0.7546771E-02  0.1071538E+00
         21   -1    0    0  503  502  0.00000000000E+00  0.00000000000E+00  0.55636602140E+03  0.55636602140E+03  0.00000000000E+00 0.  1.
         -2   -1    0    0    0  501 -0.00000000000E+00 -0.00000000000E+00 -0.12207916698E+04  0.12207916698E+04  0.00000000000E+00 0.  1.
         21    1    1    2  503  505  0.37658122105E+02 -0.12432981494E+01  0.34757374118E+03  0.34961004778E+03  0.00000000000E+00 0.  1.
         21    1    1    2  504  501  0.31850532727E+02  0.47697698691E+01 -0.69087148991E+03  0.69162173383E+03  0.00000000000E+00 0.  1.
         21    1    1    2  505  504  0.69980466686E+02 -0.31398453362E+03 -0.16311497171E+03  0.36067997875E+03  0.00000000000E+00 0.  1.
         -2    1    1    2    0  502 -0.13948912152E+03  0.31045806190E+03 -0.15801292798E+03  0.37524593087E+03  0.00000000000E+00 0.  1.
<scales pt_clust_3="37.73955" pt_clust_4="32.20570" pt_clust_5="329.09394" pt_clust_6="14000.00000"></scales>
<clustering>
<clus scale="   32.206">  2  4  1 -1</clus>
<clus scale="   37.740">  1  3  2 -1</clus>
<clus scale="  329.094">  2  5  1 -1</clus>
<clus scale="   37.740">  1  3  2 -1</clus>
</clustering>
</event>
<event>
 6    0  0.1631680E+002  0.5989357E+02  0.7546771E-02  0.1398279E+00
          2   -1    0    0  505    0 -0.00000000000E+00  0.00000000000E+00  0.17037506868E+04  0.17037506868E+04  0.00000000000E+00 0.  1.
         21   -1    0    0  504  502  0.00000000000E+00 -0.00000000000E+00 -0.22093318194E+03  0.22093318194E+03  0.00000000000E+00 0. -1.
         21    1    1    2  503  502 -0.62012804904E+02 -0.16410357625E+01 -0.18957559337E+03  0.19946725689E+03  0.00000000000E+00 0. -1.
         21    1    1    2  504  501  0.35054157211E+02  0.56010162749E+02  0.26103690799E+02  0.71044598262E+02  0.00000000000E+00 0.  1.
         21    1    1    2  505  503  0.44781995645E+02  0.38448282801E+02  0.40350552095E+03  0.40779946423E+03  0.00000000000E+00 0. -1.
          2    1    1    2  501    0 -0.17823347951E+02 -0.92817409787E+02  0.12427838865E+04  0.12463725494E+04  0.00000000000E+00 0.  1.
<scales pt_clust_3="59.89357" pt_clust_4="14000.00000" pt_clust_5="59.02286" pt_clust_6="61.33119"></scales>
<clustering>
<clus scale="   59.023">  1  5  2 -1</clus>
<clus scale="   61.331">  1  6  2 -1</clus>
<clus scale="   59.894">  2  3  1 -1</clus>
<clus scale="   59.894">  2  3  1 -1</clus>
</clustering>
</event>
<event>
 6    0  0.1631680E+002  0.1271944E+03  0.7546771E-02  0.1231679E+00
         21   -1    0    0  505  502  0.00000000000E+00  0.00000000000E+00  0.71654517941E+03  0.71654517941E+03  0.00000000000E+00 0.  1.
          2   -1    0    0  503    0 -0.00000000000E+00 -0.00000000000E+00 -0.51638775221E+03  0.51638775221E+03  0.00000000000E+00 0.  1.
         21    1    1    2  503  504 -0.79739718202E+02 -0.13354266109E+02 -0.63898291565E+02  0.10305217488E+03  0.00000000000E+00 0. -1.
         21    1    1    2  504  502  0.29648575191E+02  0.39610284969E+02  0.43625472262E+03  0.43905147272E+03  0.00000000000E+00 0.  1.
         21    1    1    2  505  501 -0.96336923896E+02  0.69567800899E+02  0.22629892071E+03  0.25560063252E+03  0.00000000000E+00 0.  1.
          2    1    1    2  501    0  0.14642806691E+03 -0.95823819758E+02 -0.39849792456E+03  0.43522865150E+03  0.00000000000E+00 0.  1.
<scales pt_clust_3="78.37507" pt_clust_4="49.47740" pt_clust_5="14000.00000" pt_clust_6="127.19437"></scales>
<clustering>
<clus scale="   49.477">  1  4  2 -1</clus>
<clus scale="   78.375">  2  3  1 -1</clus>
<clus scale="  127.194">  2  6  1 -1</clus>
<clus scale="   49.477">  1  3  2 -1</clus>
</clustering>
</event>
<event>
 6    0  0.1631680E+002  0.6146512E+02  0.7546771E-02  0.1391784E+00
          1   -1    0    0  503    0 -0.00000000000E+00  0.00000000000E+00  0.11260172675E+04  0.11260172675E+04  0.00000000000E+00 0. -1.
         21   -1    0    0  504  502  0.00000000000E+00 -0.00000000000E+00 -0.89050605621E+02  0.89050605621E+02  0.00000000000E+00 0. -1.
         21    1    1    2  503  505  0.24110006663E+02  0.36316874282E+02  0.15876779622E+03  0.16464331415E+03  0.00000000000E+00 0. -1.
         21    1    1    2  504  501  0.11558088117E+02 -0.49039136643E+02 -0.23151775513E+02  0.55447552092E+02  0.00000000000E+00 0. -1.
         21    1    1    2  505  502 -0.58131234856E+02  0.83305473611E+02  0.11706940995E+02  0.10225504812E+03  0.00000000000E+00 0. -1.
          1    1    1    2  501    0  0.22463140075E+02 -0.70583211250E+02  0.88964370019E+03  0.89272195877E+03  0.00000000000E+00 0. -1.
<scales pt_clust_3="43.59137" pt_clust_4="49.88633" pt_clust_5="61.46512" pt_clust_6="14000.00000"></scales>
<clustering>
<clus scale="   43.591">  1  3  2 -1</clus>
<clus scale="   49.886">  2  4  1 -1</clus>
<clus scale="   61.465">  2  5  1 -1</clus>
<clus scale="   49.886">  2  3  1 -1</clus>
</clustering>
</event>
<event>
 6    0  0.1631680E+002  0.8060004E+02  0.7546771E-02  0.1327357E+00
         21   -1    0    0  505  502  0.00000000000E+00  0.00000000000E+00  0.47928544212E+02  0.47928544212E+02  0.00000000000E+00 0. -1.
          2   -1    0    0  504    0 -0.00000000000E+00 -0.00000000000E+00 -0.37510344551E+04  0.37510344551E+04  0.00000000000E+00 0.  1.
         21    1    1    2  503  502  0.58796839590E+02 -0.76633772347E+02 -0.59337230368E+02  0.11336097352E+03  0.00000000000E+00 0. -1.
         21    1    1    2  504  503 -0.94995247587E+02  0.89032975048E+02 -0.21394503823E+04  0.21434082453E+04  0.00000000000E+00 0.  1.
         21    1    1    2  505  501 -0.30057633093E+02  0.44081698594E+01  0.54625457798E+01  0.30866368025E+02  0.00000000000E+00 0.  1.
          2    1    1    2  501    0  0.66256041090E+02 -0.16807372561E+02 -0.15097808440E+04  0.15113274125E+04  0.00000000000E+00 0.  1.
<scales pt_clust_3="14000.00000" pt_clust_4="80.60004" pt_clust_5="30.37916" pt_clust_6="67.56955"></scales>
<clustering>
<clus scale="   30.379">  1  5  2 -1</clus>
<clus scale="   67.570">  2  6  1 -1</clus>
<clus scale="   80.600">  2  4  1 -1</clus>
<clus scale="   30.379">  1  3  2 -1</clus>
</clustering>
</event>
<event>
 6    0  0.1631680E+002  0.2896719E+03  0.7546771E-02  0.1090521E+00
          2   -1    0    0  504    0 -0.00000000000E+00  0.00000000000E+00  0.73270876287E+03  0.73270876287E+03  0.00000000000E+00 0. -1.
         21   -1    0    0  501  502  0.00000000000E+00 -0.00000000000E+00 -0.69456525824E+03  0.69456525824E+03  0.00000000000E+00 0.  1.
         21    1    1    2  503  505  0.23001392360E+03 -0.56373120244E+01 -0.27092930661E+03  0.35544461385E+03  0.00000000000E+00 0. -1.
         21    1    1    2  504  503 -0.26651056129E+02  0.29082524299E+02  0.26778740172E+02  0.47677803406E+02  0.00000000000E+00 0. -1.
         21    1    1    2  505  502  0.57554967288E+02 -0.87201065195E+02 -0.33502068459E+03  0.35093512097E+03  0.00000000000E+00 0.  1.
          2    1    1    2  501    0 -0.26091783476E+03  0.63755852920E+02  0.61731475565E+03  0.67321648288E+03  0.00000000000E+00 0. -1.
<scales pt_clust_3="14000.00000" pt_clust_4="39.44708" pt_clust_5="104.03688" pt_clust_6="289.67192"></scales>
<clustering>
<clus scale="   39.447">  1  4  2 -1</clus>
<clus scale="  104.037">  2  5  1 -1</clus>
<clus scale="  289.672">  1  6  2 -1</clus>
<clus scale="  104.037">  2  3  1 -1</clus>
</clustering>
</event>
<event>
 6    0  0.1631680E+002  0.1400680E+03  0.7546771E-02  0.1213238E+00
         21   -1    0    0  504  502  0.00000000000E+00  0.00000000000E+00  0.97993499767E+02  0.97993499767E+02  0.00000000000E+00 0.  1.
          1   -1    0    0  505    0 -0.00000000000E+00 -0.00000000000E+00 -0.55045617484E+03  0.55045617484E+03  0.00000000000E+00 0.  1.
         21    1    1    2  503  501 -0.41098424454E+02  0.12743838569E+03 -0.17742131726E+03  0.22227898339E+03  0.00000000000E+00 0.  1.
         21    1    1    2  504  503 -0.26153470419E+02 -0.23582784509E+02  0.34583274410E+02  0.49357416961E+02  0.00000000000E+00 0.  1.
         21    1    1    2  505  502 -0.40933112610E+02  0.34379587496E+01 -0.12564131683E+02  0.42955752505E+02  0.00000000000E+00 0.  1.
          1    1    1    2  501    0  0.10818500748E+03 -0.10729355993E+03 -0.29706050055E+03  0.33385752175E+03  0.00000000000E+00 0.  1.
<scales pt_clust_3="140.06795" pt_clust_4="35.21579" pt_clust_5="48.11807" pt_clust_6="14000.00000"></scales>
<clustering>
<clus scale="   35.216">  1  4  2 -1</clus>
<clus scale="   48.118">  1  5  2 -1</clus>
<clus scale="  140.068">  1  3  2 -1</clus>
<clus scale="   35.216">  1  3  2 -1</clus>
</clustering>
</event>
<event>
 6    0  0.1631680E+002  0.1048703E+03  0.7546771E-02  0.1270375E+00
         21   -1    0    0  503  502  0.00000000000E+00  0.00000000000E+00  0.77998408605E+03  0.77998408605E+03  0.00000000000E+00 0. -1.
          3   -1    0    0  504    0 -0.00000000000E+00 -0.00000000000E+00 -0.40423417301E+03  0.40423417301E+03  0.00000000000E+00 0. -1.
         21    1    1    2  503  501  0.43309570726E+02  0.12041949336E+02 -0.67840560083E+01  0.45461531829E+02  0.00000000000E+00 0. -1.
         21    1    1    2  504  505  0.41929756163E+02  0.90749268993E+02  0.79390506479E+02  0.12765730216E+03  0.00000000000E+00 0. -1.
         21    1    1    2  505  502 -0.40508795697E+02 -0.75286366160E+01  0.64863094825E+03  0.64993826624E+03  0.00000000000E+00 0. -1.
          3    1    1    2  501    0 -0.44730531192E+02 -0.95262581713E+02 -0.34548748568E+03  0.36116115884E+03  0.00000000000E+00 0. -1.
<scales pt_clust_3="38.88298" pt_clust_4="14000.00000" pt_clust_5="41.20246" pt_clust_6="104.87027"></scales>
<clustering>
<clus scale="   41.202">  1  5  2 -1</clus>
<clus scale="   38.883">  1  3  2 -1</clus>
<clus scale="  104.870">  2  6  1 -1</clus>
<clus scale="   41.202">  1  3  2 -1</clus>
</clustering>
</event>
<event>
 6    0  0.1631680E+002  0.1040009E+03  0.7546771E-02  0.1272101E+00
          4   -1    0    0  505    0 -0.00000000000E+00  0.00000000000E+00  0.15364634188E+03  0.15364634188E+03  0.00000000000E+00 0. -1.
         21   -1    0    0  503  502  0.00000000000E+00 -0.00000000000E+00 -0.14525882212E+04  0.14525882212E+04  0.00000000000E+00 0. -1.
         21    1    1    2  503  501 -0.72191090183E+02  0.32795476167E+02 -0.48740813737E+02  0.93073968878E+02  0.00000000000E+00 0.  1.
         21    1    1    2  504  502 -0.16494291307E+02  0.27578492532E+02 -0.11604772159E+04  0.11609220489E+04  0.00000000000E+00 0. -1.
         21    1    1    2  505  504  0.17460528469E+03 -0.14063219172E+02 -0.15574936025E+03  0.23439847011E+03  0.00000000000E+00 0. -1.
          4    1    1    2  501    0 -0.85919903196E+02 -0.46310749526E+02  0.66025510559E+02  0.11784007524E+03  0.00000000000E+00 0. -1.
<scales pt_clust_3="85.82534" pt_clust_4="32.13464" pt_clust_5="104.00094" pt_clust_6="14000.00000"></scales>
<clustering>
<clus scale="   32.135">  2  4  1 -1</clus>
<clus scale="   85.825">  2  3  1 -1</clus>
<clus scale="  104.001">  2  5  1 -1</clus>
<clus scale="   32.135">  2  3  1 -1</clus>
</clustering>
</event>
<event>
 6    0  0.1631680E+002  0.4115432E+03  0.7546771E-02  0.1039854E+00
          2   -1    0    0  504    0 -0.00000000000E+00  0.00000000000E+00  0.24466098794E+04  0.24466098794E+04  0.00000000000E+00 0.  1.
         21   -1    0    0  501  502  0.00000000000E+00 -0.00000000000E+00 -0.93300983415E+02  0.93300983415E+02  0.00000000000E+00 0.  1.
         21    1    1    2  503  505  0.17085575113E+03  0.29247490777E+03  0.58191216310E+03  0.67331643745E+03  0.00000000000E+00 0.  1.
         21    1    1    2  504  503  0.35469543664E+02  0.45725419050E+02  0.20824627934E+03  0.21613749174E+03  0.00000000000E+00 0.  1.
         21    1    1    2  505  502 -0.38032275350E+02  0.26891839935E+02  0.12058810868E+02  0.48114861976E+02  0.00000000000E+00 0.  1.
          2    1    1    2  501    0 -0.16829301944E+03 -0.36509216676E+03  0.15510916427E+04  0.16023420717E+04  0.00000000000E+00 0.  1.
<scales pt_clust_3="40.97730" pt_clust_4="40.97730" pt_clust_5="46.57923" pt_clust_6="399.42393"></scales>
<clustering>
<clus scale="   40.977">  3  4 -1 -1</clus>
<clus scale="   46.579">  2  5  1 -1</clus>
<clus scale="  399.424">  1  6  2 -1</clus>
<clus scale="   46.579">  2  3  1 -1</clus>
</clustering>
</event>
<event>
 6    0  0.1631680E+002  0.9541532E+02  0.7546771E-02  0.1290243E+00
         21   -1    0    0  501  502  0.00000000000E+00  0.00000000000E+00  0.49775470356E+03  0.49775470356E+03  0.00000000000E+00 0.  1.
          2   -1    0    0  503    0 -0.00000000000E+00 -0.00000000000E+00 -0.29696919756E+04  0.29696919756E+04  0.00000000000E+00 0.  1.
         21    1    1    2  503  505 -0.37036458489E+01  0.32340927172E+02 -0.57192401784E+03  0.57284966156E+03  0.00000000000E+00 0. -1.
         21    1    1    2  504  502 -0.43283580600E+01  0.10178956951E+03  0.42519130800E+03  0.43722705720E+03  0.00000000000E+00 0.  1.
         21    1    1    2  505  504 -0.74801112473E+02 -0.57175401201E+02  0.30489740151E+02  0.98963918597E+02  0.00000000000E+00 0.  1.
          2    1    1    2  501    0  0.82833116382E+02 -0.76955095483E+02 -0.23556943024E+04  0.23584060419E+04  0.00000000000E+00 0.  1.
<scales pt_clust_3="32.55231" pt_clust_4="95.41532" pt_clust_5="14000.00000" pt_clust_6="91.16191"></scales>
<clustering>
<clus scale="   32.552">  2  3  1 -1</clus>
<clus scale="   91.162">  2  6  1 -1</clus>
<clus scale="   95.415">  1  4  2 -1</clus>
<clus scale="   95.415">  1  3  2 -1</clus>
</clustering>
</event>
<event>
 6    0  0.1631680E+002  0.6557655E+02  0.7546771E-02  0.1375816E+00
         21   -1    0    0  504  502  0.00000000000E+00  0.00000000000E+00  0.21794995002E+02  0.21794995002E+02  0.00000000000E+00 0. -1.
          1   -1    0    0  503    0 -0.00000000000E+00 -0.00000000000E+00 -0.25709387304E+04  0.25709387304E+04  0.00000000000E+00 0.  1.
         21    1    1    2  503  502 -0.45422681783E+02 -0.55506532462E+02 -0.59335132933E+03  0.59767047374E+03  0.00000000000E+00 0.  1.
         21    1    1    2  504  505 -0.44030558881E+02  0.82223912079E+01 -0.14479942325E+02  0.47074054024E+02  0.00000000000E+00 0. -1.
         21    1    1    2  505  501  0.20261412005E+02  0.62661651516E+02 -0.42983496555E+03  0.43485066977E+03  0.00000000000E+00 0. -1.
          1    1    1    2  501    0  0.69191828659E+02 -0.15377510262E+02 -0.15114774982E+04  0.15131385278E+04  0.00000000000E+00 0.  1.
<scales pt_clust_3="65.57655" pt_clust_4="44.79172" pt_clust_5="14000.00000" pt_clust_6="64.11815"></scales>
<clustering>
<clus scale="   44.792">  1  4  2 -1</clus>
<clus scale="   64.118">  2  6  1 -1</clus>
<clus scale="   65.577">  2  3  1 -1</clus>
<clus scale="   44.792">  1  3  2 -1</clus>
</clustering>
</event>
<event>
 6    0  0.1631680E+002  0.8276669E+02  0.7546771E-02  0.1321378E+00
          2   -1    0    0  504    0 -0.00000000000E+00  0.00000000000E+00  0.18240979866E+04  0.18240979866E+04  0.00000000000E+00 0. -1.
         21   -1    0    0  503  502  0.00000000000E+00 -0.00000000000E+00 -0.31513289517E+02  0.31513289517E+02  0.00000000000E+00 0.  1.
         21    1    1    2  503  505 -0.82025677878E+00 -0.45053725469E+02 -0.30773431974E+01  0.45166149283E+02  0.00000000000E+00 0.  1.
         21    1    1    2  504  502  0.17431973506E+02 -0.24665128005E+02  0.35186019324E+03  0.35315412758E+03  0.00000000000E+00 0. -1.
         21    1    1    2  505  501  0.47773942819E+02  0.10387549634E+03  0.63494707063E+03  0.64515908956E+03  0.00000000000E+00 0.  1.
          2    1    1    2  501    0 -0.64385659547E+02 -0.34156642867E+02  0.80885477640E+03  0.81213190968E+03  0.00000000000E+00 0. -1.
<scales pt_clust_3="45.41004" pt_clust_4="30.20335" pt_clust_5="14000.00000" pt_clust_6="82.76669"></scales>
<clustering>
<clus scale="   30.203">  1  4  2 -1</clus>
<clus scale="   45.410">  2  3  1 -1</clus>
<clus scale="   82.767">  1  6  2 -1</clus>
<clus scale="   45.410">  2  3  1 -1</clus>
</clustering>
</event>
<event>
 6    0  0.1631680E+002  0.6340463E+02  0.7546771E-02  0.1384075E+00
         -4   -1    0    0    0  501 -0.00000000000E+00  0.00000000000E+00  0.15524927697E+03  0.15524927697E+03  0.00000000000E+00 0.  1.
         21   -1    0    0  503  502  0.00000000000E+00 -0.00000000000E+00 -0.35854938232E+03  0.35854938232E+03  0.00000000000E+00 0.  1.
         21    1    1    2  503  505 -0.37851885332E+02 -0.36153605012E+02 -0.65358350433E+02  0.83735072401E+02  0.00000000000E+00 0.  1.
         21    1    1    2  504  502  0.88818241758E+02  0.18303691401E+02 -0.23802783263E+03  0.25471740085E+03  0.00000000000E+00 0.  1.
         21    1    1    2  505  501 -0.91245975330E+02  0.81833646728E+01  0.34741892037E+02  0.97978541189E+02  0.00000000000E+00 0.  1.
         -4    1    1    2    0  504  0.40279618904E+02  0.96665489385E+01  0.65344185679E+02  0.77367644849E+02  0.00000000000E+00 0.  1.
<scales pt_clust_3="48.47581" pt_clust_4="63.40463" pt_clust_5="14000.00000" pt_clust_6="41.42330"></scales>
<clustering>
<clus scale="   41.423">  1  6  2 -1</clus>
<clus scale="   48.476">  2  3  1 -1</clus>
<clus scale="   63.405">  2  4  1 -1</clus>
<clus scale="   48.476">  2  3  1 -1</clus>
</clustering>
</event>
<event>
 6    0  0.1631680E+002  0.1468379E+03  0.7546771E-02  0.1204413E+00
         21   -1    0    0  505  502  0.00000000000E+00  0.00000000000E+00  0.10159649643E+03  0.10159649643E+03  0.00000000000E+00 0.  1.
          1   -1    0    0  503    0 -0.00000000000E+00 -0.00000000000E+00 -0.17800535307E+04  0.17800535307E+04  0.00000000000E+00 0. -1.
         21    1    1    2  503  504 -0.10267963337E+03  0.28193682331E+02 -0.36560870864E+03  0.38079879026E+03  0.00000000000E+00 0.  1.
         21    1    1    2  504  502 -0.37738377923E+02  0.39075053810E+02 -0.27460208911E+03  0.27992383311E+03  0.00000000000E+00 0.  1.
         21    1    1    2  505  501  0.35325587964E+02  0.13476381347E+02  0.83352006692E+02  0.91526318832E+02  0.00000000000E+00 0.  1.
          1    1    1    2  501    0  0.10509242333E+03 -0.80745117488E+02 -0.11215982432E+04  0.11294010849E+04  0.00000000000E+00 0. -1.
<scales pt_clust_3="35.29817" pt_clust_4="35.29817" pt_clust_5="37.80886" pt_clust_6="138.27198"></scales>
<clustering>
<clus scale="   35.298">  3  4 -1 -1</clus>
<clus scale="   37.809">  1  5  2 -1</clus>
<clus scale="  138.272">  2  6  1 -1</clus>
<clus scale="   37.809">  1  3  2 -1</clus>
</clustering>
</event>
<event>
 6    0  0.1631680E+002  0.1101219E+03  0.7546771E-02  0.1260344E+00
         21   -1    0    0  505  502  0.00000000000E+00  0.00000000000E+00  0.38134791322E+03  0.38134791322E+03  0.00000000000E+00 0. -1.
          2   -1    0    0  504    0 -0.00000000000E+00 -0.00000000000E+00 -0.19867669584E+04  0.19867669584E+04  0.00000000000E+00 0.  1.
         21    1    1    2  503  502  0.10865955677E+03  0.12797490509E+02 -0.62209247259E+02  0.12585970557E+03  0.00000000000E+00 0. -1.
         21    1    1    2  504  503  0.14763795653E+02 -0.36251164734E+02 -0.10867094869E+04  0.10874141922E+04  0.00000000000E+00 0. -1.
         21    1    1    2  505  501 -0.68785991549E+02  0.92680603273E+02  0.33712287131E+03  0.35633276192E+03  0.00000000000E+00 0. -1.
          2    1    1    2  501    0 -0.54637360874E+02 -0.69226929048E+02 -0.79362318231E+03  0.79850821186E+03  0.00000000000E+00 0.  1.
<scales pt_clust_3="14000.00000" pt_clust_4="39.14226" pt_clust_5="110.12187" pt_clust_6="109.50141"></scales>
<clustering>
<clus scale="   39.142">  2  4  1 -1</clus>
<clus scale="  109.501">  2  6  1 -1</clus>
<clus scale="  110.122">  1  5  2 -1</clus>
<clus scale="  110.122">  1  3  2 -1</clus>
</clustering>
</event>
<event>
 6    0  0.1631680E+002  0.1351321E+03  0.7546771E-02  0.1220033E+00
         21   -1    0    0  501  502  0.00000000000E+00  0.00000000000E+00  0.37450574038E+02  0.37450574038E+02  0.00000000000E+00 0. -1.
          2   -1    0    0  504    0 -0.00000000000E+00 -0.00000000000E+00 -0.33567451003E+04  0.33567451003E+04  0.00000000000E+00 0.  1.
         21    1    1    2  503  505 -0.28588028342E+02 -0.36082409618E+02 -0.19404454867E+03  0.19943044531E+03  0.00000000000E+00 0.  1.
         21    1    1    2  504  503  0.20997589698E+02  0.39553380636E+02 -0.21081781005E+04  0.21086536634E+04  0.00000000000E+00 0.  1.
         21    1    1    2  505  502  0.33575929416E+02 -0.13168908291E+03 -0.12547720163E+03  0.18496995897E+03  0.00000000000E+00 0. -1.
          2    1    1    2  501    0 -0.25985490773E+02  0.12821811189E+03 -0.89159467543E+03  0.90114160664E+03  0.00000000000E+00 0.  1.
<scales pt_clust_3="39.11479" pt_clust_4="44.78134" pt_clust_5="14000.00000" pt_clust_6="135.13215"></scales>
<clustering>
<clus scale="   44.781">  2  4  1 -1</clus>
<clus scale="   39.115">  2  3  1 -1</clus>
<clus scale="  135.132">  2  6  1 -1</clus>
<clus scale="  135.132">  1  3  2 -1</clus>
</clustering>
</event>
<event>
 6    0  0.1631680E+002  0.9093418E+02  0.7546771E-02  0.1300605E+00
          2   -1    0    0  504    0 -0.00000000000E+00  0.00000000000E+00  0.79001023214E+03  0.79001023214E+03  0.00000000000E+00 0. -1.
         21   -1    0    0  505  502  0.00000000000E+00 -0.00000000000E+00 -0.95032157190E+02  0.95032157190E+02  0.00000000000E+00 0. -1.
         21    1    1    2  503  502 -0.95788776939E+01  0.99931140319E+02  0.18493887038E+02  0.10207845787E+03  0.00000000000E+00 0. -1.
         21    1    1    2  504  503  0.41825516146E+02 -0.20736272674E+02  0.63936033590E+03  0.64106240409E+03  0.00000000000E+00 0. -1.
         21    1    1    2  505  501 -0.39811308185E+02 -0.11213543106E+01 -0.20287742538E+02  0.44696646319E+02  0.00000000000E+00 0. -1.
          2    1    1    2  501    0  0.75646697326E+01 -0.78073513335E+02  0.57411594548E+02  0.97204881056E+02  0.00000000000E+00 0. -1.
<scales pt_clust_3="14000.00000" pt_clust_4="46.20580" pt_clust_5="39.82710" pt_clust_6="90.93418"></scales>
<clustering>
<clus scale="   39.827">  2  5  1 -1</clus>
<clus scale="   46.206">  1  4  2 -1</clus>
<clus scale="   90.934">  1  6  2 -1</clus>
<clus scale="   39.827">  2  3  1 -1</clus>
</clustering>
</event>
<event>
 6    0  0.1631680E+002  0.2325304E+03  0.7546771E-02  0.1124871E+00
          2   -1    0    0  505    0 -0.00000000000E+00  0.00000000000E+00  0.81915011753E+03  0.81915011753E+03  0.00000000000E+00 0.  1.
         21   -1    0    0  504  502  0.00000000000E+00 -0.00000000000E+00 -0.88741322645E+02  0.88741322645E+02  0.00000000000E+00 0.  1.
         21    1    1    2  503  502  0.16136313766E+03  0.76081638906E+02  0.90957864966E+02  0.20024937247E+03  0.00000000000E+00 0.  1.
         21    1    1    2  504  501 -0.19973647146E+02  0.22977735530E+02  0.22942580425E+02  0.38121974069E+02  0.00000000000E+00 0.  1.
         21    1    1    2  505  503  0.41985472964E+02  0.14361524204E+02  0.83650621414E+02  0.94691392325E+02  0.00000000000E+00 0.  1.
          2    1    1    2  501    0 -0.18337496348E+03 -0.11342089864E+03  0.53285772808E+03  0.57482870131E+03  0.00000000000E+00 0.  1.
<scales pt_clust_3="41.81787" pt_clust_4="30.44541" pt_clust_5="41.81787" pt_clust_6="217.02323"></scales>
<clustering>
<clus scale="   30.445">  2  4  1 -1</clus>
<clus scale="   41.818">  3  5 -1 -1</clus>
<clus scale="  217.023">  1  6  2 -1</clus>
<clus scale="   30.445">  2  3  1 -1</clus>
</clustering>
</event>
<event>
 6    0  0.1631680E+002  0.1020523E+03  0.7546771E-02  0.1276039E+00
         21   -1    0    0  503  502  0.00000000000E+00  0.00000000000E+00  0.74484648451E+02  0.74484648451E+02  0.00000000000E+00 0. -1.
          1   -1    0    0  504    0 -0.00000000000E+00 -0.00000000000E+00 -0.17858569370E+04  0.17858569370E+04  0.00000000000E+00 0.  1.
         21    1    1    2  503  501 -0.41389677606E+02 -0.65360115375E+01 -0.19505376272E+03  0.19950387267E+03  0.00000000000E+00 0.  1.
         21    1    1    2  504  505  0.20634753856E+02 -0.70722649614E+02 -0.15615912083E+03  0.17266486978E+03  0.00000000000E+00 0.  1.
         21    1    1    2  505  502 -0.11919365717E+02 -0.30387022241E+02  0.57466917553E+02  0.66090006906E+02  0.00000000000E+00 0. -1.
          1    1    1    2  501    0  0.32674289468E+02  0.10764568339E+03 -0.14176263225E+04  0.14220828361E+04  0.00000000000E+00 0.  1.
<scales pt_clust_3="45.06484" pt_clust_4="14000.00000" pt_clust_5="32.64112" pt_clust_6="102.05229"></scales>
<clustering>
<clus scale="   32.641">  1  5  2 -1</clus>
<clus scale="   45.065">  1  3  2 -1</clus>
<clus scale="  102.052">  2  6  1 -1</clus>
<clus scale="   32.641">  1  3  2 -1</clus>
</clustering>
</event>
<event>
 6    0  0.1631680E+002  0.1198796E+03  0.7546771E-02  0.1243296E+00
          3   -1    0    0  505    0 -0.00000000000E+00  0.00000000000E+00  0.15148315300E+04  0.15148315300E+04  0.00000000000E+00 0.  1.
         21   -1    0    0  504  502  0.00000000000E+00 -0.00000000000E+00 -0.88388357518E+02  0.88388357518E+02  0.00000000000E+00 0.  1.
         21    1    1    2  503  502 -0.25085941774E+02  0.45089073923E+02  0.14815353598E+03  0.15688148165E+03  0.00000000000E+00 0.  1.
         21    1    1    2  504  501  0.41068097124E+02 -0.11752717556E+03 -0.35012640716E+02  0.12932559919E+03  0.00000000000E+00 0.  1.
         21    1    1    2  505  503 -0.33693162925E+02  0.14024954926E+02  0.59703158137E+03  0.59814600035E+03  0.00000000000E+00 0.  1.
          3    1    1    2  501    0  0.17711007575E+02  0.58413146709E+02  0.71627069583E+03  0.71886680630E+03  0.00000000000E+00 0.  1.
<scales pt_clust_3="56.48486" pt_clust_4="14000.00000" pt_clust_5="36.49560" pt_clust_6="119.87957"></scales>
<clustering>
<clus scale="   36.496">  1  5  2 -1</clus>
<clus scale="   56.485">  1  3  2 -1</clus>
<clus scale="  119.880">  1  6  2 -1</clus>
<clus scale="  119.880">  2  3  1 -1</clus>
</clustering>
</event>
<event>
 6    0  0.1631680E+002  0.9834634E+02  0.7546771E-02  0.1283812E+00
          1   -1    0    0  505    0 -0.00000000000E+00  0.00000000000E+00  0.85709245139E+03  0.85709245139E+03  0.00000000000E+00 0. -1.
         21   -1    0    0  504  502  0.00000000000E+00 -0.00000000000E+00 -0.12849532268E+03  0.12849532268E+03  0.00000000000E+00 0. -1.
         21    1    1    2  503  502  0.18224844088E+02  0.42761579961E+02 -0.81925639387E+02  0.94193991590E+02  0.00000000000E+00 0. -1.
         21    1    1    2  504  501 -0.67277612847E+02 -0.12650465477E+03  0.10703376773E+03  0.17884611347E+03  0.00000000000E+00 0. -1.
         21    1    1    2  505  503  0.32566719975E+02  0.13823809471E+02  0.13585655744E+03  0.14038765315E+03  0.00000000000E+00 0. -1.
          1    1    1    2  501    0  0.16486048784E+02  0.69919265341E+02  0.56763244294E+03  0.57216001586E+03  0.00000000000E+00 0. -1.
<scales pt_clust_3="46.70121" pt_clust_4="98.34634" pt_clust_5="35.37922" pt_clust_6="14000.00000"></scales>
<clustering>
<clus scale="   35.379">  1  5  2 -1</clus>
<clus scale="   46.701">  2  3  1 -1</clus>
<clus scale="   98.346">  2  4  1 -1</clus>
<clus scale="   46.701">  2  3  1 -1</clus>
</clustering>
</event>
<event>
 6    0  0.1631680E+002  0.1462468E+03  0.7546771E-02  0.1205162E+00
         21   -1    0    0  505  502  0.00000000000E+00  0.00000000000E+00  0.15669648675E+03  0.15669648675E+03  0.00000000000E+00 0.  1.
          2   -1    0    0  503    0 -0.00000000000E+00 -0.00000000000E+00 -0.12188133724E+04  0.12188133724E+04  0.00000000000E+00 0. -1.
         21    1    1    2  503  504  0.42651011776E+02 -0.73111425177E+01 -0.17627581732E+03  0.18150957380E+03  0.00000000000E+00 0. -1.
         21    1    1    2  504  502  0.12366985182E+03 -0.32973131818E+02  0.35292453934E+02  0.13276677662E+03  0.00000000000E+00 0.  1.
         21    1    1    2  505  501 -0.18785364753E+03  0.75065864433E+02 -0.77538764304E+02  0.21664749448E+03  0.00000000000E+00 0.  1.
          2    1    1    2  501    0  0.21532783939E+02 -0.34781590097E+02 -0.84359475799E+03  0.84458601427E+03  0.00000000000E+00 0. -1.
<scales pt_clust_3="58.08299" pt_clust_4="146.24683" pt_clust_5="14000.00000" pt_clust_6="40.90745"></scales>
<clustering>
<clus scale="   40.907">  2  6  1 -1</clus>
<clus scale="   58.083">  2  3  1 -1</clus>
<clus scale="  146.247">  1  4  2 -1</clus>
<clus scale="  146.247">  1  3  2 -1</clus>
</clustering>
</event>
<event>
 6    0  0.1631680E+002  0.1640677E+03  0.7546771E-02  0.1184179E+00
         21   -1    0    0  505  502  0.00000000000E+00  0.00000000000E+00  0.18927778123E+03  0.18927778123E+03  0.00000000000E+00 0.  1.
         -3   -1    0    0    0  501 -0.00000000000E+00 -0.00000000000E+00 -0.47608644642E+03  0.47608644642E+03  0.00000000000E+00 0.  1.
         21    1    1    2  503  504  0.10158399900E+03 -0.10040888326E+03  0.62919998739E+02  0.15607747734E+03  0.00000000000E+00 0.  1.
         21    1    1    2  504  501  0.47229102335E+02 -0.11931465369E+02 -0.11840978760E+03  0.12803837618E+03  0.00000000000E+00 0.  1.
         21    1    1    2  505  503  0.35748150263E+02  0.16076437363E+02  0.28402111750E+02  0.48405186058E+02  0.00000000000E+00 0.  1.
         -3    1    1    2    0  502 -0.18456125160E+03  0.96263911267E+02 -0.25972098807E+03  0.33284318808E+03  0.00000000000E+00 0.  1.
<scales pt_clust_3="164.06773" pt_clust_4="49.69929" pt_clust_5="39.19671" pt_clust_6="14000.00000"></scales>
<clustering>
<clus scale="   39.197">  1  5  2 -1</clus>
<clus scale="   49.699">  2  4  1 -1</clus>
<clus scale="  164.068">  1  3  2 -1</clus>
<clus scale="   39.197">  1  3  2 -1</clus>
</clustering>
</event>
<event>
 6    0  0.1631680E+002  0.1610564E+03  0.7546771E-02  0.1187509E+00
          1   -1    0    0  505    0 -0.00000000000E+00  0.00000000000E+00  0.41147937436E+03  0.41147937436E+03  0.00000000000E+00 0. -1.
         21   -1    0    0  503  502  0.00000000000E+00 -0.00000000000E+00 -0.68939555767E+03  0.68939555767E+03  0.00000000000E+00 0.  1.
         21    1    1    2  503  501 -0.33996769096E+02  0.59613267594E+02 -0.33248554022E+03  0.33949397114E+03  0.00000000000E+00 0.  1.
         21    1    1    2  504  502 -0.12910274778E+03 -0.57474212826E+02 -0.29351661611E+03  0.32576495907E+03  0.00000000000E+00 0.  1.
         21    1    1    2  505  504 -0.28075256855E+02 -0.26647731518E+02  0.11362200681E+01  0.38724832324E+02  0.00000000000E+00 0.  1.
          1    1    1    2  501    0  0.19117477373E+03  0.24508676749E+02  0.34694975295E+03  0.39689116949E+03  0.00000000000E+00 0. -1.
<scales pt_clust_3="68.54409" pt_clust_4="161.05636" pt_clust_5="38.70816" pt_clust_6="14000.00000"></scales>
<clustering>
<clus scale="   38.708">  1  5  2 -1</clus>
<clus scale="   68.544">  2  3  1 -1</clus>
<clus scale="  161.056">  2  4  1 -1</clus>
<clus scale="   68.544">  2  3  1 -1</clus>
</clustering>
</event>
<event>
 6    0  0.1631680E+002  0.2098455E+03  0.7546771E-02  0.1141688E+00
         21   -1    0    0  503  502  0.00000000000E+00  0.00000000000E+00  0.12474187486E+03  0.12474187486E+03  0.00000000000E+00 0. -1.
          2   -1    0    0  505    0 -0.00000000000E+00 -0.00000000000E+00 -0.56029089188E+03  0.56029089188E+03  0.00000000000E+00 0. -1.
         21    1    1    2  503  501 -0.10646989306E+03  0.10564673952E+03 -0.57606533259E+02  0.16067228876E+03  0.00000000000E+00 0. -1.
         21    1    1    2  504  502  0.11997526008E+03 -0.13503643492E+03 -0.95218975320E+02  0.20419489477E+03  0.00000000000E+00 0. -1.
         21    1    1    2  505  504  0.25500454747E+02 -0.38668909451E+02 -0.20339225391E+03  0.20860001606E+03  0.00000000000E+00 0. -1.
          2    1    1    2  501    0 -0.39005821768E+02  0.68058604857E+02 -0.79331254537E+02  0.11156556715E+03  0.00000000000E+00 0. -1.
<scales pt_clust_3="45.87942" pt_clust_4="200.02590" pt_clust_5="46.32017" pt_clust_6="45.87942"></scales>
<clustering>
<clus scale="   45.879">  3  6 -1 -1</clus>
<clus scale="   46.320">  2  5  1 -1</clus>
<clus scale="  200.026">  1  4  2 -1</clus>
<clus scale="  200.026">  1  3  2 -1</clus>
</clustering>
</event>
<event>
 6    0  0.1631680E+002  0.1458459E+03  0.7546771E-02  0.1205672E+00
         21   -1    0    0  503  502  0.00000000000E+00  0.00000000000E+00  0.11117180193E+03  0.11117180193E+03  0.00000000000E+00 0. -1.
          2   -1    0    0  505    0 -0.00000000000E+00 -0.00000000000E+00 -0.14635358601E+04  0.14635358601E+04  0.00000000000E+00 0.  1.
         21    1    1    2  503  504  0.11884141983E+02  0.10268582410E+03  0.18878307657E+02  0.10508092977E+03  0.00000000000E+00 0. -1.
         21    1    1    2  504  501 -0.12198745655E+03  0.60430083397E+01 -0.45857293384E+02  0.13046205909E+03  0.00000000000E+00 0.  1.
         21    1    1    2  505  502  0.23153685343E+02  0.21576767254E+02 -0.33183788633E+03  0.33334371576E+03  0.00000000000E+00 0.  1.
          2    1    1    2  501    0  0.86949629227E+02 -0.13030559970E+03 -0.99354718607E+03  0.10058209574E+04  0.00000000000E+00 0.  1.
<scales pt_clust_3="104.29247" pt_clust_4="145.84587" pt_clust_5="31.64886" pt_clust_6="14000.00000"></scales>
<clustering>
<clus scale="   31.649">  2  5  1 -1</clus>
<clus scale="  104.292">  1  3  2 -1</clus>
<clus scale="  145.846">  1  4  2 -1</clus>
<clus scale="  104.292">  1  3  2 -1</clus>
</clustering>
</event>
<event>
 6    0  0.1631680E+002  0.1292592E+03  0.7546771E-02  0.1228559E+00
         21   -1    0    0  503  502  0.00000000000E+00  0.00000000000E+00  0.12839364247E+03  0.12839364247E+03  0.00000000000E+00 0.  1.
          2   -1    0    0  505    0 -0.00000000000E+00 -0.00000000000E+00 -0.18151043136E+04  0.18151043136E+04  0.00000000000E+00 0.  1.
         21    1    1    2  503  501  0.37103273071E+02 -0.94672936963E+02  0.81521606071E+02  0.13032800974E+03  0.00000000000E+00 0.  1.
         21    1    1    2  504  502 -0.87038953651E+02 -0.28755595102E+02 -0.10123357208E+03  0.13656829727E+03  0.00000000000E+00 0.  1.
         21    1    1    2  505  504  0.49552800127E+02 -0.44789686992E+01 -0.37484300822E+03  0.37813069430E+03  0.00000000000E+00 0. -1.
          2    1    1    2  501    0  0.38288045294E+00  0.12790750076E+03 -0.12921556969E+04  0.12984709548E+04  0.00000000000E+00 0.  1.
<scales pt_clust_3="14000.00000" pt_clust_4="87.90862" pt_clust_5="49.75481" pt_clust_6="129.25916"></scales>
<clustering>
<clus scale="   49.755">  2  5  1 -1</clus>
<clus scale="   87.909">  1  4  2 -1</clus>
<clus scale="  129.259">  2  6  1 -1</clus>
<clus scale="   87.909">  1  3  2 -1</clus>
</clustering>
</event>
<event>
 6    0  0.1631680E+002  0.1233242E+03  0.7546771E-02  0.1237712E+00
          1   -1    0    0  504    0 -0.00000000000E+00  0.00000000000E+00  0.23785706531E+04  0.23785706531E+04  0.00000000000E+00 0.  1.
         21   -1    0    0  505  502  0.00000000000E+00 -0.00000000000E+00 -0.19175971581E+03  0.19175971581E+03  0.00000000000E+00 0.  1.
         21    1    1    2  503  502 -0.13203304915E+03 -0.72275724445E+02  0.80913567613E+02  0.17089035033E+03  0.00000000000E+00 0.  1.
         21    1    1    2  504  503  0.49836984529E+02  0.36174302685E+02  0.47077941947E+03  0.47479002411E+03  0.00000000000E+00 0.  1.
         21    1    1    2  505  501  0.63825020460E+02  0.10281058858E+03 -0.11867560898E+03  0.16949203677E+03  0.00000000000E+00 0.  1.
          1    1    1    2  501    0  0.18371044161E+02 -0.66709166823E+02  0.17537935592E+04  0.17551579577E+04  0.00000000000E+00 0.  1.
<scales pt_clust_3="123.32422" pt_clust_4="61.58170" pt_clust_5="14000.00000" pt_clust_6="72.41713"></scales>
<clustering>
<clus scale="   61.582">  1  4  2 -1</clus>
<clus scale="   72.417">  1  6  2 -1</clus>
<clus scale="  123.324">  1  3  2 -1</clus>
<clus scale="  123.324">  2  3  1 -1</clus>
</clustering>
</event>
<event>
 6    0  0.1631680E+002  0.1102936E+03  0.7546771E-02  0.1260027E+00
          1   -1    0    0  503    0 -0.00000000000E+00  0.00000000000E+00  0.15761919831E+04  0.15761919831E+04  0.00000000000E+00 0. -1.
         21   -1    0    0  504  502  0.00000000000E+00 -0.00000000000E+00 -0.70255586226E+02  0.70255586226E+02  0.00000000000E+00 0. -1.
         21    1    1    2  503  505  0.39809544632E+02  0.33047878325E+02  0.13060739276E+04  0.13070983385E+04  0.00000000000E+00 0. -1.
         21    1    1    2  504  501 -0.18206809788E+02 -0.27453650763E+02 -0.38343371192E+01  0.33164634840E+02  0.00000000000E+00 0. -1.
         21    1    1    2  505  502 -0.12489963675E+03  0.16907881458E+01  0.11654762646E+03  0.17083947804E+03  0.00000000000E+00 0. -1.
          1    1    1    2  501    0  0.10329690190E+03 -0.72850157076E+01  0.87149179963E+02  0.13534511799E+03  0.00000000000E+00 0. -1.
<scales pt_clust_3="51.42727" pt_clust_4="32.94224" pt_clust_5="14000.00000" pt_clust_6="110.29363"></scales>
<clustering>
<clus scale="   32.942">  2  4  1 -1</clus>
<clus scale="   51.427">  1  3  2 -1</clus>
<clus scale="  110.294">  2  6  1 -1</clus>
<clus scale="   32.942">  2  3  1 -1</clus>
</clustering>
</event>
<event>
 6    0  0.1631680E+002  0.3596743E+03  0.7546771E-02  0.1058713E+00
         21   -1    0    0  504  502  0.00000000000E+00  0.00000000000E+00  0.16550602057E+03  0.16550602057E+03  0.00000000000E+00 0.  1.
          2   -1    0    0  505    0 -0.00000000000E+00 -0.00000000000E+00 -0.26798526060E+04  0.26798526060E+04  0.00000000000E+00 0.  1.
         21    1    1    2  503  502  0.20379952755E+03  0.39418399922E+03 -0.37161302199E+03  0.57880178885E+03  0.00000000000E+00 0.  1.
         21    1    1    2  504  501 -0.66797592827E+02 -0.83106432548E+02 -0.26385880394E+02  0.10983993910E+03  0.00000000000E+00 0.  1.
         21    1    1    2  505  503 -0.19807294473E+02  0.27714252204E+02 -0.49685184105E+03  0.49801823325E+03  0.00000000000E+00 0. -1.
          2    1    1    2  501    0 -0.11719464025E+03 -0.33879181887E+03 -0.16194958420E+04  0.16586986653E+04  0.00000000000E+00 0.  1.
<scales pt_clust_3="14000.00000" pt_clust_4="106.34165" pt_clust_5="34.06477" pt_clust_6="359.67427"></scales>
<clustering>
<clus scale="   34.065">  2  5  1 -1</clus>
<clus scale="  106.342">  1  4  2 -1</clus>
<clus scale="  359.674">  2  6  1 -1</clus>
<clus scale="  106.342">  1  3  2 -1</clus>
</clustering>
</event>
<event>
 6    0  0.1631680E+002  0.8205600E+02  0.7546771E-02  0.1323316E+00
         21   -1    0    0  505  502  0.00000000000E+00  0.00000000000E+00  0.87503486962E+03  0.87503486962E+03  0.00000000000E+00 0. -1.
          2   -1    0    0  503    0 -0.00000000000E+00 -0.00000000000E+00 -0.10678060341E+04  0.10678060341E+04  0.00000000000E+00 0. -1.
         21    1    1    2  503  502  0.49203007044E+02 -0.54504766264E+02  0.89476043296E+02  0.11574829490E+03  0.00000000000E+00 0.  1.
         21    1    1    2  504  501 -0.29347433163E+02 -0.45481819686E+02 -0.19907205605E+03  0.20629966373E+03  0.00000000000E+00 0.  1.
         21    1    1    2  505  504  0.14301807799E+02  0.11032857199E+03  0.76440670341E+03  0.77246005963E+03  0.00000000000E+00 0. -1.
          2    1    1    2  501    0 -0.34157381679E+02 -0.10341986041E+02 -0.84758185517E+03  0.84833288549E+03  0.00000000000E+00 0. -1.
<scales pt_clust_3="72.54498" pt_clust_4="82.05600" pt_clust_5="14000.00000" pt_clust_6="35.68870"></scales>
<clustering>
<clus scale="   35.689">  2  6  1 -1</clus>
<clus scale="   72.545">  1  3  2 -1</clus>
<clus scale="   82.056">  2  4  1 -1</clus>
<clus scale="   72.545">  1  3  2 -1</clus>
</clustering>
</event>
<event>
 6    0  0.1631680E+002  0.1435796E+03  0.7546771E-02  0.1208592E+00
         21   -1    0    0  503  502  0.00000000000E+00  0.00000000000E+00  0.61106090602E+03  0.61106090602E+03  0.00000000000E+00 0.  1.
          2   -1    0    0  505    0 -0.00000000000E+00 -0.00000000000E+00 -0.21304178241E+03  0.21304178241E+03  0.00000000000E+00 0.  1.
         21    1    1    2  503  501 -0.14478309463E+03 -0.86429752361E+02  0.32522259569E+03  0.36633588867E+03  0.00000000000E+00 0.  1.
         21    1    1    2  504  502  0.48267810567E+01  0.39627663922E+02  0.11662330846E+03  0.12326656335E+03  0.00000000000E+00 0.  1.
         21    1    1    2  505  504  0.31276628549E+02 -0.10481012305E+02 -0.16123041858E+03  0.16457012787E+03  0.00000000000E+00 0.  1.
          2    1    1    2  501    0  0.10867968502E+03  0.57283100744E+02  0.11740363803E+03  0.16993010855E+03  0.00000000000E+00 0.  1.
<scales pt_clust_3="14000.00000" pt_clust_4="39.53982" pt_clust_5="32.98604" pt_clust_6="143.57965"></scales>
<clustering>
<clus scale="   32.986">  2  5  1 -1</clus>
<clus scale="   39.540">  1  4  2 -1</clus>
<clus scale="  143.580">  2  6  1 -1</clus>
<clus scale="   39.540">  1  3  2 -1</clus>
</clustering>
</event>
<event>
 6    0  0.1631680E+002  0.1343807E+03  0.7546771E-02  0.1221097E+00
         21   -1    0    0  501  502  0.00000000000E+00  0.00000000000E+00  0.11072647958E+04  0.11072647958E+04  0.00000000000E+00 0. -1.
          2   -1    0    0  505    0 -0.00000000000E+00 -0.00000000000E+00 -0.28779337060E+03  0.28779337060E+03  0.00000000000E+00 0.  1.
         21    1    1    2  503  504  0.48112973185E+02  0.48334154386E+01  0.47083976830E+03  0.47331628696E+03  0.00000000000E+00 0. -1.
         21    1    1    2  504  502  0.59378571234E+02 -0.58402158652E+02  0.53416759370E+03  0.54062153584E+03  0.00000000000E+00 0. -1.
         21    1    1    2  505  503  0.48122167381E+02  0.83037785530E+02  0.41284532205E+02  0.10447693247E+03  0.00000000000E+00 0. -1.
          2    1    1    2  501    0 -0.15561371180E+03 -0.29469042317E+02 -0.22682046900E+03  0.27664341112E+03  0.00000000000E+00 0.  1.
<scales pt_clust_3="45.75634" pt_clust_4="45.75634" pt_clust_5="95.97404" pt_clust_6="120.21687"></scales>
<clustering>
<clus scale="   45.756">  3  4 -1 -1</clus>
<clus scale="   95.974">  2  5  1 -1</clus>
<clus scale="  120.217">  2  6  1 -1</clus>
<clus scale="  134.381">  1  3  2 -1</clus>
</clustering>
</event>
<event>
 6    0  0.1631680E+002  0.7509852E+02  0.7546771E-02  0.1343566E+00
         21   -1    0    0  503  502  0.00000000000E+00  0.00000000000E+00  0.70788789615E+02  0.70788789615E+02  0.00000000000E+00 0.  1.
          1   -1    0    0  504    0 -0.00000000000E+00 -0.00000000000E+00 -0.20460742403E+04  0.20460742403E+04  0.00000000000E+00 0. -1.
         21    1    1    2  503  501 -0.43063656849E+02  0.18806785673E+02  0.79907467058E+01  0.47665771382E+02  0.00000000000E+00 0. -1.
         21    1    1    2  504  505  0.17256668489E+02  0.58879432273E+02 -0.35024504111E+03  0.35557863965E+03  0.00000000000E+00 0. -1.
         21    1    1    2  505  502 -0.87724372903E+01  0.40953755155E+02  0.26454641917E+02  0.49538003556E+02  0.00000000000E+00 0.  1.
          1    1    1    2  501    0  0.34579425650E+02 -0.11863997310E+03 -0.16594857982E+04  0.16640806154E+04  0.00000000000E+00 0. -1.
<scales pt_clust_3="14000.00000" pt_clust_4="64.37201" pt_clust_5="41.88276" pt_clust_6="75.09852"></scales>
<clustering>
<clus scale="   41.883">  1  5  2 -1</clus>
<clus scale="   64.372">  2  4  1 -1</clus>
<clus scale="   75.099">  2  6  1 -1</clus>
<clus scale="   41.883">  1  3  2 -1</clus>
</clustering>
</event>
<event>
 6    0  0.1631680E+002  0.9417482E+02  0.7546771E-02  0.1293045E+00
          1   -1    0    0  504    0 -0.00000000000E+00  0.00000000000E+00  0.10365566753E+04  0.10365566753E+04  0.00000000000E+00 0. -1.
         21   -1    0    0  501  502  0.00000000000E+00 -0.00000000000E+00 -0.49518130878E+03  0.49518130878E+03  0.00000000000E+00 0.  1.
         21    1    1    2  503  505  0.15306010659E+03 -0.79288635438E+02  0.64413850286E+03  0.66680469015E+03  0.00000000000E+00 0. -1.
         21    1    1    2  504  503 -0.74490370478E+02  0.31716168921E+02  0.34957613089E+03  0.35882893132E+03  0.00000000000E+00 0. -1.
         21    1    1    2  505  502 -0.58967137668E+02  0.10045600121E+02 -0.45931646934E+03  0.46319505223E+03  0.00000000000E+00 0.  1.
          1    1    1    2  501    0 -0.19602598446E+02  0.37526866396E+02  0.69772021053E+01  0.42909310372E+02  0.00000000000E+00 0. -1.
<scales pt_clust_3="14000.00000" pt_clust_4="81.27908" pt_clust_5="94.17482" pt_clust_6="42.33825"></scales>
<clustering>
<clus scale="   42.338">  2  6  1 -1</clus>
<clus scale="   81.279">  1  4  2 -1</clus>
<clus scale="   94.175">  2  5  1 -1</clus>
<clus scale="   42.338">  2  3  1 -1</clus>
</clustering>
</event>
<event>
 6    0  0.1631680E+002  0.1150768E+03  0.7546771E-02  0.1251447E+00
         21   -1    0    0  503  502  0.00000000000E+00  0.00000000000E+00  0.25072216712E+03  0.25072216712E+03  0.00000000000E+00 0. -1.
         -2   -1    0    0    0  501 -0.00000000000E+00 -0.00000000000E+00 -0.65858820789E+03  0.65858820789E+03  0.00000000000E+00 0.  1.
         21    1    1    2  503  504 -0.11501694718E+03  0.73848532359E+02  0.17724133090E+03  0.22382357617E+03  0.00000000000E+00 0. -1.
         21    1    1    2  504  501  0.52479468946E+01 -0.48334745580E+02 -0.12905382926E+03  0.13790822827E+03  0.00000000000E+00 0. -1.
         21    1    1    2  505  502  0.35025259201E+02 -0.77374839083E+02 -0.24775377982E+01  0.84969245606E+02  0.00000000000E+00 0. -1.
         -2    1    1    2    0  505  0.74743741087E+02  0.51861052304E+02 -0.45357600461E+03  0.46260932496E+03  0.00000000000E+00 0.  1.
<scales pt_clust_3="115.07683" pt_clust_4="48.61881" pt_clust_5="14000.00000" pt_clust_6="79.91220"></scales>
<clustering>
<clus scale="   48.619">  2  4  1 -1</clus>
<clus scale="   79.912">  2  6  1 -1</clus>
<clus scale="  115.077">  1  3  2 -1</clus>
<clus scale="  115.077">  1  3  2 -1</clus>
</clustering>
</event>
<event>
 6    0  0.1631680E+002  0.2308094E+03  0.7546771E-02  0.1126071E+00
         -1   -1    0    0    0  501 -0.00000000000E+00  0.00000000000E+00  0.75681525470E+03  0.75681525470E+03  0.00000000000E+00 0. -1.
         21   -1    0    0  503  502  0.00000000000E+00 -0.00000000000E+00 -0.61514484518E+03  0.61514484518E+03  0.00000000000E+00 0.  1.
         21    1    1    2  503  504 -0.15238559430E+03 -0.17908878123E+03 -0.32571353331E+03  0.40172561119E+03  0.00000000000E+00 0.  1.
         21    1    1    2  504  501  0.19042652318E+02  0.25388318400E+03 -0.13574687274E+03  0.28852470810E+03  0.00000000000E+00 0.  1.
         21    1    1    2  505  502  0.28687067550E+02 -0.10948237683E+03  0.61176699081E+02  0.12865429332E+03  0.00000000000E+00 0.  1.
         -1    1    1    2    0  505  0.10465587443E+03  0.34687974047E+02  0.54195411649E+03  0.55305548725E+03  0.00000000000E+00 0. -1.
<scales pt_clust_3="230.80942" pt_clust_4="14000.00000" pt_clust_5="120.77918" pt_clust_6="110.25474"></scales>
<clustering>
<clus scale="  110.255">  1  6  2 -1</clus>
<clus scale="  120.779">  1  5  2 -1</clus>
<clus scale="  230.809">  2  3  1 -1</clus>
<clus scale="  230.809">  2  3  1 -1</clus>
</clustering>
</event>
<event>
 6    0  0.1631680E+002  0.1292470E+03  0.7546771E-02  0.1228577E+00
          2   -1    0    0  502    0 -0.00000000000E+00  0.00000000000E+00  0.10314534850E+04  0.10314534850E+04  0.00000000000E+00 0. -1.
         21   -1    0    0  503  502  0.00000000000E+00 -0.00000000000E+00 -0.33356843701E+03  0.33356843701E+03  0.00000000000E+00 0.  1.
         21    1    1    2  503  505 -0.40757545373E+02  0.40517200578E+02 -0.27492147300E+03  0.28086409056E+03  0.00000000000E+00 0.  1.
         21    1    1    2  504  501  0.14398051908E+03 -0.10875329762E+03  0.25853712860E+03  0.31527625424E+03  0.00000000000E+00 0.  1.
         21    1    1    2  505  504 -0.32048635997E+02  0.91261722268E+02  0.67854592297E+02  0.11815270931E+03  0.00000000000E+00 0.  1.
          2    1    1    2  501    0 -0.71174337712E+02 -0.23025625225E+02  0.64641480011E+03  0.65072886794E+03  0.00000000000E+00 0. -1.
<scales pt_clust_3="57.47018" pt_clust_4="129.24703" pt_clust_5="14000.00000" pt_clust_6="75.85125"></scales>
<clustering>
<clus scale="   57.470">  2  3  1 -1</clus>
<clus scale="   75.851">  1  6  2 -1</clus>
<clus scale="  129.247">  1  4  2 -1</clus>
<clus scale="   57.470">  2  3  1 -1</clus>
</clustering>
</event>
<event>
 6    0  0.1631680E+002  0.1037466E+03  0.7546771E-02  0.1272609E+00
         21   -1    0    0  505  502  0.00000000000E+00  0.00000000000E+00  0.42657535762E+03  0.42657535762E+03  0.00000000000E+00 0.  1.
          1   -1    0    0  503    0 -0.00000000000E+00 -0.00000000000E+00 -0.11853452368E+04  0.11853452368E+04  0.00000000000E+00 0.  1.
         21    1    1    2  503  504  0.49593506245E+02 -0.11945479337E+02 -0.33129512432E+03  0.33519944769E+03  0.00000000000E+00 0.  1.
         21    1    1    2  504  502 -0.42453361112E+02  0.11663295274E+02  0.36989628690E+03  0.37250715884E+03  0.00000000000E+00 0.  1.
         21    1    1    2  505  501  0.37276330430E+02  0.94016323059E+02 -0.10255318285E+01  0.10114171013E+03  0.00000000000E+00 0.  1.
          1    1    1    2  501    0 -0.44416475562E+02 -0.93734138996E+02 -0.79634550990E+03  0.80307227772E+03  0.00000000000E+00 0.  1.
<scales pt_clust_3="49.46055" pt_clust_4="44.02636" pt_clust_5="103.74657" pt_clust_6="14000.00000"></scales>
<clustering>
<clus scale="   44.026">  1  4  2 -1</clus>
<clus scale="   49.461">  2  3  1 -1</clus>
<clus scale="  103.747">  1  5  2 -1</clus>
<clus scale="   44.026">  1  3  2 -1</clus>
</clustering>
</event>
<event>
 6    0  0.1631680E+002  0.9905656E+02  0.7546771E-02  0.1282292E+00
          2   -1    0    0  503    0 -0.00000000000E+00  0.00000000000E+00  0.20589364478E+04  0.20589364478E+04  0.00000000000E+00 0. -1.
         21   -1    0    0  504  502  0.00000000000E+00 -0.00000000000E+00 -0.27300735687E+03  0.27300735687E+03  0.00000000000E+00 0.  1.
         21    1    1    2  503  502  0.70743415567E+02 -0.36477271836E+02  0.12609741113E+03  0.14911666339E+03  0.00000000000E+00 0.  1.
         21    1    1    2  504  505 -0.28672848728E+02  0.39940710283E+02 -0.23318287819E+03  0.23830998148E+03  0.00000000000E+00 0.  1.
         21    1    1    2  505  501  0.43797244666E+02  0.49787083594E+02  0.20681586190E+02  0.69459918950E+02  0.00000000000E+00 0.  1.
          2    1    1    2  501    0 -0.85867811505E+02 -0.53250522041E+02  0.18723329718E+04  0.18750572408E+04  0.00000000000E+00 0. -1.
<scales pt_clust_3="66.42803" pt_clust_4="49.16699" pt_clust_5="99.05656" pt_clust_6="14000.00000"></scales>
<clustering>
<clus scale="   49.167">  2  4  1 -1</clus>
<clus scale="   66.428">  2  3  1 -1</clus>
<clus scale="   99.057">  2  5  1 -1</clus>
<clus scale="   49.167">  2  3  1 -1</clus>
</clustering>
</event>
<event>
 6    0  0.1631680E+002  0.1537292E+03  0.7546771E-02  0.1195964E+00
         21   -1    0    0  505  502  0.00000000000E+00  0.00000000000E+00  0.29893528967E+03  0.29893528967E+03  0.00000000000E+00 0. -1.
         -1   -1    0    0    0  501 -0.00000000000E+00 -0.00000000000E+00 -0.39466755319E+03  0.39466755319E+03  0.00000000000E+00 0. -1.
         21    1    1    2  503  501 -0.19311925620E+02 -0.43579176958E+02 -0.10727197055E+03  0.11738556471E+03  0.00000000000E+00 0.  1.
         21    1    1    2  504  503 -0.54083643962E+02  0.42444524186E+02  0.84030070740E+02  0.10857085689E+03  0.00000000000E+00 0. -1.
         21    1    1    2  505  504 -0.50903736753E+02  0.65205168763E+02  0.16924375153E+03  0.18837821498E+03  0.00000000000E+00 0. -1.
         -1    1    1    2    0  502  0.12429930634E+03 -0.64070515991E+02 -0.24173411523E+03  0.27926820629E+03  0.00000000000E+00 0. -1.
<scales pt_clust_3="47.66650" pt_clust_4="34.35730" pt_clust_5="34.35730" pt_clust_6="149.03804"></scales>
<clustering>
<clus scale="   34.357">  4  5 -1 -1</clus>
<clus scale="   47.666">  2  3  1 -1</clus>
<clus scale="  149.038">  2  6  1 -1</clus>
<clus scale="  153.729">  1  3  2 -1</clus>
</clustering>
</event>
<event>
 6    0  0.1631680E+002  0.8235618E+02  0.7546771E-02  0.1322495E+00
          2   -1    0    0  505    0 -0.00000000000E+00  0.00000000000E+00  0.10820164664E+04  0.10820164664E+04  0.00000000000E+00 0.  1.
         21   -1    0    0  504  502  0.00000000000E+00 -0.00000000000E+00 -0.37791751237E+03  0.37791751237E+03  0.00000000000E+00 0.  1.
         21    1    1    2  503  502 -0.31821601133E+02 -0.27127273337E+02  0.27639227070E+02  0.50124147178E+02  0.00000000000E+00 0. -1.
         21    1    1    2  504  501 -0.70788855783E+02 -0.41886676984E+02 -0.35677318016E+03  0.36613202249E+03  0.00000000000E+00 0.  1.
         21    1    1    2  505  503  0.59705148668E+01  0.30017692256E+02  0.98285131790E+02  0.10294015751E+03  0.00000000000E+00 0.  1.
          2    1    1    2  501    0  0.96639942048E+02  0.38996258065E+02  0.93494777532E+03  0.94073765159E+03  0.00000000000E+00 0.  1.
<scales pt_clust_3="40.87049" pt_clust_4="14000.00000" pt_clust_5="30.60570" pt_clust_6="82.35618"></scales>
<clustering>
<clus scale="   30.606">  1  5  2 -1</clus>
<clus scale="   40.870">  1  3  2 -1</clus>
<clus scale="   82.356">  1  6  2 -1</clus>
<clus scale="   82.356">  2  3  1 -1</clus>
</clustering>
</event>
<event>
 6    0  0.1631680E+002  0.1043451E+03  0.7546771E-02  0.1271415E+00
         21   -1    0    0  505  502  0.00000000000E+00  0.00000000000E+00  0.34213545770E+03  0.34213545770E+03  0.00000000000E+00 0.  1.
          2   -1    0    0  504    0 -0.00000000000E+00 -0.00000000000E+00 -0.21158558469E+04  0.21158558469E+04  0.00000000000E+00 0.  1.
         21    1    1    2  503  502  0.10791191440E+03 -0.69251970907E+01  0.27849657874E+03  0.29875288115E+03  0.00000000000E+00 0.  1.
         21    1    1    2  504  503  0.97108848118E+01 -0.31592144817E+02 -0.29012469695E+03  0.29200120664E+03  0.00000000000E+00 0. -1.
         21    1    1    2  505  501 -0.84584971288E+01  0.38609826485E+02  0.43254135307E+02  0.58593387819E+02  0.00000000000E+00 0.  1.
          2    1    1    2  501    0 -0.10916430209E+03 -0.92484577049E-01 -0.18053464063E+04  0.18086438290E+04  0.00000000000E+00 0.  1.
<scales pt_clust_3="104.34505" pt_clust_4="33.05094" pt_clust_5="39.38706" pt_clust_6="14000.00000"></scales>
<clustering>
<clus scale="   33.051">  2  4  1 -1</clus>
<clus scale="   39.387">  1  5  2 -1</clus>
<clus scale="  104.345">  1  3  2 -1</clus>
<clus scale="   39.387">  1  3  2 -1</clus>
</clustering>
</event>
<event>
 6    0  0.1631680E+002  0.9437280E+02  0.7546771E-02  0.1292595E+00
         21   -1    0    0  503  502  0.00000000000E+00  0.00000000000E+00  0.47774608341E+02  0.47774608341E+02  0.00000000000E+00 0. -1.
          2   -1    0    0  504    0 -0.00000000000E+00 -0.00000000000E+00 -0.40504897134E+04  0.40504897134E+04  0.00000000000E+00 0.  1.
         21    1    1    2  503  505 -0.67040111636E+02  0.98747825741E+02 -0.34625350297E+03  0.36624718153E+03  0.00000000000E+00 0. -1.
         21    1    1    2  504  502  0.28996324078E+02 -0.58156536393E+02  0.45452565224E+01  0.65143141559E+02  0.00000000000E+00 0. -1.
         21    1    1    2  505  501 -0.69124906230E+02 -0.26668641772E+02 -0.70297196335E+03  0.70686565228E+03  0.00000000000E+00 0. -1.
          2    1    1    2  501    0  0.10716869379E+03 -0.13922647576E+02 -0.29580348953E+04  0.29600083464E+04  0.00000000000E+00 0.  1.
<scales pt_clust_3="69.88581" pt_clust_4="64.98438" pt_clust_5="94.37280" pt_clust_6="14000.00000"></scales>
<clustering>
<clus scale="   64.984">  1  4  2 -1</clus>
<clus scale="   69.886">  1  3  2 -1</clus>
<clus scale="   94.373">  1  5  2 -1</clus>
<clus scale="   64.984">  1  3  2 -1</clus>
</clustering>
</event>
<event>
 6    0  0.1631680E+002  0.9480483E+02  0.7546771E-02  0.1291616E+00
         -4   -1    0    0    0  501 -0.00000000000E+00  0.00000000000E+00  0.20021249483E+04  0.20021249483E+04  0.00000000000E+00 0. -1.
         21   -1    0    0  505  502  0.00000000000E+00 -0.00000000000E+00 -0.33661236270E+02  0.33661236270E+02  0.00000000000E+00 0.  1.
         21    1    1    2  503  501 -0.57754050555E+02  0.23105773921E+02  0.25128959616E+03  0.25887423256E+03  0.00000000000E+00 0.  1.
         21    1    1    2  504  502  0.61951239368E+02  0.45309264782E+02  0.88034145249E+02  0.11679424756E+03  0.00000000000E+00 0.  1.
         21    1    1    2  505  503 -0.23804728500E+02  0.31087161631E+02  0.13677019714E+02  0.41474541414E+02  0.00000000000E+00 0.  1.
         -4    1    1    2    0  504  0.19607539686E+02 -0.99502200334E+02  0.16154629509E+04  0.16186431630E+04  0.00000000000E+00 0. -1.
<scales pt_clust_3="68.76900" pt_clust_4="94.80483" pt_clust_5="39.15452" pt_clust_6="14000.00000"></scales>
<clustering>
<clus scale="   39.155">  2  5  1 -1</clus>
<clus scale="   68.769">  2  3  1 -1</clus>
<clus scale="   94.805">  2  4  1 -1</clus>
<clus scale="   39.155">  2  3  1 -1</clus>
</clustering>
</event>
<event>
 6    0  0.1631680E+002  0.1199966E+03  0.7546771E-02  0.1243103E+00
          2   -1    0    0  503    0 -0.00000000000E+00  0.00000000000E+00  0.45890406981E+03  0.45890406981E+03  0.00000000000E+00 0.  1.
         21   -1    0    0  505  502  0.00000000000E+00 -0.00000000000E+00 -0.87673780930E+03  0.87673780930E+03  0.00000000000E+00 0. -1.
         21    1    1    2  503  504  0.12253713245E+02 -0.33174163949E+02 -0.99334469519E+00  0.35378883189E+02  0.00000000000E+00 0. -1.
         21    1    1    2  504  502  0.10173117486E+02  0.18891422543E+03 -0.43294520270E+03  0.47247605804E+03  0.00000000000E+00 0. -1.
         21    1    1    2  505  501 -0.42846520316E+02 -0.74993960834E+02 -0.39704238597E+03  0.40632816137E+03  0.00000000000E+00 0. -1.
          2    1    1    2  501    0  0.20419689585E+02 -0.80746100642E+02  0.41314719387E+03  0.42145877650E+03  0.00000000000E+00 0.  1.
<scales pt_clust_3="35.36494" pt_clust_4="14000.00000" pt_clust_5="86.61016" pt_clust_6="119.99661"></scales>
<clustering>
<clus scale="   35.365">  1  3  2 -1</clus>
<clus scale="   86.610">  2  5  1 -1</clus>
<clus scale="  119.997">  1  6  2 -1</clus>
<clus scale="   86.610">  2  3  1 -1</clus>
</clustering>
</event>
<event>
 6    0  0.1631680E+002  0.1207976E+03  0.7546771E-02  0.1241787E+00
          1   -1    0    0  504    0 -0.00000000000E+00  0.00000000000E+00  0.22803185395E+03  0.22803185395E+03  0.00000000000E+00 0.  1.
         21   -1    0    0  505  502  0.00000000000E+00 -0.00000000000E+00 -0.51223148751E+03  0.51223148751E+03  0.00000000000E+00 0.  1.
         21    1    1    2  503  502 -0.71904421978E+02 -0.77238245553E+01 -0.42137703243E+02  0.83698801666E+02  0.00000000000E+00 0.  1.
         21    1    1    2  504  503  0.77805938052E+02 -0.44773093439E+02 -0.41074421136E+02  0.98719308972E+02  0.00000000000E+00 0. -1.
         21    1    1    2  505  501 -0.12536160724E+03  0.33979304427E+02 -0.34569371408E+03  0.36928887020E+03  0.00000000000E+00 0.  1.
          1    1    1    2  501    0  0.11946009116E+03  0.18517613567E+02  0.14470620490E+03  0.18855636062E+03  0.00000000000E+00 0.  1.
<scales pt_clust_3="72.31807" pt_clust_4="80.94393" pt_clust_5="120.79761" pt_clust_6="14000.00000"></scales>
<clustering>
<clus scale="   72.318">  2  3  1 -1</clus>
<clus scale="   80.944">  2  4  1 -1</clus>
<clus scale="  120.798">  2  5  1 -1</clus>
<clus scale="   72.318">  2  3  1 -1</clus>
</clustering>
</event>
<event>
 6    0  0.1631680E+002  0.2197077E+03  0.7546771E-02  0.1134101E+00
          1   -1    0    0  505    0 -0.00000000000E+00  0.00000000000E+00  0.23910076412E+04  0.23910076412E+04  0.00000000000E+00 0. -1.
         21   -1    0    0  501  502  0.00000000000E+00 -0.00000000000E+00 -0.77658129652E+02  0.77658129652E+02  0.00000000000E+00 0. -1.
         21    1    1    2  503  504  0.14955988843E+03 -0.61635392165E+02  0.14499888863E+04  0.14589841850E+04  0.00000000000E+00 0. -1.
         21    1    1    2  504  502 -0.13418633712E+03  0.33479919346E+02  0.15978856445E+02  0.13921997674E+03  0.00000000000E+00 0. -1.
         21    1    1    2  505  503  0.51916477091E+02  0.31715330388E+02  0.74752100080E+03  0.74999255290E+03  0.00000000000E+00 0. -1.
          1    1    1    2  501    0 -0.67290028401E+02 -0.35598575695E+01  0.99860767993E+02  0.12046905616E+03  0.00000000000E+00 0. -1.
<scales pt_clust_3="58.31022" pt_clust_4="198.06783" pt_clust_5="58.31022" pt_clust_6="67.38413"></scales>
<clustering>
<clus scale="   58.310">  3  5 -1 -1</clus>
<clus scale="   67.384">  2  6  1 -1</clus>
<clus scale="  198.068">  2  4  1 -1</clus>
<clus scale="   67.384">  2  3  1 -1</clus>
</clustering>
</event>
<event>
 6    0  0.1631680E+002  0.5926640E+02  0.7546771E-02  0.1400936E+00
          1   -1    0    0  505    0 -0.00000000000E+00  0.00000000000E+00  0.15544729263E+04  0.15544729263E+04  0.00000000000E+00 0.  1.
         21   -1    0    0  503  502  0.00000000000E+00 -0.00000000000E+00 -0.68248498352E+02  0.68248498352E+02  0.00000000000E+00 0. -1.
         21    1    1    2  503  501 -0.44240880533E+02 -0.84437997033E+00 -0.50802492031E+02  0.67371074538E+02  0.00000000000E+00 0. -1.
         21    1    1    2  504  502  0.47217044692E+02  0.45131535521E+02  0.29620794917E+03  0.30332400821E+03  0.00000000000E+00 0.  1.
         21    1    1    2  505  504 -0.42697859497E+02  0.34452904778E+02  0.83180329195E+03  0.83361071632E+03  0.00000000000E+00 0.  1.
          1    1    1    2  501    0  0.39721695337E+02 -0.78740060328E+02  0.40901567884E+03  0.41841562557E+03  0.00000000000E+00 0.  1.
<scales pt_clust_3="44.24894" pt_clust_4="53.93986" pt_clust_5="14000.00000" pt_clust_6="59.26640"></scales>
<clustering>
<clus scale="   44.249">  2  3  1 -1</clus>
<clus scale="   53.940">  2  4  1 -1</clus>
<clus scale="   59.266">  2  6  1 -1</clus>
<clus scale="   44.249">  2  3  1 -1</clus>
</clustering>
</event>
<event>
 6    0  0.1631680E+002  0.1014269E+03  0.7546771E-02  0.1277324E+00
         21   -1    0    0  503  502  0.00000000000E+00  0.00000000000E+00  0.16376188206E+03  0.16376188206E+03  0.00000000000E+00 0.  1.
          2   -1    0    0  505    0 -0.00000000000E+00 -0.00000000000E+00 -0.86967896680E+03  0.86967896680E+03  0.00000000000E+00 0. -1.
         21    1    1    2  503  501 -0.27744785700E+01 -0.56462463867E+02  0.13062684425E+03  0.14233439499E+03  0.00000000000E+00 0.  1.
         21    1    1    2  504  502  0.42815701212E+02  0.11691983695E+02 -0.17101777482E+02  0.47564246510E+02  0.00000000000E+00 0. -1.
         21    1    1    2  505  504  0.51205934836E+02  0.27345472041E+02 -0.83125806733E+02  0.10138896562E+03  0.00000000000E+00 0. -1.
          2    1    1    2  501    0 -0.91247157478E+02  0.17425008131E+02 -0.73631634478E+03  0.74215324175E+03  0.00000000000E+00 0. -1.
<scales pt_clust_3="56.53059" pt_clust_4="36.86492" pt_clust_5="36.86492" pt_clust_6="92.24918"></scales>
<clustering>
<clus scale="   36.865">  4  5 -1 -1</clus>
<clus scale="   56.531">  1  3  2 -1</clus>
<clus scale="   92.249">  2  6  1 -1</clus>
<clus scale="   56.531">  1  3  2 -1</clus>
</clustering>
</event>
<event>
 6    0  0.1631680E+002  0.1780099E+03  0.7546771E-02  0.1169743E+00
          1   -1    0    0  503    0 -0.00000000000E+00  0.00000000000E+00  0.65632497451E+03  0.65632497451E+03  0.00000000000E+00 0.  1.
         21   -1    0    0  505  502  0.00000000000E+00 -0.00000000000E+00 -0.15273267346E+04  0.15273267346E+04  0.00000000000E+00 0. -1.
         21    1    1    2  503  502  0.25945659178E+02 -0.20345059430E+02  0.41042917596E+03  0.41175138998E+03  0.00000000000E+00 0.  1.
         21    1    1    2  504  501 -0.51403067362E+02 -0.54185428642E+01 -0.30848513177E+03  0.31278540961E+03  0.00000000000E+00 0. -1.
         21    1    1    2  505  504 -0.87264209821E+02 -0.85664071526E+02 -0.11867132082E+04  0.11929969044E+04  0.00000000000E+00 0. -1.
          1    1    1    2  501    0  0.11272161801E+03  0.11142767382E+03  0.21376740392E+03  0.26611800510E+03  0.00000000000E+00 0.  1.
<scales pt_clust_3="32.97118" pt_clust_4="42.24697" pt_clust_5="42.24697" pt_clust_6="165.68000"></scales>
<clustering>
<clus scale="   32.971">  1  3  2 -1</clus>
<clus scale="   42.247">  4  5 -1 -1</clus>
<clus scale="  165.680">  1  6  2 -1</clus>
<clus scale="  178.010">  2  3  1 -1</clus>
</clustering>
</event>
<event>
 6    0  0.1631680E+002  0.1136126E+03  0.7546771E-02  0.1254022E+00
         21   -1    0    0  503  502  0.00000000000E+00  0.00000000000E+00  0.11037933616E+04  0.11037933616E+04  0.00000000000E+00 0.  1.
          3   -1    0    0  504    0 -0.00000000000E+00 -0.00000000000E+00 -0.58151032119E+02  0.58151032119E+02  0.00000000000E+00 0. -1.
         21    1    1    2  503  505  0.20166341903E+02  0.54728929785E+02  0.14621015144E+03  0.15741456568E+03  0.00000000000E+00 0. -1.
         21    1    1    2  504  502  0.34952434807E+02 -0.10001056933E+02  0.80877219050E+03  0.80958887713E+03  0.00000000000E+00 0.  1.
         21    1    1    2  505  501  0.22734187838E+01  0.49347013367E+02  0.65266275576E+02  0.81853423195E+02  0.00000000000E+00 0.  1.
          3    1    1    2  501    0 -0.57392195493E+02 -0.94074886220E+02  0.25393711968E+02  0.11308752773E+03  0.00000000000E+00 0. -1.
<scales pt_clust_3="31.76761" pt_clust_4="36.35511" pt_clust_5="31.76761" pt_clust_6="108.24179"></scales>
<clustering>
<clus scale="   31.768">  3  5 -1 -1</clus>
<clus scale="   36.355">  1  4  2 -1</clus>
<clus scale="  108.242">  2  6  1 -1</clus>
<clus scale="   36.355">  1  3  2 -1</clus>
</clustering>
</event>
<event>
 6    0  0.1631680E+002  0.1470023E+03  0.7546771E-02  0.1204206E+00
         -1   -1    0    0    0  501 -0.00000000000E+00  0.00000000000E+00  0.10846350173E+04  0.10846350173E+04  0.00000000000E+00 0. -1.
         21   -1    0    0  504  502  0.00000000000E+00 -0.00000000000E+00 -0.36985665025E+03  0.36985665025E+03  0.00000000000E+00 0. -1.
         21    1    1    2  503  502  0.40447921269E+02 -0.60076099567E+01 -0.26999250133E+03  0.27307155928E+03  0.00000000000E+00 0. -1.
         21    1    1    2  504  501  0.11835004893E+03 -0.59797927870E+02  0.59698679512E+03  0.61153557526E+03  0.00000000000E+00 0.  1.
         21    1    1    2  505  503  0.31892271962E+02  0.38257264717E+02 -0.62613467366E+02  0.80007384722E+02  0.00000000000E+00 0. -1.
         -1    1    1    2    0  505 -0.19069024216E+03  0.27548273110E+02  0.45039754065E+03  0.48987714831E+03  0.00000000000E+00 0. -1.
<scales pt_clust_3="40.89163" pt_clust_4="147.00230" pt_clust_5="69.98579" pt_clust_6="14000.00000"></scales>
<clustering>
<clus scale="   40.892">  2  3  1 -1</clus>
<clus scale="   69.986">  2  5  1 -1</clus>
<clus scale="  147.002">  1  4  2 -1</clus>
<clus scale="   40.892">  2  3  1 -1</clus>
</clustering>
</event>
<event>
 6    0  0.1631680E+002  0.1125952E+03  0.7546771E-02  0.1255838E+00
         21   -1    0    0  505  502  0.00000000000E+00  0.00000000000E+00  0.31444167364E+03  0.31444167364E+03  0.00000000000E+00 0.  1.
          2   -1    0    0  503    0 -0.00000000000E+00 -0.00000000000E+00 -0.11256997221E+04  0.11256997221E+04  0.00000000000E+00 0. -1.
         21    1    1    2  503  504 -0.33593414169E+01 -0.69566330269E+02 -0.12893015194E+03  0.14653922192E+03  0.00000000000E+00 0.  1.
         21    1    1    2  504  502 -0.33832765908E+02  0.19880782827E+02 -0.57627659114E+01  0.39662463940E+02  0.00000000000E+00 0.  1.
         21    1    1    2  505  501  0.11982265021E+03  0.54640181174E+02  0.27177105230E+03  0.30199755259E+03  0.00000000000E+00 0.  1.
          2    1    1    2  501    0 -0.82630542883E+02 -0.49546337327E+01 -0.94833618294E+03  0.95194215732E+03  0.00000000000E+00 0. -1.
<scales pt_clust_3="69.11564" pt_clust_4="39.24158" pt_clust_5="112.59517" pt_clust_6="14000.00000"></scales>
<clustering>
<clus scale="   39.242">  1  4  2 -1</clus>
<clus scale="   69.116">  2  3  1 -1</clus>
<clus scale="  112.595">  1  5  2 -1</clus>
<clus scale="   39.242">  1  3  2 -1</clus>
</clustering>
</event>
<event>
 6    0  0.1631680E+002  0.1451336E+03  0.7546771E-02  0.1206584E+00
         21   -1    0    0  505  502  0.00000000000E+00  0.00000000000E+00  0.91560376398E+03  0.91560376398E+03  0.00000000000E+00 0.  1.
          1   -1    0    0  503    0 -0.00000000000E+00 -0.00000000000E+00 -0.13673391892E+04  0.13673391892E+04  0.00000000000E+00 0. -1.
         21    1    1    2  503  502  0.14360241343E+02  0.32545593462E+02  0.16647423381E+00  0.35573303177E+02  0.00000000000E+00 0.  1.
         21    1    1    2  504  501 -0.15846572371E+01 -0.12623545800E+03 -0.42444969863E+03  0.44282665758E+03  0.00000000000E+00 0. -1.
         21    1    1    2  505  504  0.21330477484E+02 -0.63960075881E+02  0.88014539196E+03  0.88272407442E+03  0.00000000000E+00 0.  1.
          1    1    1    2  501    0 -0.34106061590E+02  0.15764994042E+03 -0.90759759283E+03  0.92181891805E+03  0.00000000000E+00 0. -1.
<scales pt_clust_3="35.57291" pt_clust_4="14000.00000" pt_clust_5="47.74546" pt_clust_6="145.13356"></scales>
<clustering>
<clus scale="   35.573">  1  3  2 -1</clus>
<clus scale="   47.745">  1  5  2 -1</clus>
<clus scale="  145.134">  2  6  1 -1</clus>
<clus scale="   35.573">  1  3  2 -1</clus>
</clustering>
</event>
<event>
 6    0  0.1631680E+002  0.5265307E+02  0.7546771E-02  0.1431535E+00
          1   -1    0    0  503    0 -0.00000000000E+00  0.00000000000E+00  0.37091326444E+03  0.37091326444E+03  0.00000000000E+00 0.  1.
         21   -1    0    0  505  502  0.00000000000E+00 -0.00000000000E+00 -0.17953972467E+04  0.17953972467E+04  0.00000000000E+00 0.  1.
         21    1    1    2  503  504  0.70254040522E+02 -0.22229689795E+02  0.17059627046E+03  0.18583023654E+03  0.00000000000E+00 0. -1.
         21    1    1    2  504  502 -0.73284537122E+02  0.38634561296E+02 -0.15737134504E+04  0.15758925333E+04  0.00000000000E+00 0.  1.
         21    1    1    2  505  501  0.48127675189E+02  0.66377019747E+00 -0.20714001125E+03  0.21265864189E+03  0.00000000000E+00 0.  1.
          1    1    1    2  501    0 -0.45097178589E+02 -0.17068641698E+02  0.18577320890E+03  0.19192909939E+03  0.00000000000E+00 0.  1.
<scales pt_clust_3="52.65307" pt_clust_4="46.83283" pt_clust_5="48.13225" pt_clust_6="14000.00000"></scales>
<clustering>
<clus scale="   48.132">  2  5  1 -1</clus>
<clus scale="   46.833">  2  4  1 -1</clus>
<clus scale="   52.653">  2  3  1 -1</clus>
<clus scale="   48.132">  2  3  1 -1</clus>
</clustering>
</event>
<event>
 6    0  0.1631680E+002  0.5527264E+02  0.7546771E-02  0.1418814E+00
          2   -1    0    0  504    0 -0.00000000000E+00  0.00000000000E+00  0.35551467400E+04  0.35551467400E+04  0.00000000000E+00 0.  1.
         21   -1    0    0  505  502  0.00000000000E+00 -0.00000000000E+00 -0.72968166727E+02  0.72968166727E+02  0.00000000000E+00 0.  1.
         21    1    1    2  503  501  0.55053191261E+02 -0.93849869283E+02  0.21591537796E+04  0.21618935441E+04  0.00000000000E+00 0. -1.
         21    1    1    2  504  502  0.21919616049E+02  0.44503694073E+02  0.13594994413E+03  0.14471847036E+03  0.00000000000E+00 0. -1.
         21    1    1    2  505  503 -0.33107837550E+02  0.43913928798E+02 -0.55505186250E+02  0.78136980683E+02  0.00000000000E+00 0.  1.
          2    1    1    2  501    0 -0.43864969760E+02  0.54322464126E+01  0.12425800358E+04  0.12433659116E+04  0.00000000000E+00 0.  1.
<scales pt_clust_3="14000.00000" pt_clust_4="48.79423" pt_clust_5="55.27264" pt_clust_6="44.20006"></scales>
<clustering>
<clus scale="   44.200">  1  6  2 -1</clus>
<clus scale="   48.794">  1  4  2 -1</clus>
<clus scale="   55.273">  2  5  1 -1</clus>
<clus scale="   55.273">  2  3  1 -1</clus>
</clustering>
</event>
<event>
 6    0  0.1631680E+002  0.1238271E+03  0.7546771E-02  0.1236914E+00
          1   -1    0    0  505    0 -0.00000000000E+00  0.00000000000E+00  0.15496515676E+04  0.15496515676E+04  0.00000000000E+00 0.  1.
         21   -1    0    0  504  502  0.00000000000E+00 -0.00000000000E+00 -0.39955519918E+02  0.39955519918E+02  0.00000000000E+00 0. -1.
         21    1    1    2  503  502 -0.39189325888E+00  0.33365942153E+02  0.71173486896E+02  0.78607282824E+02  0.00000000000E+00 0.  1.
         21    1    1    2  504  501 -0.91044324810E+02  0.56199721254E+02  0.59942694653E+02  0.12264014184E+03  0.00000000000E+00 0. -1.
         21    1    1    2  505  503  0.28222835529E+02  0.19948515644E+02  0.43039760671E+03  0.43178301447E+03  0.00000000000E+00 0.  1.
          1    1    1    2  501    0  0.63213382540E+02 -0.10951417905E+03  0.94818225940E+03  0.95657664836E+03  0.00000000000E+00 0.  1.
<scales pt_clust_3="33.36824" pt_clust_4="123.82707" pt_clust_5="34.92709" pt_clust_6="14000.00000"></scales>
<clustering>
<clus scale="   33.368">  2  3  1 -1</clus>
<clus scale="   34.927">  1  5  2 -1</clus>
<clus scale="  123.827">  2  4  1 -1</clus>
<clus scale="   33.368">  2  3  1 -1</clus>
</clustering>
</event>
<event>
 6    0  0.1631680E+002  0.7352792E+02  0.7546771E-02  0.1348491E+00
          3   -1    0    0  504    0 -0.00000000000E+00  0.00000000000E+00  0.88816528701E+02  0.88816528701E+02  0.00000000000E+00 0.  1.
         21   -1    0    0  505  502  0.00000000000E+00 -0.00000000000E+00 -0.13755916927E+04  0.13755916927E+04  0.00000000000E+00 0.  1.
         21    1    1    2  503  502 -0.56329441518E+02 -0.53527968239E+02 -0.96413544884E+03  0.96726181207E+03  0.00000000000E+00 0.  1.
         21    1    1    2  504  503  0.50325261172E+02  0.10124743157E+03  0.32961972557E+02  0.11777166870E+03  0.00000000000E+00 0.  1.
         21    1    1    2  505  501  0.32745322854E+02 -0.14942169397E+02 -0.32543240665E+03  0.32741682286E+03  0.00000000000E+00 0.  1.
          3    1    1    2  501    0 -0.26741142508E+02 -0.32777293939E+02 -0.30169281079E+02  0.51957917794E+02  0.00000000000E+00 0.  1.
<scales pt_clust_3="14000.00000" pt_clust_4="73.52792" pt_clust_5="35.99340" pt_clust_6="41.96687"></scales>
<clustering>
<clus scale="   35.993">  2  5  1 -1</clus>
<clus scale="   41.967">  1  6  2 -1</clus>
<clus scale="   73.528">  1  4  2 -1</clus>
<clus scale="   35.993">  2  3  1 -1</clus>
</clustering>
</event>
<event>
 6    0  0.1631680E+002  0.4255529E+03  0.7546771E-02  0.1035274E+00
         21   -1    0    0  501  502  0.00000000000E+00  0.00000000000E+00  0.12137740322E+03  0.12137740322E+03  0.00000000000E+00 0.  1.
          2   -1    0    0  505    0 -0.00000000000E+00 -0.00000000000E+00 -0.26171764027E+04  0.26171764027E+04  0.00000000000E+00 0. -1.
         21    1    1    2  503  504  0.16911784399E+03  0.17103608532E+03 -0.30040084899E+03  0.38483094692E+03  0.00000000000E+00 0.  1.
         21    1    1    2  504  502  0.95427603523E+02  0.12739249167E+03 -0.73723110895E+02  0.17541485549E+03  0.00000000000E+00 0.  1.
         21    1    1    2  505  503  0.41256877876E+02  0.25031500921E+02 -0.19541676480E+03  0.20128690463E+03  0.00000000000E+00 0. -1.
          2    1    1    2  501    0 -0.30580232538E+03 -0.32346007791E+03 -0.19262582748E+04  0.19770210989E+04  0.00000000000E+00 0. -1.
<scales pt_clust_3="98.54025" pt_clust_4="98.54025" pt_clust_5="48.25667" pt_clust_6="407.71623"></scales>
<clustering>
<clus scale="   48.257">  2  5  1 -1</clus>
<clus scale="   98.540">  3  4 -1 -1</clus>
<clus scale="  407.716">  2  6  1 -1</clus>
<clus scale="  425.553">  1  3  2 -1</clus>
</clustering>
</event>
<event>
 6    0  0.1631680E+002  0.9315430E+02  0.7546771E-02  0.1295388E+00
          2   -1    0    0  503    0 -0.00000000000E+00  0.00000000000E+00  0.25068276984E+04  0.25068276984E+04  0.00000000000E+00 0. -1.
         21   -1    0    0  501  502  0.00000000000E+00 -0.00000000000E+00 -0.10558548257E+02  0.10558548257E+02  0.00000000000E+00 0. -1.
         21    1    1    2  503  504 -0.51038623907E+02  0.73616031873E+02  0.61081512656E+03  0.61734866981E+03  0.00000000000E+00 0. -1.
         21    1    1    2  504  505 -0.48879614077E+02 -0.51461604087E-01  0.19105287697E+03  0.19720654431E+03  0.00000000000E+00 0. -1.
         21    1    1    2  505  502  0.35358512306E+01 -0.41639492184E+02  0.17032329469E+03  0.17537495337E+03  0.00000000000E+00 0.  1.
          2    1    1    2  501    0  0.96382386754E+02 -0.31925078084E+02  0.15240778519E+04  0.15274560792E+04  0.00000000000E+00 0. -1.
<scales pt_clust_3="93.15430" pt_clust_4="50.14658" pt_clust_5="41.78935" pt_clust_6="14000.00000"></scales>
<clustering>
<clus scale="   41.789">  2  5  1 -1</clus>
<clus scale="   50.147">  2  4  1 -1</clus>
<clus scale="   93.154">  2  3  1 -1</clus>
<clus scale="   41.789">  2  3  1 -1</clus>
</clustering>
</event>
<event>
 6    0  0.1631680E+002  0.9124014E+02  0.7546771E-02  0.1299876E+00
         21   -1    0    0  504  502  0.00000000000E+00  0.00000000000E+00  0.59210240899E+02  0.59210240899E+02  0.00000000000E+00 0. -1.
          1   -1    0    0  505    0 -0.00000000000E+00 -0.00000000000E+00 -0.26075762996E+04  0.26075762996E+04  0.00000000000E+00 0.  1.
         21    1    1    2  503  502 -0.52148927276E+02  0.32976266251E+02  0.31045720270E+02  0.69070844059E+02  0.00000000000E+00 0. -1.
         21    1    1    2  504  501  0.14425733435E+02  0.59891947629E+02 -0.18291555060E+03  0.19301099924E+03  0.00000000000E+00 0. -1.
         21    1    1    2  505  503  0.45584093160E+01  0.42970937472E+02 -0.10671731224E+04  0.10680476365E+04  0.00000000000E+00 0. -1.
          1    1    1    2  501    0  0.33164784525E+02 -0.13583915135E+03 -0.13293231059E+04  0.13366570607E+04  0.00000000000E+00 0.  1.
<scales pt_clust_3="61.93827" pt_clust_4="14000.00000" pt_clust_5="43.21204" pt_clust_6="91.24014"></scales>
<clustering>
<clus scale="   43.212">  2  5  1 -1</clus>
<clus scale="   61.938">  1  3  2 -1</clus>
<clus scale="   91.240">  2  6  1 -1</clus>
<clus scale="   61.938">  1  3  2 -1</clus>
</clustering>
</event>
<event>
 6    0  0.1631680E+002  0.1098883E+03  0.7546771E-02  0.1260777E+00
         -3   -1    0    0    0  501 -0.00000000000E+00  0.00000000000E+00  0.34823402396E+03  0.34823402396E+03  0.00000000000E+00 0. -1.
         21   -1    0    0  504  502  0.00000000000E+00 -0.00000000000E+00 -0.14345515658E+03  0.14345515658E+03  0.00000000000E+00 0. -1.
         21    1    1    2  503  502  0.27267286276E+02  0.96045397509E+02  0.66494023391E+01  0.10006216985E+03  0.00000000000E+00 0. -1.
         21    1    1    2  504  501  0.43044109953E+02 -0.23652574522E+02  0.11005668644E+03  0.12051852104E+03  0.00000000000E+00 0.  1.
         21    1    1    2  505  503  0.75474508944E+02 -0.66897319976E+02  0.30894342308E+00  0.10085508597E+03  0.00000000000E+00 0. -1.
         -3    1    1    2    0  505 -0.14578590517E+03 -0.54955030117E+01  0.87763835169E+02  0.17025340368E+03  0.00000000000E+00 0. -1.
<scales pt_clust_3="97.93761" pt_clust_4="49.11456" pt_clust_5="14000.00000" pt_clust_6="109.88834"></scales>
<clustering>
<clus scale="   49.115">  1  4  2 -1</clus>
<clus scale="   97.938">  2  3  1 -1</clus>
<clus scale="  109.888">  1  6  2 -1</clus>
<clus scale="   97.938">  2  3  1 -1</clus>
</clustering>
</event>
<event>
 6    0  0.1631680E+002  0.1003197E+03  0.7546771E-02  0.1279625E+00
         -2   -1    0    0    0  501 -0.00000000000E+00  0.00000000000E+00  0.32017321092E+04  0.32017321092E+04  0.00000000000E+00 0. -1.
         21   -1    0    0  504  502  0.00000000000E+00 -0.00000000000E+00 -0.22957520223E+02  0.22957520223E+02  0.00000000000E+00 0. -1.
         21    1    1    2  503  501  0.36706040774E+02  0.33035198675E+02  0.24200765792E+04  0.24205803657E+04  0.00000000000E+00 0. -1.
         21    1    1    2  504  503 -0.20777708031E+02  0.25033798205E+02  0.25642702277E+02  0.41424055615E+02  0.00000000000E+00 0. -1.
         21    1    1    2  505  502  0.17728097509E+01  0.75484848510E+02  0.24428867696E+03  0.25569134303E+03  0.00000000000E+00 0. -1.
         -2    1    1    2    0  505 -0.17701142495E+02 -0.13355384539E+03  0.48876663056E+03  0.50699386506E+03  0.00000000000E+00 0. -1.
<scales pt_clust_3="49.40754" pt_clust_4="32.53312" pt_clust_5="100.31966" pt_clust_6="14000.00000"></scales>
<clustering>
<clus scale="   32.533">  2  4  1 -1</clus>
<clus scale="   49.408">  1  3  2 -1</clus>
<clus scale="  100.320">  2  5  1 -1</clus>
<clus scale="   32.533">  2  3  1 -1</clus>
</clustering>
</event>
<event>
 6    0  0.1631680E+002  0.1584816E+03  0.7546771E-02  0.1190422E+00
         -4   -1    0    0    0  501 -0.00000000000E+00  0.00000000000E+00  0.17157990231E+04  0.17157990231E+04  0.00000000000E+00 0. -1.
         21   -1    0    0  503  502  0.00000000000E+00 -0.00000000000E+00 -0.40308513003E+04  0.40308513003E+04  0.00000000000E+00 0. -1.
         21    1    1    2  503  505  0.37674635633E+01 -0.15034891740E+03 -0.29165810159E+04  0.29204560967E+04  0.00000000000E+00 0. -1.
         21    1    1    2  504  502  0.14878308476E+03  0.10595889268E+03 -0.11000710180E+04  0.11151322513E+04  0.00000000000E+00 0. -1.
         21    1    1    2  505  501 -0.20325208703E+02  0.22388569828E+02  0.11848882751E+03  0.12228640322E+03  0.00000000000E+00 0. -1.
         -4    1    1    2    0  504 -0.13222533962E+03  0.22001454884E+02  0.15831109292E+04  0.15887755721E+04  0.00000000000E+00 0. -1.
<scales pt_clust_3="150.36832" pt_clust_4="158.48160" pt_clust_5="30.23842" pt_clust_6="14000.00000"></scales>
<clustering>
<clus scale="   30.238">  1  5  2 -1</clus>
<clus scale="  150.368">  2  3  1 -1</clus>
<clus scale="  158.482">  2  4  1 -1</clus>
<clus scale="  150.368">  2  3  1 -1</clus>
</clustering>
</event>
<event>
 6    0  0.1631680E+002  0.8940970E+02  0.7546771E-02  0.1304288E+00
          1   -1    0    0  504    0 -0.00000000000E+00  0.00000000000E+00  0.12641512058E+04  0.12641512058E+04  0.00000000000E+00 0. -1.
         21   -1    0    0  503  502  0.00000000000E+00 -0.00000000000E+00 -0.51241615868E+03  0.51241615868E+03  0.00000000000E+00 0.  1.
         21    1    1    2  503  501 -0.38638312102E+02 -0.51698075475E+01 -0.13498792962E+03  0.14050404697E+03  0.00000000000E+00 0.  1.
         21    1    1    2  504  505 -0.34812529765E+01  0.39675200059E+02  0.12549896128E+03  0.13166711778E+03  0.00000000000E+00 0.  1.
         21    1    1    2  505  502  0.11334915468E+03 -0.43700487606E+02 -0.36047794847E+03  0.38039731179E+03  0.00000000000E+00 0.  1.
          1    1    1    2  501    0 -0.71229589606E+02  0.91950950953E+01  0.11217019640E+04  0.11239988880E+04  0.00000000000E+00 0. -1.
<scales pt_clust_3="38.98264" pt_clust_4="39.81433" pt_clust_5="14000.00000" pt_clust_6="89.40970"></scales>
<clustering>
<clus scale="   38.983">  2  3  1 -1</clus>
<clus scale="   39.814">  1  4  2 -1</clus>
<clus scale="   89.410">  1  6  2 -1</clus>
<clus scale="   38.983">  2  3  1 -1</clus>
</clustering>
</event>
<event>
 6    0  0.1631680E+002  0.3285057E+03  0.7546771E-02  0.1071800E+00
         21   -1    0    0  503  502  0.00000000000E+00  0.00000000000E+00  0.38273375726E+03  0.38273375726E+03  0.00000000000E+00 0. -1.
          1   -1    0    0  505    0 -0.00000000000E+00 -0.00000000000E+00 -0.19818116217E+04  0.19818116217E+04  0.00000000000E+00 0. -1.
         21    1    1    2  503  501 -0.41847078409E+02  0.16904050463E+02  0.14424801276E+03  0.15114368686E+03  0.00000000000E+00 0. -1.
         21    1    1    2  504  502  0.23805128953E+02 -0.32563726641E+03 -0.15285138389E+02  0.32686380787E+03  0.00000000000E+00 0. -1.
         21    1    1    2  505  504 -0.16131884122E+02 -0.50523551077E+02 -0.13933145638E+04  0.13943236140E+04  0.00000000000E+00 0. -1.
          1    1    1    2  501    0  0.34173833578E+02  0.35925676703E+03 -0.33472617499E+03  0.49221427019E+03  0.00000000000E+00 0. -1.
<scales pt_clust_3="45.13230" pt_clust_4="14000.00000" pt_clust_5="53.02931" pt_clust_6="328.50573"></scales>
<clustering>
<clus scale="   45.132">  1  3  2 -1</clus>
<clus scale="   53.029">  2  5  1 -1</clus>
<clus scale="  328.506">  2  6  1 -1</clus>
<clus scale="   45.132">  1  3  2 -1</clus>
</clustering>
</event>
<event>
 6    0  0.1631680E+002  0.5925247E+02  0.7546771E-02  0.1400996E+00
         21   -1    0    0  503  502  0.00000000000E+00  0.00000000000E+00  0.51403124570E+03  0.51403124570E+03  0.00000000000E+00 0.  1.
         -1   -1    0    0    0  501 -0.00000000000E+00 -0.00000000000E+00 -0.14071129421E+03  0.14071129421E+03  0.00000000000E+00 0.  1.
         21    1    1    2  503  504 -0.67281529317E+01 -0.45630846883E+02  0.88350473231E+02  0.99665682907E+02  0.00000000000E+00 0.  1.
         21    1    1    2  504  505  0.52452889624E+02  0.40916483010E+02  0.36592406810E+03  0.37192188403E+03  0.00000000000E+00 0.  1.
         21    1    1    2  505  501  0.35198752639E+02  0.41595774802E+02 -0.76747160385E+02  0.94123787088E+02  0.00000000000E+00 0.  1.
         -1    1    1    2    0  502 -0.80923489331E+02 -0.36881410929E+02 -0.42074294562E+01  0.89031185886E+02  0.00000000000E+00 0.  1.
<scales pt_clust_3="46.12420" pt_clust_4="46.55081" pt_clust_5="59.25247" pt_clust_6="14000.00000"></scales>
<clustering>
<clus scale="   46.124">  1  3  2 -1</clus>
<clus scale="   46.551">  1  4  2 -1</clus>
<clus scale="   59.252">  2  5  1 -1</clus>
<clus scale="   46.124">  1  3  2 -1</clus>
</clustering>
</event>
<event>
 6    0  0.1631680E+002  0.1350506E+03  0.7546771E-02  0.1220148E+00
         21   -1    0    0  501  502  0.00000000000E+00  0.00000000000E+00  0.28554419615E+03  0.28554419615E+03  0.00000000000E+00 0. -1.
          1   -1    0    0  503    0 -0.00000000000E+00 -0.00000000000E+00 -0.16271528933E+04  0.16271528933E+04  0.00000000000E+00 0. -1.
         21    1    1    2  503  505  0.59655061190E+02 -0.25626170127E+02 -0.32303090497E+03  0.32949111139E+03  0.00000000000E+00 0. -1.
         21    1    1    2  504  502  0.12933545133E+02  0.29690877420E+02  0.24887348796E+03  0.25097178686E+03  0.00000000000E+00 0. -1.
         21    1    1    2  505  504 -0.61467907733E+02 -0.14778440509E+03 -0.20517283332E+03  0.26021995619E+03  0.00000000000E+00 0. -1.
          1    1    1    2  501    0 -0.11120698590E+02  0.14371969780E+03 -0.10622784469E+04  0.10720142351E+04  0.00000000000E+00 0. -1.
<scales pt_clust_3="65.00761" pt_clust_4="32.38556" pt_clust_5="135.05060" pt_clust_6="14000.00000"></scales>
<clustering>
<clus scale="   32.386">  1  4  2 -1</clus>
<clus scale="   65.008">  2  3  1 -1</clus>
<clus scale="  135.051">  1  5  2 -1</clus>
<clus scale="   32.386">  1  3  2 -1</clus>
</clustering>
</event>
<event>
 6    0  0.1631680E+002  0.1062440E+03  0.7546771E-02  0.1267688E+00
          1   -1    0    0  504    0 -0.00000000000E+00  0.00000000000E+00  0.69422319352E+03  0.69422319352E+03  0.00000000000E+00 0.  1.
         21   -1    0    0  501  502  0.00000000000E+00 -0.00000000000E+00 -0.25191123605E+03  0.25191123605E+03  0.00000000000E+00 0. -1.
         21    1    1    2  503  502 -0.74965863714E+02  0.72695372133E+02 -0.18744846987E+03  0.21457266067E+03  0.00000000000E+00 0. -1.
         21    1    1    2  504  505 -0.31045651486E+02  0.53095464886E+01  0.52572198824E+03  0.52666463018E+03  0.00000000000E+00 0.  1.
         21    1    1    2  505  503  0.11656060627E+03 -0.46620978143E+02  0.38232259727E+02  0.13123107948E+03  0.00000000000E+00 0. -1.
          1    1    1    2  501    0 -0.10549091071E+02 -0.31383940478E+02  0.65806179361E+02  0.73666059243E+02  0.00000000000E+00 0.  1.
<scales pt_clust_3="14000.00000" pt_clust_4="31.49641" pt_clust_5="106.24397" pt_clust_6="37.42503"></scales>
<clustering>
<clus scale="   31.496">  1  4  2 -1</clus>
<clus scale="   37.425">  1  6  2 -1</clus>
<clus scale="  106.244">  1  5  2 -1</clus>
<clus scale="  106.244">  2  3  1 -1</clus>
</clustering>
</event>
<event>
 6    0  0.1631680E+002  0.1832221E+03  0.7546771E-02  0.1164721E+00
         21   -1    0    0  501  502  0.00000000000E+00  0.00000000000E+00  0.40633819300E+02  0.40633819300E+02  0.00000000000E+00 0.  1.
          2   -1    0    0  504    0 -0.00000000000E+00 -0.00000000000E+00 -0.14109027394E+04  0.14109027394E+04  0.00000000000E+00 0. -1.
         21    1    1    2  503  502 -0.42289366863E+02 -0.20250688357E+01 -0.31417776581E+02  0.52721609789E+02  0.00000000000E+00 0.  1.
         21    1    1    2  504  505 -0.49357380151E+02  0.32214360761E+02 -0.47890509219E+03  0.48251839690E+03  0.00000000000E+00 0.  1.
         21    1    1    2  505  503 -0.11084803526E+03 -0.19016907693E+02 -0.27099334825E+03  0.29340471110E+03  0.00000000000E+00 0.  1.
          2    1    1    2  501    0  0.20249478228E+03 -0.11172384232E+02 -0.58895270308E+03  0.62289184092E+03  0.00000000000E+00 0. -1.
<scales pt_clust_3="40.96167" pt_clust_4="58.93994" pt_clust_5="40.96167" pt_clust_6="170.62596"></scales>
<clustering>
<clus scale="   40.962">  3  5 -1 -1</clus>
<clus scale="   58.940">  2  4  1 -1</clus>
<clus scale="  170.626">  2  6  1 -1</clus>
<clus scale="  183.222">  1  3  2 -1</clus>
</clustering>
</event>
<event>
 6    0  0.1631680E+002  0.1032088E+03  0.7546771E-02  0.1273690E+00
          1   -1    0    0  504    0 -0.00000000000E+00  0.00000000000E+00  0.12183425772E+04  0.12183425772E+04  0.00000000000E+00 0. -1.
         21   -1    0    0  505  502  0.00000000000E+00 -0.00000000000E+00 -0.59134513822E+02  0.59134513822E+02  0.00000000000E+00 0. -1.
         21    1    1    2  503  501 -0.10114989392E+03 -0.26987893627E+02  0.38162829544E+03  0.39572693025E+03  0.00000000000E+00 0. -1.
         21    1    1    2  504  502  0.52452544972E+02  0.11047327225E+03  0.94711457668E+02  0.15467990680E+03  0.00000000000E+00 0. -1.
         21    1    1    2  505  503 -0.30531367806E+02 -0.15455869272E+02 -0.20068561025E+01  0.34279378444E+02  0.00000000000E+00 0. -1.
          1    1    1    2  501    0  0.79228716758E+02 -0.68029509347E+02  0.68487516632E+03  0.69279087548E+03  0.00000000000E+00 0. -1.
<scales pt_clust_3="96.74726" pt_clust_4="14000.00000" pt_clust_5="34.22058" pt_clust_6="103.20875"></scales>
<clustering>
<clus scale="   34.221">  2  5  1 -1</clus>
<clus scale="  103.209">  1  6  2 -1</clus>
<clus scale="   96.747">  1  3  2 -1</clus>
<clus scale="   34.221">  2  3  1 -1</clus>
</clustering>
</event>
<event>
 6    0  0.2239650E+002  0.8226918E+02  0.7546771E-02  0.1322732E+00
         21   -1    0    0  505  502  0.00000000000E+00  0.00000000000E+00  0.31455731195E+03  0.31455731195E+03  0.00000000000E+00 0. -1.
          2   -1    0    0  503    0 -0.00000000000E+00 -0.00000000000E+00 -0.23970360197E+04  0.23970360197E+04  0.00000000000E+00 0.  1.
         21    1    1    2  503  504  0.24960686734E+02  0.22606624678E+02 -0.50814274310E+02  0.60960526862E+02  0.00000000000E+00 0.  1.
         21    1    1    2  504  502  0.41323727924E+02  0.12374818261E+03  0.26069162834E+03  0.29151567415E+03  0.00000000000E+00 0. -1.
         21    1    1    2  505  501  0.24587388517E+02 -0.76985013173E+02 -0.19170574937E+02  0.83058671255E+02  0.00000000000E+00 0.  1.
          2    1    1    2  501    0 -0.90871803175E+02 -0.69369794113E+02 -0.22731854869E+04  0.22760584594E+04  0.00000000000E+00 0.  1.
<scales pt_clust_3="33.67633" pt_clust_4="82.26918" pt_clust_5="80.51444" pt_clust_6="14000.00000"></scales>
<clustering>
<clus scale="   33.676">  2  3  1 -1</clus>
<clus scale="   80.514">  1  5  2 -1</clus>
<clus scale="   82.269">  1  4  2 -1</clus>
<clus scale="   80.514">  1  3  2 -1</clus>
</clustering>
</event>
<event>
 6    0  0.1631680E+002  0.1365744E+03  0.7546771E-02  0.1218014E+00
         21   -1    0    0  505  502  0.00000000000E+00  0.00000000000E+00  0.50778782543E+03  0.50778782543E+03  0.00000000000E+00 0. -1.
          2   -1    0    0  504    0 -0.00000000000E+00 -0.00000000000E+00 -0.23447120971E+04  0.23447120971E+04  0.00000000000E+00 0. -1.
         21    1    1    2  503  502 -0.12897421902E+03 -0.95738432798E+02  0.45969028173E+02  0.16707288301E+03  0.00000000000E+00 0. -1.
         21    1    1    2  504  503 -0.26871385729E+02 -0.22601500456E+02 -0.73881783464E+02  0.81801082644E+02  0.00000000000E+00 0. -1.
         21    1    1    2  505  501  0.44265865674E+02 -0.87192301620E+01  0.39277396086E+03  0.39535664427E+03  0.00000000000E+00 0. -1.
          2    1    1    2  501    0  0.11157973907E+03  0.12705916342E+03 -0.22017854773E+04  0.22082693126E+04  0.00000000000E+00 0. -1.
<scales pt_clust_3="14000.00000" pt_clust_4="35.11266" pt_clust_5="45.10390" pt_clust_6="136.57443"></scales>
<clustering>
<clus scale="   35.113">  2  4  1 -1</clus>
<clus scale="   45.104">  1  5  2 -1</clus>
<clus scale="  136.574">  2  6  1 -1</clus>
<clus scale="   45.104">  1  3  2 -1</clus>
</clustering>
</event>
<event>
 6    0  0.1631680E+002  0.1075256E+03  0.7546771E-02  0.1265222E+00
          2   -1    0    0  503    0 -0.00000000000E+00  0.00000000000E+00  0.32789693441E+04  0.32789693441E+04  0.00000000000E+00 0.  1.
         21   -1    0    0  505  502  0.00000000000E+00 -0.00000000000E+00 -0.26845167082E+02  0.26845167082E+02  0.00000000000E+00 0. -1.
         21    1    1    2  503  504 -0.38016365814E+02 -0.45854357189E+02  0.23022955046E+03  0.23780982327E+03  0.00000000000E+00 0. -1.
         21    1    1    2  504  502  0.36661339693E+02 -0.21471028439E+02  0.14248181705E+03  0.14868129365E+03  0.00000000000E+00 0. -1.
         21    1    1    2  505  501 -0.18113305489E+01 -0.43781647558E+02  0.65439018619E+01  0.44305036202E+02  0.00000000000E+00 0. -1.
          2    1    1    2  501    0  0.31663566704E+01  0.11110703319E+03  0.28728689077E+04  0.28750183581E+04  0.00000000000E+00 0.  1.
<scales pt_clust_3="58.84919" pt_clust_4="42.48598" pt_clust_5="14000.00000" pt_clust_6="107.52562"></scales>
<clustering>
<clus scale="   42.486">  2  4  1 -1</clus>
<clus scale="   58.849">  2  3  1 -1</clus>
<clus scale="  107.526">  1  6  2 -1</clus>
<clus scale="   42.486">  2  3  1 -1</clus>
</clustering>
</event>
<event>
 6    0  0.1631680E+002  0.1598935E+03  0.7546771E-02  0.1188817E+00
         21   -1    0    0  505  502  0.00000000000E+00  0.00000000000E+00  0.32575391669E+03  0.32575391669E+03  0.00000000000E+00 0. -1.
          2   -1    0    0  503    0 -0.00000000000E+00 -0.00000000000E+00 -0.21811680517E+04  0.21811680517E+04  0.00000000000E+00 0.  1.
         21    1    1    2  503  504 -0.18724309683E+02  0.32477325597E+02 -0.26563441105E+03  0.26826668966E+03  0.00000000000E+00 0.  1.
         21    1    1    2  504  502 -0.21476833535E+02  0.12034806630E+03 -0.34003095820E+03  0.36133912600E+03  0.00000000000E+00 0.  1.
         21    1    1    2  505  501  0.10445727961E+02  0.48486211991E+02  0.30515142285E+03  0.30915597496E+03  0.00000000000E+00 0. -1.
          2    1    1    2  501    0  0.29755415258E+02 -0.20131160389E+03 -0.15549001886E+04  0.15681601778E+04  0.00000000000E+00 0.  1.
<scales pt_clust_3="37.48835" pt_clust_4="14000.00000" pt_clust_5="49.62774" pt_clust_6="159.89347"></scales>
<clustering>
<clus scale="   37.488">  2  3  1 -1</clus>
<clus scale="   49.628">  1  5  2 -1</clus>
<clus scale="  159.893">  2  6  1 -1</clus>
<clus scale="   49.628">  1  3  2 -1</clus>
</clustering>
</event>
<event>
 6    0  0.1631680E+002  0.9998957E+02  0.7546771E-02  0.1280318E+00
         -4   -1    0    0    0  501 -0.00000000000E+00  0.00000000000E+00  0.81372797341E+03  0.81372797341E+03  0.00000000000E+00 0. -1.
         21   -1    0    0  505  502  0.00000000000E+00 -0.00000000000E+00 -0.66698834899E+02  0.66698834899E+02  0.00000000000E+00 0. -1.
         21    1    1    2  503  502 -0.31255238172E+02 -0.38011741858E+01 -0.41674149744E+02  0.52230963951E+02  0.00000000000E+00 0. -1.
         21    1    1    2  504  501 -0.20107902973E+02  0.85852903358E+02  0.24013619155E+03  0.25581328986E+03  0.00000000000E+00 0. -1.
         21    1    1    2  505  504 -0.39596278596E+02 -0.73281767674E+00  0.10111143295E+03  0.10859062655E+03  0.00000000000E+00 0. -1.
         -4    1    1    2    0  503  0.90959419741E+02 -0.81318911495E+02  0.44745566375E+03  0.46379192795E+03  0.00000000000E+00 0. -1.
<scales pt_clust_3="31.48553" pt_clust_4="14000.00000" pt_clust_5="45.53865" pt_clust_6="99.98957"></scales>
<clustering>
<clus scale="   31.486">  2  3  1 -1</clus>
<clus scale="   45.539">  2  5  1 -1</clus>
<clus scale="   99.990">  2  6  1 -1</clus>
<clus scale="   31.486">  2  3  1 -1</clus>
</clustering>
</event>
<event>
 6    0  0.3016956E+002  0.1050031E+03  0.7546771E-02  0.1270114E+00
         -2   -1    0    0    0  501 -0.00000000000E+00  0.00000000000E+00  0.19340800984E+04  0.19340800984E+04  0.00000000000E+00 0. -1.
         21   -1    0    0  504  502  0.00000000000E+00 -0.00000000000E+00 -0.24236500099E+03  0.24236500099E+03  0.00000000000E+00 0.  1.
         21    1    1    2  503  501 -0.20872771708E+02 -0.36027229893E+02  0.10307413932E+03  0.11116614633E+03  0.00000000000E+00 0. -1.
         21    1    1    2  504  503 -0.93983833970E+02  0.57979940628E+02 -0.21758141900E+03  0.24400063208E+03  0.00000000000E+00 0.  1.
         21    1    1    2  505  502  0.42407478637E+02 -0.37609679699E+02  0.11285854948E+03  0.12629304985E+03  0.00000000000E+00 0. -1.
         -2    1    1    2    0  505  0.72449127041E+02  0.15656968964E+02  0.16933638276E+04  0.16949852712E+04  0.00000000000E+00 0. -1.
<scales pt_clust_3="41.63693" pt_clust_4="105.00307" pt_clust_5="14000.00000" pt_clust_6="55.98246"></scales>
<clustering>
<clus scale="   41.637">  1  3  2 -1</clus>
<clus scale="   55.982">  1  6  2 -1</clus>
<clus scale="  105.003">  2  4  1 -1</clus>
<clus scale="  105.003">  2  3  1 -1</clus>
</clustering>
</event>
<event>
 6    0  0.1631680E+002  0.2033059E+03  0.7546771E-02  0.1146979E+00
          1   -1    0    0  504    0 -0.00000000000E+00  0.00000000000E+00  0.17610483289E+03  0.17610483289E+03  0.00000000000E+00 0.  1.
         21   -1    0    0  505  502  0.00000000000E+00 -0.00000000000E+00 -0.39271564656E+03  0.39271564656E+03  0.00000000000E+00 0.  1.
         21    1    1    2  503  501 -0.44312072237E+02  0.44900116935E+02 -0.58900910393E+02  0.86306995614E+02  0.00000000000E+00 0. -1.
         21    1    1    2  504  502  0.91240098538E+02  0.17567942891E+03 -0.11256263604E+03  0.22772431657E+03  0.00000000000E+00 0.  1.
         21    1    1    2  505  503 -0.29043323361E+02 -0.79534218343E+01 -0.27336606697E+02  0.40670156337E+02  0.00000000000E+00 0.  1.
          1    1    1    2  501    0 -0.17884702940E+02 -0.21262612402E+03 -0.17810660537E+02  0.21411901093E+03  0.00000000000E+00 0.  1.
<scales pt_clust_3="66.28075" pt_clust_4="203.30588" pt_clust_5="30.11265" pt_clust_6="14000.00000"></scales>
<clustering>
<clus scale="   30.113">  2  5  1 -1</clus>
<clus scale="   66.281">  2  3  1 -1</clus>
<clus scale="  203.306">  2  4  1 -1</clus>
<clus scale="   30.113">  2  3  1 -1</clus>
</clustering>
</event>
<event>
 6    0  0.1631680E+002  0.8219720E+02  0.7546771E-02  0.1322929E+00
         -3   -1    0    0    0  501 -0.00000000000E+00  0.00000000000E+00  0.85188410200E+03  0.85188410200E+03  0.00000000000E+00 0. -1.
         21   -1    0    0  504  502  0.00000000000E+00 -0.00000000000E+00 -0.47270766091E+03  0.47270766091E+03  0.00000000000E+00 0.  1.
         21    1    1    2  503  505  0.35271135173E+02  0.38886032771E+02  0.21638579725E+02  0.56783841484E+02  0.00000000000E+00 0. -1.
         21    1    1    2  504  503 -0.80348009916E+02 -0.17461521515E+02 -0.44369035557E+03  0.45124476624E+03  0.00000000000E+00 0.  1.
         21    1    1    2  505  501 -0.42465194383E+02  0.17393985816E+02  0.11719293374E+03  0.12585716982E+03  0.00000000000E+00 0.  1.
         -3    1    1    2    0  502  0.87542069126E+02 -0.38818497072E+02  0.68403528319E+03  0.69070598537E+03  0.00000000000E+00 0. -1.
<scales pt_clust_3="51.71119" pt_clust_4="82.19720" pt_clust_5="45.88947" pt_clust_6="14000.00000"></scales>
<clustering>
<clus scale="   45.889">  1  5  2 -1</clus>
<clus scale="   51.711">  1  3  2 -1</clus>
<clus scale="   82.197">  2  4  1 -1</clus>
<clus scale="   82.197">  2  3  1 -1</clus>
</clustering>
</event>
<event>
 6    0  0.1631680E+002  0.1759915E+03  0.7546771E-02  0.1171740E+00
         -2   -1    0    0    0  501 -0.00000000000E+00  0.00000000000E+00  0.51937064622E+02  0.51937064622E+02  0.00000000000E+00 0.  1.
         21   -1    0    0  503  502  0.00000000000E+00 -0.00000000000E+00 -0.17447739405E+04  0.17447739405E+04  0.00000000000E+00 0.  1.
         21    1    1    2  503  505 -0.10211143021E+03  0.17566600843E+03 -0.63622268181E+03  0.66788067164E+03  0.00000000000E+00 0.  1.
         21    1    1    2  504  502  0.83477531448E+02 -0.35301177069E+02 -0.66228750104E+03  0.66846047407E+03  0.00000000000E+00 0. -1.
         21    1    1    2  505  501 -0.91395837731E+01  0.43013110750E+02 -0.35770055220E+02  0.56684711681E+02  0.00000000000E+00 0.  1.
         -2    1    1    2    0  504  0.27773482534E+02 -0.18337794211E+03 -0.35855663778E+03  0.40368514771E+03  0.00000000000E+00 0.  1.
<scales pt_clust_3="175.99154" pt_clust_4="88.80241" pt_clust_5="43.97340" pt_clust_6="14000.00000"></scales>
<clustering>
<clus scale="   43.973">  1  5  2 -1</clus>
<clus scale="   88.802">  2  4  1 -1</clus>
<clus scale="  175.992">  2  3  1 -1</clus>
<clus scale="   88.802">  2  3  1 -1</clus>
</clustering>
</event>
<event>
 6    0  0.1631680E+002  0.1201156E+03  0.7546771E-02  0.1242906E+00
          2   -1    0    0  504    0 -0.00000000000E+00  0.00000000000E+00  0.12717301476E+04  0.12717301476E+04  0.00000000000E+00 0. -1.
         21   -1    0    0  505  502  0.00000000000E+00 -0.00000000000E+00 -0.17423932406E+03  0.17423932406E+03  0.00000000000E+00 0.  1.
         21    1    1    2  503  502 -0.78256358132E+02  0.19147012104E+02  0.36418561183E+03  0.37299038262E+03  0.00000000000E+00 0. -1.
         21    1    1    2  504  503  0.44418460809E+02  0.88583636492E+01  0.87594389523E+02  0.98611598420E+02  0.00000000000E+00 0.  1.
         21    1    1    2  505  501 -0.88023787815E+02  0.79913463859E+02 -0.13325184090E+03  0.17857883982E+03  0.00000000000E+00 0.  1.
          2    1    1    2  501    0  0.12186168514E+03 -0.10791883961E+03  0.77896266312E+03  0.79578865082E+03  0.00000000000E+00 0. -1.
<scales pt_clust_3="67.99476" pt_clust_4="45.29316" pt_clust_5="14000.00000" pt_clust_6="120.11561"></scales>
<clustering>
<clus scale="   45.293">  1  4  2 -1</clus>
<clus scale="   67.995">  1  3  2 -1</clus>
<clus scale="  120.116">  1  6  2 -1</clus>
<clus scale="  120.116">  2  3  1 -1</clus>
</clustering>
</event>
<event>
 6    0  0.1631680E+002  0.6197355E+02  0.7546771E-02  0.1389731E+00
         21   -1    0    0  505  502  0.00000000000E+00  0.00000000000E+00  0.34749776663E+03  0.34749776663E+03  0.00000000000E+00 0. -1.
          4   -1    0    0  503    0 -0.00000000000E+00 -0.00000000000E+00 -0.10795107904E+03  0.10795107904E+03  0.00000000000E+00 0. -1.
         21    1    1    2  503  504 -0.46129017719E+02 -0.31547651070E+02 -0.53369888954E+02  0.77275388130E+02  0.00000000000E+00 0. -1.
         21    1    1    2  504  502 -0.45539509769E+02  0.23914394875E+02  0.16701524254E+03  0.17475650624E+03  0.00000000000E+00 0. -1.
         21    1    1    2  505  501  0.14456477893E+01 -0.43619065176E+02  0.77446347540E+02  0.88896847479E+02  0.00000000000E+00 0. -1.
          4    1    1    2  501    0  0.90222879699E+02  0.51252321371E+02  0.48454986459E+02  0.11452010382E+03  0.00000000000E+00 0. -1.
<scales pt_clust_3="61.97355" pt_clust_4="44.81027" pt_clust_5="43.64301" pt_clust_6="14000.00000"></scales>
<clustering>
<clus scale="   43.643">  1  5  2 -1</clus>
<clus scale="   44.810">  1  4  2 -1</clus>
<clus scale="   61.974">  2  3  1 -1</clus>
<clus scale="   43.643">  1  3  2 -1</clus>
</clustering>
</event>
<event>
 6    0  0.1631680E+002  0.1290101E+03  0.7546771E-02  0.1228932E+00
          2   -1    0    0  503    0 -0.00000000000E+00  0.00000000000E+00  0.96632100827E+03  0.96632100827E+03  0.00000000000E+00 0. -1.
         21   -1    0    0  501  502  0.00000000000E+00 -0.00000000000E+00 -0.76339839479E+02  0.76339839479E+02  0.00000000000E+00 0. -1.
         21    1    1    2  503  504  0.28776477418E+02 -0.41500007604E+02  0.16415660307E+03  0.17174902216E+03  0.00000000000E+00 0. -1.
         21    1    1    2  504  505 -0.51871661623E+01 -0.47848667797E+02  0.60540464051E+02  0.77340477696E+02  0.00000000000E+00 0.  1.
         21    1    1    2  505  502  0.34098831272E+02 -0.25924584543E+02 -0.50530506807E+02  0.66243086402E+02  0.00000000000E+00 0. -1.
          2    1    1    2  501    0 -0.57688142527E+02  0.11527325994E+03  0.71581460848E+03  0.72732826149E+03  0.00000000000E+00 0. -1.
<scales pt_clust_3="54.13119" pt_clust_4="54.13119" pt_clust_5="42.83473" pt_clust_6="116.73233"></scales>
<clustering>
<clus scale="   42.835">  2  5  1 -1</clus>
<clus scale="   54.131">  3  4 -1 -1</clus>
<clus scale="  116.732">  1  6  2 -1</clus>
<clus scale="   42.835">  2  3  1 -1</clus>
</clustering>
</event>
<event>
 6    0  0.1631680E+002  0.1061710E+03  0.7546771E-02  0.1267829E+00
          2   -1    0    0  502    0 -0.00000000000E+00  0.00000000000E+00  0.22550879075E+04  0.22550879075E+04  0.00000000000E+00 0.  1.
         21   -1    0    0  505  502  0.00000000000E+00 -0.00000000000E+00 -0.12724354740E+03  0.12724354740E+03  0.00000000000E+00 0.  1.
         21    1    1    2  503  504  0.71303909255E+01  0.59793049865E+02  0.33653453403E+03  0.34187942887E+03  0.00000000000E+00 0.  1.
         21    1    1    2  504  501  0.79664956052E+02 -0.32970229382E+02  0.52964578397E+03  0.53661736622E+03  0.00000000000E+00 0. -1.
         21    1    1    2  505  503  0.43768864480E+02 -0.78885653342E+00 -0.11380676620E+03  0.12193570365E+03  0.00000000000E+00 0.  1.
          2    1    1    2  501    0 -0.13056421146E+03 -0.26033963949E+02  0.13754708082E+04  0.13818989561E+04  0.00000000000E+00 0.  1.
<scales pt_clust_3="62.71317" pt_clust_4="106.17101" pt_clust_5="43.77597" pt_clust_6="14000.00000"></scales>
<clustering>
<clus scale="   43.776">  2  5  1 -1</clus>
<clus scale="   62.713">  2  3  1 -1</clus>
<clus scale="  106.171">  2  4  1 -1</clus>
<clus scale="   43.776">  2  3  1 -1</clus>
</clustering>
</event>
<event>
 6    0  0.1631680E+002  0.1301339E+03  0.7546771E-02  0.1227257E+00
         21   -1    0    0  505  502  0.00000000000E+00  0.00000000000E+00  0.20343262285E+03  0.20343262285E+03  0.00000000000E+00 0.  1.
          1   -1    0    0  503    0 -0.00000000000E+00 -0.00000000000E+00 -0.25717487934E+04  0.25717487934E+04  0.00000000000E+00 0.  1.
         21    1    1    2  503  504  0.62919947283E+02 -0.95641145542E+02 -0.13372246275E+04  0.13421161846E+04  0.00000000000E+00 0.  1.
         21    1    1    2  504  502 -0.26270648861E+02 -0.39677098441E+02  0.18605812754E+03  0.19204698893E+03  0.00000000000E+00 0.  1.
         21    1    1    2  505  501  0.21950309819E+02 -0.44267012093E+02 -0.17297871584E+03  0.17989725010E+03  0.00000000000E+00 0. -1.
          1    1    1    2  501    0 -0.58599608241E+02  0.17958525608E+03 -0.10441709547E+04  0.10611209926E+04  0.00000000000E+00 0.  1.
<scales pt_clust_3="14000.00000" pt_clust_4="47.58591" pt_clust_5="56.03588" pt_clust_6="130.13387"></scales>
<clustering>
<clus scale="   47.586">  1  4  2 -1</clus>
<clus scale="   56.036">  1  5  2 -1</clus>
<clus scale="  130.134">  1  6  2 -1</clus>
<clus scale="   47.586">  1  3  2 -1</clus>
</clustering>
</event>
<event>
 6    0  0.1631680E+002  0.1041638E+03  0.7546771E-02  0.1271776E+00
         21   -1    0    0  505  502  0.00000000000E+00  0.00000000000E+00  0.11026302222E+03  0.11026302222E+03  0.00000000000E+00 0.  1.
          2   -1    0    0  504    0 -0.00000000000E+00 -0.00000000000E+00 -0.13397905850E+04  0.13397905850E+04  0.00000000000E+00 0. -1.
         21    1    1    2  503  501 -0.45387091933E+02  0.86077601675E+02 -0.14829383305E+03  0.17737080522E+03  0.00000000000E+00 0. -1.
         21    1    1    2  504  502  0.10160811430E+02 -0.29943404671E+02 -0.90913685863E+03  0.90968658190E+03  0.00000000000E+00 0. -1.
         21    1    1    2  505  503  0.79364832252E+02 -0.70900179022E+02  0.62775191259E+02  0.12355701769E+03  0.00000000000E+00 0.  1.
          2    1    1    2  501    0 -0.44138551748E+02  0.14765982017E+02 -0.23487206232E+03  0.23943920237E+03  0.00000000000E+00 0. -1.
<scales pt_clust_3="104.16379" pt_clust_4="31.62040" pt_clust_5="14000.00000" pt_clust_6="38.57854"></scales>
<clustering>
<clus scale="   31.620">  2  4  1 -1</clus>
<clus scale="   38.579">  2  6  1 -1</clus>
<clus scale="  104.164">  2  3  1 -1</clus>
<clus scale="  104.164">  1  3  2 -1</clus>
</clustering>
</event>
<event>
 6    0  0.1631680E+002  0.1601501E+03  0.7546771E-02  0.1188527E+00
         21   -1    0    0  505  502  0.00000000000E+00  0.00000000000E+00  0.27186134873E+03  0.27186134873E+03  0.00000000000E+00 0.  1.
         -1   -1    0    0    0  501 -0.00000000000E+00 -0.00000000000E+00 -0.47247163447E+03  0.47247163447E+03  0.00000000000E+00 0.  1.
         21    1    1    2  503  501 -0.13867294883E+03 -0.87038979203E+01 -0.18894626248E+03  0.23453493275E+03  0.00000000000E+00 0.  1.
         21    1    1    2  504  502 -0.31218183738E+02  0.39068631027E+02  0.49657359703E+02  0.70475430463E+02  0.00000000000E+00 0.  1.
         21    1    1    2  505  503 -0.33032844713E+02 -0.13036282817E+03  0.94728543344E+02  0.16449660399E+03  0.00000000000E+00 0.  1.
         -1    1    1    2    0  504  0.20292397728E+03  0.99998095066E+02 -0.15604992631E+03  0.27482601601E+03  0.00000000000E+00 0.  1.
<scales pt_clust_3="14000.00000" pt_clust_4="50.00933" pt_clust_5="118.53589" pt_clust_6="160.15006"></scales>
<clustering>
<clus scale="   50.009">  1  4  2 -1</clus>
<clus scale="  118.536">  1  5  2 -1</clus>
<clus scale="  160.150">  1  6  2 -1</clus>
<clus scale="   50.009">  1  3  2 -1</clus>
</clustering>
</event>
<event>
 6    0  0.1631680E+002  0.8138268E+02  0.7546771E-02  0.1325173E+00
         21   -1    0    0  503  502  0.00000000000E+00  0.00000000000E+00  0.11932422078E+04  0.11932422078E+04  0.00000000000E+00 0. -1.
          1   -1    0    0  504    0 -0.00000000000E+00 -0.00000000000E+00 -0.13576028439E+03  0.13576028439E+03  0.00000000000E+00 0. -1.
         21    1    1    2  503  501 -0.13923573559E+02  0.80086246587E+02  0.10409841420E+04  0.10441530810E+04  0.00000000000E+00 0. -1.
         21    1    1    2  504  505  0.38843551679E+02 -0.32968459713E+02  0.66036575715E+02  0.83406055985E+02  0.00000000000E+00 0. -1.
         21    1    1    2  505  502 -0.71637065397E+02  0.33132476827E+02  0.24541942924E+02  0.82655532918E+02  0.00000000000E+00 0.  1.
          1    1    1    2  501    0  0.46717087277E+02 -0.80250263701E+02 -0.74080737267E+02  0.11878782219E+03  0.00000000000E+00 0. -1.
<scales pt_clust_3="81.38268" pt_clust_4="50.94841" pt_clust_5="67.77364" pt_clust_6="14000.00000"></scales>
<clustering>
<clus scale="   50.948">  2  4  1 -1</clus>
<clus scale="   67.774">  2  5  1 -1</clus>
<clus scale="   81.383">  1  3  2 -1</clus>
<clus scale="   81.383">  1  3  2 -1</clus>
</clustering>
</event>
<event>
 6    0  0.1631680E+002  0.1328759E+03  0.7546771E-02  0.1223250E+00
          2   -1    0    0  503    0 -0.00000000000E+00  0.00000000000E+00  0.67309449554E+03  0.67309449554E+03  0.00000000000E+00 0.  1.
         21   -1    0    0  505  502  0.00000000000E+00 -0.00000000000E+00 -0.10029770010E+04  0.10029770010E+04  0.00000000000E+00 0. -1.
         21    1    1    2  503  502 -0.29849618595E+02 -0.90509746450E+02 -0.89965175974E+03  0.90468574805E+03  0.00000000000E+00 0. -1.
         21    1    1    2  504  501  0.13235639649E+03  0.15629740636E+02  0.17906404026E+03  0.22321835722E+03  0.00000000000E+00 0.  1.
         21    1    1    2  505  504  0.24426681101E+02  0.18835941834E+02 -0.64923815562E+02  0.71878767947E+02  0.00000000000E+00 0. -1.
          2    1    1    2  501    0 -0.12693345900E+03  0.56044063979E+02  0.45562902957E+03  0.47628862332E+03  0.00000000000E+00 0.  1.
<scales pt_clust_3="72.59821" pt_clust_4="132.87595" pt_clust_5="30.84567" pt_clust_6="14000.00000"></scales>
<clustering>
<clus scale="   30.846">  2  5  1 -1</clus>
<clus scale="   72.598">  2  3  1 -1</clus>
<clus scale="  132.876">  2  4  1 -1</clus>
<clus scale="   30.846">  2  3  1 -1</clus>
</clustering>
</event>
<event>
 6    0  0.1631680E+002  0.1043444E+03  0.7546771E-02  0.1271417E+00
          1   -1    0    0  505    0 -0.00000000000E+00  0.00000000000E+00  0.31509609572E+03  0.31509609572E+03  0.00000000000E+00 0. -1.
         21   -1    0    0  503  502  0.00000000000E+00 -0.00000000000E+00 -0.13533819665E+03  0.13533819665E+03  0.00000000000E+00 0. -1.
         21    1    1    2  503  501 -0.31136358703E+02 -0.15938652037E+02  0.80843531001E+02  0.88086264347E+02  0.00000000000E+00 0.  1.
         21    1    1    2  504  502  0.62414993034E+02 -0.79091289284E+02 -0.91896340152E+02  0.13636715414E+03  0.00000000000E+00 0. -1.
         21    1    1    2  505  504  0.11789641288E+02  0.69585554891E+02  0.10170925497E+03  0.12379789028E+03  0.00000000000E+00 0. -1.
          1    1    1    2  501    0 -0.43068275619E+02  0.25444386430E+02  0.89101453255E+02  0.10218298360E+03  0.00000000000E+00 0. -1.
<scales pt_clust_3="34.72457" pt_clust_4="95.72542" pt_clust_5="70.57723" pt_clust_6="34.72457"></scales>
<clustering>
<clus scale="   34.725">  3  6 -1 -1</clus>
<clus scale="   70.577">  1  5  2 -1</clus>
<clus scale="   95.725">  2  4  1 -1</clus>
<clus scale="   95.725">  2  3  1 -1</clus>
</clustering>
</event>
<event>
 6    0  0.1631680E+002  0.1164582E+03  0.7546771E-02  0.1249057E+00
         21   -1    0    0  504  502  0.00000000000E+00  0.00000000000E+00  0.31091307612E+03  0.31091307612E+03  0.00000000000E+00 0. -1.
          1   -1    0    0  503    0 -0.00000000000E+00 -0.00000000000E+00 -0.31509916208E+03  0.31509916208E+03  0.00000000000E+00 0. -1.
         21    1    1    2  503  505 -0.74303403830E+02  0.79582571635E+02 -0.21111832233E+03  0.23754015987E+03  0.00000000000E+00 0. -1.
         21    1    1    2  504  501  0.74185255395E+01  0.53917204929E+02  0.10465703990E+03  0.11796268694E+03  0.00000000000E+00 0. -1.
         21    1    1    2  505  502 -0.57301131112E+02 -0.40164281477E+01  0.65950396153E+02  0.87458596344E+02  0.00000000000E+00 0. -1.
          1    1    1    2  501    0  0.12418600940E+03 -0.12948334842E+03  0.36324800311E+02  0.18305079504E+03  0.00000000000E+00 0. -1.
<scales pt_clust_3="14000.00000" pt_clust_4="54.42517" pt_clust_5="56.95463" pt_clust_6="116.45824"></scales>
<clustering>
<clus scale="   54.425">  1  4  2 -1</clus>
<clus scale="   56.955">  1  5  2 -1</clus>
<clus scale="  116.458">  1  6  2 -1</clus>
<clus scale="   54.425">  1  3  2 -1</clus>
</clustering>
</event>
<event>
 6    0  0.1631680E+002  0.1261554E+03  0.7546771E-02  0.1233275E+00
         -1   -1    0    0    0  501 -0.00000000000E+00  0.00000000000E+00  0.14937053718E+04  0.14937053718E+04  0.00000000000E+00 0.  1.
         21   -1    0    0  503  502  0.00000000000E+00 -0.00000000000E+00 -0.24971289080E+03  0.24971289080E+03  0.00000000000E+00 0.  1.
         21    1    1    2  503  505  0.40072356300E+02  0.62926160514E+01  0.72408568689E+01  0.41204620668E+02  0.00000000000E+00 0.  1.
         21    1    1    2  504  502  0.31120669469E+02  0.50418418308E+02 -0.19619352446E+03  0.20494489994E+03  0.00000000000E+00 0.  1.
         21    1    1    2  505  501 -0.53153036641E+02  0.69192555332E+02  0.35742344607E+02  0.94288759751E+02  0.00000000000E+00 0.  1.
         -1    1    1    2    0  504 -0.18039989129E+02 -0.12590358969E+03  0.13972028040E+04  0.14029799822E+04  0.00000000000E+00 0.  1.
<scales pt_clust_3="40.56342" pt_clust_4="126.15537" pt_clust_5="84.92701" pt_clust_6="14000.00000"></scales>
<clustering>
<clus scale="   40.563">  2  3  1 -1</clus>
<clus scale="   84.927">  2  5  1 -1</clus>
<clus scale="  126.155">  2  4  1 -1</clus>
<clus scale="   40.563">  2  3  1 -1</clus>
</clustering>
</event>
<event>
 6    0  0.1631680E+002  0.1080286E+03  0.7546771E-02  0.1264265E+00
         21   -1    0    0  504  502  0.00000000000E+00  0.00000000000E+00  0.48585951910E+03  0.48585951910E+03  0.00000000000E+00 0. -1.
          2   -1    0    0  505    0 -0.00000000000E+00 -0.00000000000E+00 -0.46696857795E+03  0.46696857795E+03  0.00000000000E+00 0.  1.
         21    1    1    2  503  502 -0.31472866213E+02 -0.86190318685E+02  0.42190067698E+03  0.43176323788E+03  0.00000000000E+00 0. -1.
         21    1    1    2  504  501 -0.50623739227E+02  0.91491449123E+01  0.19116489540E+02  0.54880870969E+02  0.00000000000E+00 0.  1.
         21    1    1    2  505  503  0.48233196438E+02  0.27012707160E+02 -0.18849494816E+02  0.58407457072E+02  0.00000000000E+00 0.  1.
          2    1    1    2  501    0  0.33863409001E+02  0.50028466613E+02 -0.40327673055E+03  0.40777653114E+03  0.00000000000E+00 0.  1.
<scales pt_clust_3="14000.00000" pt_clust_4="51.44385" pt_clust_5="53.55237" pt_clust_6="108.02860"></scales>
<clustering>
<clus scale="   51.444">  1  4  2 -1</clus>
<clus scale="   53.552">  2  5  1 -1</clus>
<clus scale="  108.029">  2  6  1 -1</clus>
<clus scale="   51.444">  1  3  2 -1</clus>
</clustering>
</event>
<event>
 6    0  0.1631680E+002  0.1380065E+03  0.7546771E-02  0.1216037E+00
         21   -1    0    0  503  502  0.00000000000E+00  0.00000000000E+00  0.13789830198E+03  0.13789830198E+03  0.00000000000E+00 0. -1.
          4   -1    0    0  504    0 -0.00000000000E+00 -0.00000000000E+00 -0.36175158739E+03  0.36175158739E+03  0.00000000000E+00 0. -1.
         21    1    1    2  503  501  0.55160042762E+02  0.81313549545E+01  0.16936625517E+01  0.55781876481E+02  0.00000000000E+00 0. -1.
         21    1    1    2  504  505  0.84038940685E+02 -0.76443728991E+02 -0.96862418108E+02  0.14929338664E+03  0.00000000000E+00 0. -1.
         21    1    1    2  505  502 -0.52398970655E+01 -0.39746999284E+02  0.37813079214E+02  0.55109975803E+02  0.00000000000E+00 0. -1.
          4    1    1    2  501    0 -0.13395908638E+03  0.10805937332E+03 -0.16649760906E+03  0.23946465044E+03  0.00000000000E+00 0. -1.
<scales pt_clust_3="53.69057" pt_clust_4="138.00654" pt_clust_5="40.09090" pt_clust_6="14000.00000"></scales>
<clustering>
<clus scale="   40.091">  1  5  2 -1</clus>
<clus scale="   53.691">  1  3  2 -1</clus>
<clus scale="  138.007">  2  4  1 -1</clus>
<clus scale="   40.091">  1  3  2 -1</clus>
</clustering>
</event>
<event>
 6    0  0.1631680E+002  0.1024800E+03  0.7546771E-02  0.1275166E+00
         21   -1    0    0  503  502  0.00000000000E+00  0.00000000000E+00  0.42662445197E+03  0.42662445197E+03  0.00000000000E+00 0.  1.
          2   -1    0    0  504    0 -0.00000000000E+00 -0.00000000000E+00 -0.68290500231E+03  0.68290500231E+03  0.00000000000E+00 0. -1.
         21    1    1    2  503  501 -0.49415809319E+02  0.22978289477E+01 -0.42421370495E+01  0.49650759866E+02  0.00000000000E+00 0. -1.
         21    1    1    2  504  505 -0.26589328252E+02 -0.16572110348E+02 -0.41562271119E+02  0.52048531189E+02  0.00000000000E+00 0. -1.
         21    1    1    2  505  502 -0.51611445146E+02 -0.18795343676E+02  0.38959523412E+03  0.39344815753E+03  0.00000000000E+00 0.  1.
          2    1    1    2  501    0  0.12761658272E+03  0.33069625077E+02 -0.60007137629E+03  0.61438200570E+03  0.00000000000E+00 0. -1.
<scales pt_clust_3="50.56737" pt_clust_4="31.33093" pt_clust_5="102.47998" pt_clust_6="14000.00000"></scales>
<clustering>
<clus scale="   31.331">  2  4  1 -1</clus>
<clus scale="   50.567">  1  3  2 -1</clus>
<clus scale="  102.480">  1  5  2 -1</clus>
<clus scale="   50.567">  1  3  2 -1</clus>
</clustering>
</event>
<event>
 6    0  0.1631680E+002  0.1041081E+03  0.7546771E-02  0.1271887E+00
          4   -1    0    0  503    0 -0.00000000000E+00  0.00000000000E+00  0.29718449641E+03  0.29718449641E+03  0.00000000000E+00 0. -1.
         21   -1    0    0  501  502  0.00000000000E+00 -0.00000000000E+00 -0.23801191504E+03  0.23801191504E+03  0.00000000000E+00 0.  1.
         21    1    1    2  503  505 -0.21894478422E+02 -0.21174753641E+02  0.18507849113E+02  0.35640971590E+02  0.00000000000E+00 0.  1.
         21    1    1    2  504  502 -0.82198471524E+02  0.37712770222E+02 -0.93439383970E+02  0.13003753395E+03  0.00000000000E+00 0.  1.
         21    1    1    2  505  504  0.14029412791E+03 -0.12797731957E+02 -0.73396524301E+02  0.15884984750E+03  0.00000000000E+00 0.  1.
          4    1    1    2  501    0 -0.36201177965E+02 -0.37402846242E+01  0.20750064053E+03  0.21066805842E+03  0.00000000000E+00 0. -1.
<scales pt_clust_3="30.45880" pt_clust_4="104.10811" pt_clust_5="14000.00000" pt_clust_6="56.83380"></scales>
<clustering>
<clus scale="   30.459">  1  3  2 -1</clus>
<clus scale="   56.834">  1  6  2 -1</clus>
<clus scale="  104.108">  2  4  1 -1</clus>
<clus scale="  104.108">  2  3  1 -1</clus>
</clustering>
</event>
<event>
 6    0  0.1631680E+002  0.1534349E+03  0.7546771E-02  0.1196315E+00
         -2   -1    0    0    0  501 -0.00000000000E+00  0.00000000000E+00  0.30377240281E+03  0.30377240281E+03  0.00000000000E+00 0. -1.
         21   -1    0    0  503  502  0.00000000000E+00 -0.00000000000E+00 -0.73180116325E+03  0.73180116325E+03  0.00000000000E+00 0.  1.
         21    1    1    2  503  505  0.24209517663E+02  0.76746407569E+02 -0.45188426456E+03  0.45899400909E+03  0.00000000000E+00 0.  1.
         21    1    1    2  504  501  0.14692309480E+02  0.28179982664E+02 -0.80297107169E-01  0.31780211271E+02  0.00000000000E+00 0. -1.
         21    1    1    2  505  504  0.95847388162E+02  0.31864880136E+02 -0.21543162512E+03  0.23793460763E+03  0.00000000000E+00 0.  1.
         -2    1    1    2    0  502 -0.13474921530E+03 -0.13679127037E+03  0.23936742636E+03  0.30686473808E+03  0.00000000000E+00 0. -1.
<scales pt_clust_3="80.86070" pt_clust_4="31.78011" pt_clust_5="153.43486" pt_clust_6="14000.00000"></scales>
<clustering>
<clus scale="   31.780">  1  4  2 -1</clus>
<clus scale="   80.861">  2  3  1 -1</clus>
<clus scale="  153.435">  2  5  1 -1</clus>
<clus scale="   80.861">  2  3  1 -1</clus>
</clustering>
</event>
<event>
 6    0  0.1631680E+002  0.1731327E+03  0.7546771E-02  0.1174620E+00
          2   -1    0    0  505    0 -0.00000000000E+00  0.00000000000E+00  0.11545314223E+04  0.11545314223E+04  0.00000000000E+00 0. -1.
         21   -1    0    0  503  502  0.00000000000E+00 -0.00000000000E+00 -0.20159051449E+04  0.20159051449E+04  0.00000000000E+00 0.  1.
         21    1    1    2  503  501  0.59272588996E+02  0.18508432019E+02 -0.89521304576E+03  0.89736402823E+03  0.00000000000E+00 0.  1.
         21    1    1    2  504  502  0.84479136512E+02 -0.11626109369E+03 -0.11051624846E+04  0.11144673543E+04  0.00000000000E+00 0.  1.
         21    1    1    2  505  504 -0.46994441228E+02  0.11008358651E+02  0.95111264590E+02  0.10665746162E+03  0.00000000000E+00 0. -1.
          2    1    1    2  501    0 -0.96757284280E+02  0.86744303020E+02  0.10438905431E+04  0.10519477231E+04  0.00000000000E+00 0. -1.
<scales pt_clust_3="62.05267" pt_clust_4="173.13266" pt_clust_5="48.26657" pt_clust_6="14000.00000"></scales>
<clustering>
<clus scale="   48.267">  1  5  2 -1</clus>
<clus scale="   62.053">  2  3  1 -1</clus>
<clus scale="  173.133">  2  4  1 -1</clus>
<clus scale="   62.053">  2  3  1 -1</clus>
</clustering>
</event>
<event>
 6    0  0.1631680E+002  0.1789603E+03  0.7546771E-02  0.1168813E+00
         21   -1    0    0  503  502  0.00000000000E+00  0.00000000000E+00  0.67290200419E+03  0.67290200419E+03  0.00000000000E+00 0.  1.
          4   -1    0    0  505    0 -0.00000000000E+00 -0.00000000000E+00 -0.45961191199E+03  0.45961191199E+03  0.00000000000E+00 0.  1.
         21    1    1    2  503  504 -0.72737316864E+02 -0.28577170732E+02  0.50823018077E+03  0.51420354783E+03  0.00000000000E+00 0.  1.
         21    1    1    2  504  501 -0.68947302416E+02 -0.10576001112E+03 -0.22059536996E+02  0.12816213807E+03  0.00000000000E+00 0.  1.
         21    1    1    2  505  502 -0.57710144821E+02  0.39437657584E+02  0.59029973584E+02  0.91489493562E+02  0.00000000000E+00 0.  1.
          4    1    1    2  501    0  0.19939476410E+03  0.94899524266E+02 -0.33191052516E+03  0.39865873673E+03  0.00000000000E+00 0.  1.
<scales pt_clust_3="122.21083" pt_clust_4="14000.00000" pt_clust_5="69.89842" pt_clust_6="178.96028"></scales>
<clustering>
<clus scale="   69.898">  1  5  2 -1</clus>
<clus scale="  122.211">  1  3  2 -1</clus>
<clus scale="  178.960">  2  6  1 -1</clus>
<clus scale="   69.898">  1  3  2 -1</clus>
</clustering>
</event>
<event>
 6    0  0.1631680E+002  0.1022928E+03  0.7546771E-02  0.1275547E+00
          1   -1    0    0  503    0 -0.00000000000E+00  0.00000000000E+00  0.23282341084E+04  0.23282341084E+04  0.00000000000E+00 0. -1.
         21   -1    0    0  504  502  0.00000000000E+00 -0.00000000000E+00 -0.14462680488E+03  0.14462680488E+03  0.00000000000E+00 0. -1.
         21    1    1    2  503  505 -0.37614380163E+01  0.36961976576E+02  0.14618120722E+04  0.14622841278E+04  0.00000000000E+00 0. -1.
         21    1    1    2  504  501  0.30233926208E+02  0.10111167046E+03 -0.10633623803E+03  0.14981674044E+03  0.00000000000E+00 0. -1.
         21    1    1    2  505  502 -0.33848124142E+02 -0.94037199787E+00  0.16637841464E+02  0.37727941582E+02  0.00000000000E+00 0. -1.
          1    1    1    2  501    0  0.73756359498E+01 -0.13713327504E+03  0.81149362789E+03  0.82303210341E+03  0.00000000000E+00 0. -1.
<scales pt_clust_3="37.15731" pt_clust_4="14000.00000" pt_clust_5="33.86118" pt_clust_6="102.29280"></scales>
<clustering>
<clus scale="   33.861">  2  5  1 -1</clus>
<clus scale="   37.157">  1  3  2 -1</clus>
<clus scale="  102.293">  1  6  2 -1</clus>
<clus scale="   33.861">  2  3  1 -1</clus>
</clustering>
</event>
<event>
 6    0  0.1631680E+002  0.6366333E+02  0.7546771E-02  0.1383071E+00
         21   -1    0    0  505  502  0.00000000000E+00  0.00000000000E+00  0.32228429595E+03  0.32228429595E+03  0.00000000000E+00 0.  1.
          4   -1    0    0  503    0 -0.00000000000E+00 -0.00000000000E+00 -0.31094799402E+03  0.31094799402E+03  0.00000000000E+00 0. -1.
         21    1    1    2  503  504  0.21621216914E+02  0.55424100086E+02 -0.23159116684E+02  0.63840837845E+02  0.00000000000E+00 0. -1.
         21    1    1    2  504  502 -0.48264835607E+02  0.77621874138E+02  0.11842938954E+03  0.14960003345E+03  0.00000000000E+00 0. -1.
         21    1    1    2  505  501  0.45612226771E+02 -0.21831489430E+02  0.15096207107E+03  0.15920626892E+03  0.00000000000E+00 0.  1.
          4    1    1    2  501    0 -0.18968608079E+02 -0.11121448479E+03 -0.23489604200E+03  0.26058514975E+03  0.00000000000E+00 0. -1.
<scales pt_clust_3="59.35234" pt_clust_4="63.66333" pt_clust_5="50.56767" pt_clust_6="14000.00000"></scales>
<clustering>
<clus scale="   50.568">  1  5  2 -1</clus>
<clus scale="   59.352">  2  3  1 -1</clus>
<clus scale="   63.663">  1  4  2 -1</clus>
<clus scale="   50.568">  1  3  2 -1</clus>
</clustering>
</event>
<event>
 6    0  0.1631680E+002  0.1002241E+03  0.7546771E-02  0.1279825E+00
          2   -1    0    0  505    0 -0.00000000000E+00  0.00000000000E+00  0.23452604153E+03  0.23452604153E+03  0.00000000000E+00 0. -1.
         21   -1    0    0  504  502  0.00000000000E+00 -0.00000000000E+00 -0.39586605823E+03  0.39586605823E+03  0.00000000000E+00 0. -1.
         21    1    1    2  503  502 -0.98260760014E+02  0.47361480296E+02 -0.13963312352E+03  0.17718830649E+03  0.00000000000E+00 0. -1.
         21    1    1    2  504  501 -0.16856105492E+00 -0.30860845107E+02 -0.21463397166E+03  0.21684132901E+03  0.00000000000E+00 0. -1.
         21    1    1    2  505  503 -0.38779801592E+01 -0.32526991508E+02  0.52518931156E+02  0.61897350804E+02  0.00000000000E+00 0.  1.
          2    1    1    2  501    0  0.10230730123E+03  0.16026356320E+02  0.14040814732E+03  0.17446511346E+03  0.00000000000E+00 0. -1.
<scales pt_clust_3="14000.00000" pt_clust_4="30.86131" pt_clust_5="33.55573" pt_clust_6="100.22409"></scales>
<clustering>
<clus scale="   30.861">  2  4  1 -1</clus>
<clus scale="   33.556">  1  5  2 -1</clus>
<clus scale="  100.224">  1  6  2 -1</clus>
<clus scale="   30.861">  2  3  1 -1</clus>
</clustering>
</event>
<event>
 6    0  0.1631680E+002  0.6368430E+02  0.7546771E-02  0.1382990E+00
          2   -1    0    0  503    0 -0.00000000000E+00  0.00000000000E+00  0.12802060036E+04  0.12802060036E+04  0.00000000000E+00 0.  1.
         21   -1    0    0  501  502  0.00000000000E+00 -0.00000000000E+00 -0.69878782158E+03  0.69878782158E+03  0.00000000000E+00 0.  1.
         21    1    1    2  503  505  0.21001585575E+02 -0.48726155135E+02  0.15214724054E+03  0.16113375684E+03  0.00000000000E+00 0.  1.
         21    1    1    2  504  502 -0.48713924601E+02 -0.21904655677E+02 -0.67116901672E+03  0.67329095449E+03  0.00000000000E+00 0.  1.
         21    1    1    2  505  504  0.72050059506E+02  0.82985602552E+02  0.11874883008E+03  0.16179958576E+03  0.00000000000E+00 0.  1.
          2    1    1    2  501    0 -0.44337720480E+02 -0.12354791740E+02  0.98169112810E+03  0.98276952808E+03  0.00000000000E+00 0.  1.
<scales pt_clust_3="14000.00000" pt_clust_4="53.57420" pt_clust_5="63.68430" pt_clust_6="46.02689"></scales>
<clustering>
<clus scale="   46.027">  1  6  2 -1</clus>
<clus scale="   53.574">  2  4  1 -1</clus>
<clus scale="   63.684">  2  5  1 -1</clus>
<clus scale="   53.574">  2  3  1 -1</clus>
</clustering>
</event>
<event>
 6    0  0.1631680E+002  0.9090008E+02  0.7546771E-02  0.1300687E+00
         21   -1    0    0  503  502  0.00000000000E+00  0.00000000000E+00  0.58105397857E+03  0.58105397857E+03  0.00000000000E+00 0. -1.
          3   -1    0    0  505    0 -0.00000000000E+00 -0.00000000000E+00 -0.85467556636E+03  0.85467556636E+03  0.00000000000E+00 0. -1.
         21    1    1    2  503  504  0.27100347882E+02 -0.66511102180E+02  0.51793443284E+03  0.52289026793E+03  0.00000000000E+00 0. -1.
         21    1    1    2  504  501 -0.47721188808E+02 -0.44017158239E+02 -0.15646489459E+03  0.16939918925E+03  0.00000000000E+00 0. -1.
         21    1    1    2  505  502 -0.36720392499E+02  0.16734999650E+02  0.41553390193E+02  0.57923498471E+02  0.00000000000E+00 0.  1.
          3    1    1    2  501    0  0.57341233425E+02  0.93793260769E+02 -0.67664451624E+03  0.68551658928E+03  0.00000000000E+00 0. -1.
<scales pt_clust_3="50.89775" pt_clust_4="90.90008" pt_clust_5="40.35403" pt_clust_6="14000.00000"></scales>
<clustering>
<clus scale="   40.354">  1  5  2 -1</clus>
<clus scale="   50.898">  1  3  2 -1</clus>
<clus scale="   90.900">  1  4  2 -1</clus>
<clus scale="   40.354">  1  3  2 -1</clus>
</clustering>
</event>
<event>
 6    0  0.1631680E+002  0.9406297E+02  0.7546771E-02  0.1293301E+00
         21   -1    0    0  504  502  0.00000000000E+00  0.00000000000E+00  0.34393697684E+03  0.34393697684E+03  0.00000000000E+00 0.  1.
          2   -1    0    0  503    0 -0.00000000000E+00 -0.00000000000E+00 -0.14480618006E+04  0.14480618006E+04  0.00000000000E+00 0.  1.
         21    1    1    2  503  505 -0.25481081778E+02  0.10021559760E+03 -0.10533050505E+04  0.10583685468E+04  0.00000000000E+00 0.  1.
         21    1    1    2  504  501  0.59068460480E+01 -0.39955790981E+02  0.31213802945E+03  0.31474037792E+03  0.00000000000E+00 0.  1.
         21    1    1    2  505  502 -0.48756962077E+02 -0.53127719323E+02 -0.28645059045E+02  0.77590819812E+02  0.00000000000E+00 0.  1.
          2    1    1    2  501    0  0.68331197808E+02 -0.71320872971E+01 -0.33431274372E+03  0.34129903292E+03  0.00000000000E+00 0.  1.
<scales pt_clust_3="14000.00000" pt_clust_4="40.39005" pt_clust_5="94.06297" pt_clust_6="69.99400"></scales>
<clustering>
<clus scale="   40.390">  1  4  2 -1</clus>
<clus scale="   69.994">  2  6  1 -1</clus>
<clus scale="   94.063">  1  5  2 -1</clus>
<clus scale="   40.390">  1  3  2 -1</clus>
</clustering>
</event>
<event>
 6    0  0.1631680E+002  0.1225052E+03  0.7546771E-02  0.1239021E+00
          2   -1    0    0  504    0 -0.00000000000E+00  0.00000000000E+00  0.72798219918E+03  0.72798219918E+03  0.00000000000E+00 0.  1.
         21   -1    0    0  503  502  0.00000000000E+00 -0.00000000000E+00 -0.64009642081E+02  0.64009642081E+02  0.00000000000E+00 0. -1.
         21    1    1    2  503  501 -0.74946664326E+01  0.32216964116E+02  0.86617864032E+02  0.92718699146E+02  0.00000000000E+00 0.  1.
         21    1    1    2  504  505  0.23554629193E+02 -0.27602485291E+02  0.19206219071E+03  0.19545997762E+03  0.00000000000E+00 0. -1.
         21    1    1    2  505  502 -0.76466034708E+02 -0.77877145322E+02  0.22374465021E+01  0.10916460230E+03  0.00000000000E+00 0. -1.
          2    1    1    2  501    0  0.60406071947E+02  0.73262666497E+02  0.38305505585E+03  0.39464856219E+03  0.00000000000E+00 0.  1.
<scales pt_clust_3="32.37363" pt_clust_4="36.28661" pt_clust_5="109.53943" pt_clust_6="32.37363"></scales>
<clustering>
<clus scale="   32.374">  3  6 -1 -1</clus>
<clus scale="   36.287">  1  4  2 -1</clus>
<clus scale="  109.539">  2  5  1 -1</clus>
<clus scale="  109.539">  2  3  1 -1</clus>
</clustering>
</event>
<event>
 6    0  0.1631680E+002  0.1384191E+03  0.7546771E-02  0.1215472E+00
         21   -1    0    0  504  502  0.00000000000E+00  0.00000000000E+00  0.13272621539E+04  0.13272621539E+04  0.00000000000E+00 0.  1.
          2   -1    0    0  503    0 -0.00000000000E+00 -0.00000000000E+00 -0.25443559139E+04  0.25443559139E+04  0.00000000000E+00 0.  1.
         21    1    1    2  503  505 -0.88914376818E+02 -0.46585329350E+02 -0.14484690074E+04  0.14519429826E+04  0.00000000000E+00 0.  1.
         21    1    1    2  504  501 -0.38590034074E+02 -0.37305688467E+02 -0.41755158223E+01  0.53836233655E+02  0.00000000000E+00 0.  1.
         21    1    1    2  505  502  0.97920634169E+02  0.97986791654E+02  0.12967527743E+04  0.13041309825E+04  0.00000000000E+00 0.  1.
          2    1    1    2  501    0  0.29583776723E+02 -0.14095773837E+02 -0.10612020111E+04  0.10617078690E+04  0.00000000000E+00 0.  1.
<scales pt_clust_3="138.41909" pt_clust_4="53.45303" pt_clust_5="14000.00000" pt_clust_6="32.77027"></scales>
<clustering>
<clus scale="   32.770">  2  6  1 -1</clus>
<clus scale="   53.453">  2  4  1 -1</clus>
<clus scale="  138.419">  2  3  1 -1</clus>
<clus scale="  138.419">  1  3  2 -1</clus>
</clustering>
</event>
<event>
 6    0  0.1631680E+002  0.1203480E+03  0.7546771E-02  0.1242524E+00
          2   -1    0    0  503    0 -0.00000000000E+00  0.00000000000E+00  0.62119031965E+04  0.62119031965E+04  0.00000000000E+00 0.  1.
         21   -1    0    0  505  502  0.00000000000E+00 -0.00000000000E+00 -0.60334990203E+02  0.60334990203E+02  0.00000000000E+00 0.  1.
         21    1    1    2  503  504  0.40843190812E+02  0.68420528098E+02  0.44635809818E+03  0.45341491673E+03  0.00000000000E+00 0. -1.
         21    1    1    2  504  502  0.69889241321E+02  0.52980434166E+02 -0.48706870161E+01  0.87835961023E+02  0.00000000000E+00 0.  1.
         21    1    1    2  505  501 -0.47087636331E+02  0.81061707567E+02  0.25346363747E+03  0.27024444759E+03  0.00000000000E+00 0.  1.
          2    1    1    2  501    0 -0.63644795802E+02 -0.20246266983E+03  0.54566171576E+04  0.54607428614E+04  0.00000000000E+00 0.  1.
<scales pt_clust_3="79.68397" pt_clust_4="88.23297" pt_clust_5="14000.00000" pt_clust_6="120.34800"></scales>
<clustering>
<clus scale="   79.684">  1  3  2 -1</clus>
<clus scale="   88.233">  2  4  1 -1</clus>
<clus scale="  120.348">  1  6  2 -1</clus>
<clus scale="   88.233">  2  3  1 -1</clus>
</clustering>
</event>
<event>
 6    0  0.1631680E+002  0.1498158E+03  0.7546771E-02  0.1200700E+00
          2   -1    0    0  503    0 -0.00000000000E+00  0.00000000000E+00  0.96373771645E+03  0.96373771645E+03  0.00000000000E+00 0.  1.
         21   -1    0    0  504  502  0.00000000000E+00 -0.00000000000E+00 -0.35414382466E+03  0.35414382466E+03  0.00000000000E+00 0. -1.
         21    1    1    2  503  505  0.13522295246E+02 -0.35579208891E+02  0.25276176671E+03  0.25561150852E+03  0.00000000000E+00 0.  1.
         21    1    1    2  504  501 -0.23250413602E+03 -0.51018503981E+02 -0.23741922126E+03  0.33619778053E+03  0.00000000000E+00 0. -1.
         21    1    1    2  505  502  0.99732936758E+02 -0.10629906905E+02 -0.11620629751E+02  0.10096877057E+03  0.00000000000E+00 0. -1.
          2    1    1    2  501    0  0.11924890401E+03  0.97227619777E+02  0.60587197609E+03  0.62510348149E+03  0.00000000000E+00 0.  1.
<scales pt_clust_3="38.06222" pt_clust_4="14000.00000" pt_clust_5="101.40435" pt_clust_6="149.81582"></scales>
<clustering>
<clus scale="   38.062">  1  3  2 -1</clus>
<clus scale="  101.404">  2  5  1 -1</clus>
<clus scale="  149.816">  1  6  2 -1</clus>
<clus scale="  101.404">  2  3  1 -1</clus>
</clustering>
</event>
<event>
 6    0  0.1631680E+002  0.2650999E+03  0.7546771E-02  0.1104117E+00
          2   -1    0    0  504    0 -0.00000000000E+00  0.00000000000E+00  0.46498011561E+04  0.46498011561E+04  0.00000000000E+00 0. -1.
         21   -1    0    0  503  502  0.00000000000E+00 -0.00000000000E+00 -0.21910141414E+03  0.21910141414E+03  0.00000000000E+00 0. -1.
         21    1    1    2  503  501  0.34235021144E+02  0.28117708314E+03  0.60798953357E+03  0.67073382328E+03  0.00000000000E+00 0.  1.
         21    1    1    2  504  505 -0.11417289146E+03 -0.64194627567E+02  0.16067461440E+04  0.16120761678E+04  0.00000000000E+00 0. -1.
         21    1    1    2  505  502  0.30487114327E+02 -0.62219869833E+01 -0.17883847522E+03  0.18152514283E+03  0.00000000000E+00 0. -1.
          2    1    1    2  501    0  0.49450755991E+02 -0.21076046859E+03  0.23948025396E+04  0.24045674363E+04  0.00000000000E+00 0. -1.
<scales pt_clust_3="14000.00000" pt_clust_4="129.37907" pt_clust_5="31.11555" pt_clust_6="265.09990"></scales>
<clustering>
<clus scale="   31.116">  2  5  1 -1</clus>
<clus scale="  129.379">  1  4  2 -1</clus>
<clus scale="  265.100">  1  6  2 -1</clus>
<clus scale="   31.116">  2  3  1 -1</clus>
</clustering>
</event>
<event>
 6    0  0.1631680E+002  0.1105194E+03  0.7546771E-02  0.1259611E+00
          4   -1    0    0  504    0 -0.00000000000E+00  0.00000000000E+00  0.16354701928E+04  0.16354701928E+04  0.00000000000E+00 0. -1.
         21   -1    0    0  505  502  0.00000000000E+00 -0.00000000000E+00 -0.12114840824E+04  0.12114840824E+04  0.00000000000E+00 0.  1.
         21    1    1    2  503  502  0.70034416740E+02 -0.10128567493E+03 -0.10537638029E+04  0.10609343805E+04  0.00000000000E+00 0.  1.
         21    1    1    2  504  503  0.10685950434E+02  0.57725422279E+02  0.72012947170E+02  0.92910055828E+02  0.00000000000E+00 0. -1.
         21    1    1    2  505  501 -0.30137379420E+02  0.69899665722E+02 -0.13303964143E+03  0.15327677939E+03  0.00000000000E+00 0. -1.
          4    1    1    2  501    0 -0.50582987755E+02 -0.26339413074E+02  0.15387766075E+04  0.15398330595E+04  0.00000000000E+00 0. -1.
<scales pt_clust_3="110.51941" pt_clust_4="47.99312" pt_clust_5="14000.00000" pt_clust_6="57.02985"></scales>
<clustering>
<clus scale="   57.030">  1  6  2 -1</clus>
<clus scale="   47.993">  1  4  2 -1</clus>
<clus scale="  110.519">  2  3  1 -1</clus>
<clus scale="  110.519">  2  3  1 -1</clus>
</clustering>
</event>
<event>
 6    0  0.1631680E+002  0.1427541E+03  0.7546771E-02  0.1209670E+00
          1   -1    0    0  504    0 -0.00000000000E+00  0.00000000000E+00  0.12901426929E+04  0.12901426929E+04  0.00000000000E+00 0.  1.
         21   -1    0    0  505  502  0.00000000000E+00 -0.00000000000E+00 -0.32174328309E+03  0.32174328309E+03  0.00000000000E+00 0.  1.
         21    1    1    2  503  502  0.94124840703E+02 -0.10107594771E+01 -0.28672992081E+03  0.30178561059E+03  0.00000000000E+00 0.  1.
         21    1    1    2  504  503 -0.90652933203E+01 -0.46345201931E+02  0.20594621110E+03  0.21129102951E+03  0.00000000000E+00 0.  1.
         21    1    1    2  505  501  0.43674537244E+02  0.47579227695E+02  0.29450552941E+02  0.70982978101E+02  0.00000000000E+00 0.  1.
          1    1    1    2  501    0 -0.12873408463E+03 -0.22326628675E+00  0.10197325666E+04  0.10278263578E+04  0.00000000000E+00 0.  1.
<scales pt_clust_3="14000.00000" pt_clust_4="47.22348" pt_clust_5="62.72575" pt_clust_6="142.75408"></scales>
<clustering>
<clus scale="   47.223">  1  4  2 -1</clus>
<clus scale="   62.726">  2  5  1 -1</clus>
<clus scale="  142.754">  1  6  2 -1</clus>
<clus scale="   62.726">  2  3  1 -1</clus>
</clustering>
</event>
<event>
 6    0  0.1631680E+002  0.1809890E+03  0.7546771E-02  0.1166849E+00
         -1   -1    0    0    0  501 -0.00000000000E+00  0.00000000000E+00  0.56838293494E+03  0.56838293494E+03  0.00000000000E+00 0.  1.
         21   -1    0    0  505  502  0.00000000000E+00 -0.00000000000E+00 -0.92425381742E+03  0.92425381742E+03  0.00000000000E+00 0. -1.
         21    1    1    2  503  502 -0.10452866170E+03  0.10042183102E+03 -0.58811103467E+03  0.60571063583E+03  0.00000000000E+00 0. -1.
         21    1    1    2  504  503  0.25943575041E+03 -0.26431129072E+02 -0.23772631518E+03  0.35287294329E+03  0.00000000000E+00 0. -1.
         21    1    1    2  505  501  0.43501498790E+02 -0.75068078856E+01  0.91478178176E+02  0.10157258313E+03  0.00000000000E+00 0. -1.
         -1    1    1    2    0  504 -0.19840858750E+03 -0.66483894062E+02  0.37848828920E+03  0.43248059011E+03  0.00000000000E+00 0.  1.
<scales pt_clust_3="144.26969" pt_clust_4="14000.00000" pt_clust_5="44.14445" pt_clust_6="180.98896"></scales>
<clustering>
<clus scale="   44.144">  1  5  2 -1</clus>
<clus scale="  144.270">  2  3  1 -1</clus>
<clus scale="  180.989">  1  6  2 -1</clus>
<clus scale="  144.270">  2  3  1 -1</clus>
</clustering>
</event>
<event>
 6    0  0.1631680E+002  0.8910297E+02  0.7546771E-02  0.1305039E+00
         21   -1    0    0  505  502  0.00000000000E+00  0.00000000000E+00  0.29450002004E+03  0.29450002004E+03  0.00000000000E+00 0.  1.
          1   -1    0    0  504    0 -0.00000000000E+00 -0.00000000000E+00 -0.37200148973E+03  0.37200148973E+03  0.00000000000E+00 0.  1.
         21    1    1    2  503  502 -0.30526363743E+02  0.83702673105E+02  0.26299141903E+03  0.27767333839E+03  0.00000000000E+00 0.  1.
         21    1    1    2  504  503  0.93154140071E+02 -0.60317815828E+02 -0.22178111489E+03  0.24799757184E+03  0.00000000000E+00 0.  1.
         21    1    1    2  505  501 -0.23029039530E+02 -0.26339674717E+02 -0.43930931073E+02  0.56160856750E+02  0.00000000000E+00 0. -1.
          1    1    1    2  501    0 -0.39598736798E+02  0.29548174399E+01 -0.74780842754E+02  0.84669742795E+02  0.00000000000E+00 0.  1.
<scales pt_clust_3="14000.00000" pt_clust_4="89.10297" pt_clust_5="33.47352" pt_clust_6="75.76789"></scales>
<clustering>
<clus scale="   33.474">  5  6 -1 -1</clus>
<clus scale="   75.768">  2  5  1 -1</clus>
<clus scale="   89.103">  2  4  1 -1</clus>
<clus scale="   89.103">  1  3  2 -1</clus>
</clustering>
</event>
<event>
 6    0  0.1631680E+002  0.1269926E+03  0.7546771E-02  0.1231988E+00
          1   -1    0    0  504    0 -0.00000000000E+00  0.00000000000E+00  0.19623197692E+04  0.19623197692E+04  0.00000000000E+00 0. -1.
         21   -1    0    0  505  502  0.00000000000E+00 -0.00000000000E+00 -0.39144261514E+03  0.39144261514E+03  0.00000000000E+00 0.  1.
         21    1    1    2  503  502 -0.11529276294E+03  0.34677730145E+02 -0.11651337415E+03  0.16754203207E+03  0.00000000000E+00 0.  1.
         21    1    1    2  504  503 -0.84020635732E+02 -0.68442667735E+02  0.79262835237E+03  0.80000223186E+03  0.00000000000E+00 0.  1.
         21    1    1    2  505  501  0.31833447278E+02  0.29637488002E+01 -0.23829792059E+03  0.24043304917E+03  0.00000000000E+00 0.  1.
          1    1    1    2  501    0  0.16747995140E+03  0.30801188790E+02  0.11330600964E+04  0.11457850712E+04  0.00000000000E+00 0. -1.
<scales pt_clust_3="93.39800" pt_clust_4="126.99260" pt_clust_5="31.97111" pt_clust_6="14000.00000"></scales>
<clustering>
<clus scale="   31.971">  2  5  1 -1</clus>
<clus scale="   93.398">  2  3  1 -1</clus>
<clus scale="  126.993">  1  4  2 -1</clus>
<clus scale="   31.971">  2  3  1 -1</clus>
</clustering>
</event>
<event>
 6    0  0.1631680E+002  0.7424036E+02  0.7546771E-02  0.1346240E+00
          4   -1    0    0  503    0 -0.00000000000E+00  0.00000000000E+00  0.95905189457E+02  0.95905189457E+02  0.00000000000E+00 0.  1.
         21   -1    0    0  504  502  0.00000000000E+00 -0.00000000000E+00 -0.20087951796E+04  0.20087951796E+04  0.00000000000E+00 0. -1.
         21    1    1    2  503  505 -0.18391112642E+02  0.33766106374E+02  0.36137516992E+02  0.52766495982E+02  0.00000000000E+00 0.  1.
         21    1    1    2  504  501 -0.15889362793E+02 -0.14167078781E+03 -0.10828810139E+04  0.10922245073E+04  0.00000000000E+00 0. -1.
         21    1    1    2  505  502 -0.13290744423E+01  0.68775902919E+02 -0.89621785214E+03  0.89885389789E+03  0.00000000000E+00 0. -1.
          4    1    1    2  501    0  0.35609549877E+02  0.39128778512E+02  0.30071358911E+02  0.60855467930E+02  0.00000000000E+00 0.  1.
<scales pt_clust_3="38.44975" pt_clust_4="74.24036" pt_clust_5="69.66412" pt_clust_6="14000.00000"></scales>
<clustering>
<clus scale="   38.450">  1  3  2 -1</clus>
<clus scale="   69.664">  2  5  1 -1</clus>
<clus scale="   74.240">  2  4  1 -1</clus>
<clus scale="   69.664">  2  3  1 -1</clus>
</clustering>
</event>
<event>
 6    0  0.1631680E+002  0.1074921E+03  0.7546771E-02  0.1265286E+00
         21   -1    0    0  505  502  0.00000000000E+00  0.00000000000E+00  0.44967623212E+03  0.44967623212E+03  0.00000000000E+00 0. -1.
         -1   -1    0    0    0  501 -0.00000000000E+00 -0.00000000000E+00 -0.76977367451E+02  0.76977367451E+02  0.00000000000E+00 0. -1.
         21    1    1    2  503  502 -0.17472456723E+02 -0.98910475880E+02  0.23635240818E+03  0.25680932583E+03  0.00000000000E+00 0. -1.
         21    1    1    2  504  501  0.30298612774E+02 -0.19809122941E+01  0.64103539258E+01  0.31032605224E+02  0.00000000000E+00 0. -1.
         21    1    1    2  505  504  0.45481478043E+02  0.11943338807E+03  0.12275782616E+03  0.17720717512E+03  0.00000000000E+00 0. -1.
         -1    1    1    2    0  503 -0.58307634093E+02 -0.18541999898E+02  0.71782764004E+01  0.61604493390E+02  0.00000000000E+00 0. -1.
<scales pt_clust_3="14000.00000" pt_clust_4="30.36330" pt_clust_5="107.49208" pt_clust_6="49.50634"></scales>
<clustering>
<clus scale="   30.363">  2  4  1 -1</clus>
<clus scale="   49.506">  2  6  1 -1</clus>
<clus scale="  107.492">  2  5  1 -1</clus>
<clus scale="  107.492">  1  3  2 -1</clus>
</clustering>
</event>
<event>
 6    0  0.1631680E+002  0.8685986E+02  0.7546771E-02  0.1310639E+00
         21   -1    0    0  505  502  0.00000000000E+00  0.00000000000E+00  0.50361857575E+03  0.50361857575E+03  0.00000000000E+00 0. -1.
          1   -1    0    0  503    0 -0.00000000000E+00 -0.00000000000E+00 -0.11687916093E+04  0.11687916093E+04  0.00000000000E+00 0. -1.
         21    1    1    2  503  502  0.11575864277E+03  0.14246617756E+02 -0.77781862894E+03  0.78651436670E+03  0.00000000000E+00 0. -1.
         21    1    1    2  504  501 -0.33997524687E+02  0.48157409812E+02  0.84364771697E+02  0.10291930095E+03  0.00000000000E+00 0. -1.
         21    1    1    2  505  504 -0.25502801489E+02 -0.21178346608E+02  0.40171724465E+03  0.40308269610E+03  0.00000000000E+00 0. -1.
          1    1    1    2  501    0 -0.56258316596E+02 -0.41225680960E+02 -0.37343642096E+03  0.37989382129E+03  0.00000000000E+00 0. -1.
<scales pt_clust_3="86.85986" pt_clust_4="64.28596" pt_clust_5="33.14989" pt_clust_6="14000.00000"></scales>
<clustering>
<clus scale="   33.150">  1  5  2 -1</clus>
<clus scale="   64.286">  1  4  2 -1</clus>
<clus scale="   86.860">  1  3  2 -1</clus>
<clus scale="   33.150">  1  3  2 -1</clus>
</clustering>
</event>
<event>
 6    0  0.1631680E+002  0.9150680E+02  0.7546771E-02  0.1299243E+00
          2   -1    0    0  504    0 -0.00000000000E+00  0.00000000000E+00  0.71355604061E+03  0.71355604061E+03  0.00000000000E+00 0. -1.
         21   -1    0    0  505  502  0.00000000000E+00 -0.00000000000E+00 -0.24675490639E+04  0.24675490639E+04  0.00000000000E+00 0. -1.
         21    1    1    2  503  501  0.64876155447E+02 -0.50042837565E+02 -0.37205790920E+03  0.38097281915E+03  0.00000000000E+00 0. -1.
         21    1    1    2  504  502 -0.21867475135E+02 -0.32874647645E+02  0.12555037082E+02  0.41431363515E+02  0.00000000000E+00 0. -1.
         21    1    1    2  505  503  0.27350756722E+02  0.41030724448E+02 -0.20738439494E+04  0.20744301171E+04  0.00000000000E+00 0. -1.
          2    1    1    2  501    0 -0.70359437035E+02  0.41886760762E+02  0.67935379821E+03  0.68427080476E+03  0.00000000000E+00 0. -1.
<scales pt_clust_3="91.50680" pt_clust_4="39.48327" pt_clust_5="49.29424" pt_clust_6="14000.00000"></scales>
<clustering>
<clus scale="   39.483">  1  4  2 -1</clus>
<clus scale="   49.294">  2  5  1 -1</clus>
<clus scale="   91.507">  2  3  1 -1</clus>
<clus scale="   49.294">  2  3  1 -1</clus>
</clustering>
</event>
<event>
 6    0  0.1631680E+002  0.7271982E+02  0.7546771E-02  0.1351081E+00
         21   -1    0    0  501  502  0.00000000000E+00  0.00000000000E+00  0.17320301028E+04  0.17320301028E+04  0.00000000000E+00 0. -1.
          2   -1    0    0  505    0 -0.00000000000E+00 -0.00000000000E+00 -0.11612135251E+04  0.11612135251E+04  0.00000000000E+00 0.  1.
         21    1    1    2  503  504  0.12326617935E+02  0.94059040475E+02 -0.14436455464E+03  0.17274308449E+03  0.00000000000E+00 0.  1.
         21    1    1    2  504  502 -0.22607236989E+02 -0.69009707282E+02  0.16803302982E+04  0.16818987300E+04  0.00000000000E+00 0. -1.
         21    1    1    2  505  503 -0.80160666231E+01  0.37354561155E+02 -0.97241596479E+03  0.97316618783E+03  0.00000000000E+00 0.  1.
          2    1    1    2  501    0  0.18296685677E+02 -0.62403894348E+02  0.72667988850E+01  0.65435625638E+02  0.00000000000E+00 0.  1.
<scales pt_clust_3="72.71982" pt_clust_4="14000.00000" pt_clust_5="38.20498" pt_clust_6="59.15131"></scales>
<clustering>
<clus scale="   38.205">  2  5  1 -1</clus>
<clus scale="   59.151">  2  6  1 -1</clus>
<clus scale="   72.720">  2  3  1 -1</clus>
<clus scale="   72.720">  1  3  2 -1</clus>
</clustering>
</event>
<event>
 6    0  0.1631680E+002  0.8821924E+02  0.7546771E-02  0.1307222E+00
         21   -1    0    0  503  502  0.00000000000E+00  0.00000000000E+00  0.25600317087E+03  0.25600317087E+03  0.00000000000E+00 0. -1.
          2   -1    0    0  504    0 -0.00000000000E+00 -0.00000000000E+00 -0.13483578140E+04  0.13483578140E+04  0.00000000000E+00 0. -1.
         21    1    1    2  503  501 -0.57451150563E+02 -0.32666858125E+02  0.17774302431E+03  0.18963212020E+03  0.00000000000E+00 0. -1.
         21    1    1    2  504  505 -0.35155101328E+02  0.41979786199E+02 -0.13963764903E+03  0.14998952172E+03  0.00000000000E+00 0.  1.
         21    1    1    2  505  502  0.66067945185E+02 -0.59061347701E+02  0.36917734393E+02  0.96000704612E+02  0.00000000000E+00 0. -1.
          2    1    1    2  501    0  0.26538306706E+02  0.49748419628E+02 -0.11673777528E+04  0.11687386383E+04  0.00000000000E+00 0. -1.
<scales pt_clust_3="66.13801" pt_clust_4="54.75567" pt_clust_5="88.21924" pt_clust_6="14000.00000"></scales>
<clustering>
<clus scale="   54.756">  2  4  1 -1</clus>
<clus scale="   66.138">  1  3  2 -1</clus>
<clus scale="   88.219">  1  5  2 -1</clus>
<clus scale="   66.138">  1  3  2 -1</clus>
</clustering>
</event>
<event>
 6    0  0.1631680E+002  0.1223007E+03  0.7546771E-02  0.1239349E+00
          1   -1    0    0  504    0 -0.00000000000E+00  0.00000000000E+00  0.52710522202E+03  0.52710522202E+03  0.00000000000E+00 0.  1.
         21   -1    0    0  503  502  0.00000000000E+00 -0.00000000000E+00 -0.30371474873E+03  0.30371474873E+03  0.00000000000E+00 0. -1.
         21    1    1    2  503  505  0.15909904534E+02  0.91378749132E+02 -0.17395113919E+03  0.19713497832E+03  0.00000000000E+00 0. -1.
         21    1    1    2  504  502  0.46526179748E+02 -0.95177932086E+02  0.17162487587E+03  0.20168942009E+03  0.00000000000E+00 0. -1.
         21    1    1    2  505  501  0.54021636119E+02 -0.90067660790E+02 -0.51519810651E+02  0.11698209939E+03  0.00000000000E+00 0. -1.
          1    1    1    2  501    0 -0.11645772040E+03  0.93866843744E+02  0.27723654727E+03  0.31501347294E+03  0.00000000000E+00 0.  1.
<scales pt_clust_3="92.75344" pt_clust_4="14000.00000" pt_clust_5="69.95347" pt_clust_6="122.30067"></scales>
<clustering>
<clus scale="   92.753">  2  3  1 -1</clus>
<clus scale="   69.953">  2  5  1 -1</clus>
<clus scale="  122.301">  2  6  1 -1</clus>
<clus scale="   92.753">  2  3  1 -1</clus>
</clustering>
</event>
<event>
 6    0  0.1631680E+002  0.6538047E+02  0.7546771E-02  0.1376546E+00
         21   -1    0    0  505  502  0.00000000000E+00  0.00000000000E+00  0.24411280239E+03  0.24411280239E+03  0.00000000000E+00 0.  1.
          1   -1    0    0  504    0 -0.00000000000E+00 -0.00000000000E+00 -0.24433738703E+04  0.24433738703E+04  0.00000000000E+00 0. -1.
         21    1    1    2  503  502 -0.47451007675E+02 -0.86361919743E+01  0.16571015171E+02  0.50997847847E+02  0.00000000000E+00 0.  1.
         21    1    1    2  504  503  0.16975886363E+02  0.50637288048E+02 -0.10094826160E+04  0.10108943900E+04  0.00000000000E+00 0. -1.
         21    1    1    2  505  501  0.39063004332E+02  0.49979925180E+02  0.20327667471E+03  0.21294440051E+03  0.00000000000E+00 0.  1.
          1    1    1    2  501    0 -0.85878830202E+01 -0.91981021254E+02 -0.14096261417E+04  0.14126500343E+04  0.00000000000E+00 0. -1.
<scales pt_clust_3="48.23051" pt_clust_4="65.38047" pt_clust_5="42.17888" pt_clust_6="14000.00000"></scales>
<clustering>
<clus scale="   48.231">  1  3  2 -1</clus>
<clus scale="   42.179">  1  5  2 -1</clus>
<clus scale="   65.380">  2  4  1 -1</clus>
<clus scale="   48.231">  1  3  2 -1</clus>
</clustering>
</event>
<event>
 6    0  0.1631680E+002  0.2133805E+03  0.7546771E-02  0.1138917E+00
          2   -1    0    0  503    0 -0.00000000000E+00  0.00000000000E+00  0.35711135633E+04  0.35711135633E+04  0.00000000000E+00 0. -1.
         21   -1    0    0  504  502  0.00000000000E+00 -0.00000000000E+00 -0.10144503551E+03  0.10144503551E+03  0.00000000000E+00 0.  1.
         21    1    1    2  503  502  0.66912925863E+02  0.26384152322E+01  0.69435757714E+00  0.66968522568E+02  0.00000000000E+00 0.  1.
         21    1    1    2  504  505 -0.40210892518E+02 -0.16124130386E+02 -0.35272066001E+02  0.55866108669E+02  0.00000000000E+00 0.  1.
         21    1    1    2  505  501  0.18600150729E+03  0.58281163399E+02  0.48557141307E+03  0.52323307609E+03  0.00000000000E+00 0.  1.
          2    1    1    2  501    0 -0.21270354064E+03 -0.44795448245E+02  0.30186748231E+04  0.30264908914E+04  0.00000000000E+00 0. -1.
<scales pt_clust_3="43.61901" pt_clust_4="43.32324" pt_clust_5="213.38052" pt_clust_6="14000.00000"></scales>
<clustering>
<clus scale="   43.323">  2  4  1 -1</clus>
<clus scale="   43.619">  2  3  1 -1</clus>
<clus scale="  213.381">  2  5  1 -1</clus>
<clus scale="   43.323">  2  3  1 -1</clus>
</clustering>
</event>
<event>
 6    0  0.1631680E+002  0.8392252E+02  0.7546771E-02  0.1318275E+00
          4   -1    0    0  503    0 -0.00000000000E+00  0.00000000000E+00  0.87808157862E+03  0.87808157862E+03  0.00000000000E+00 0.  1.
         21   -1    0    0  504  502  0.00000000000E+00 -0.00000000000E+00 -0.29697979963E+03  0.29697979963E+03  0.00000000000E+00 0. -1.
         21    1    1    2  503  505  0.12866412263E+02 -0.34027393045E+02  0.43317562821E+02  0.56566945213E+02  0.00000000000E+00 0. -1.
         21    1    1    2  504  501  0.93654068963E+02 -0.21868345913E+02 -0.21518884114E+03  0.23570224126E+03  0.00000000000E+00 0. -1.
         21    1    1    2  505  502 -0.54759058175E+02  0.37825209854E+02 -0.46661111045E+02  0.81280749484E+02  0.00000000000E+00 0. -1.
          4    1    1    2  501    0 -0.51761423051E+02  0.18070529104E+02  0.79963416835E+03  0.80151144230E+03  0.00000000000E+00 0.  1.
<scales pt_clust_3="36.37868" pt_clust_4="83.92252" pt_clust_5="14000.00000" pt_clust_6="42.02473"></scales>
<clustering>
<clus scale="   36.379">  1  3  2 -1</clus>
<clus scale="   42.025">  1  6  2 -1</clus>
<clus scale="   83.923">  2  4  1 -1</clus>
<clus scale="   83.923">  2  3  1 -1</clus>
</clustering>
</event>
<event>
 6    0  0.1631680E+002  0.8638728E+02  0.7546771E-02  0.1311844E+00
         21   -1    0    0  503  502  0.00000000000E+00  0.00000000000E+00  0.28322902946E+03  0.28322902946E+03  0.00000000000E+00 0. -1.
          2   -1    0    0  504    0 -0.00000000000E+00 -0.00000000000E+00 -0.24586491408E+03  0.24586491408E+03  0.00000000000E+00 0.  1.
         21    1    1    2  503  505  0.57157465376E+02 -0.12048324059E+02  0.23418609456E+03  0.24136127454E+03  0.00000000000E+00 0. -1.
         21    1    1    2  504  502 -0.25915181770E+02  0.16630978548E+02 -0.48415580101E+02  0.57378170851E+02  0.00000000000E+00 0.  1.
         21    1    1    2  505  501  0.32898485670E+02  0.68303367371E+02 -0.43465323816E+02  0.87389328456E+02  0.00000000000E+00 0.  1.
          2    1    1    2  501    0 -0.64140769275E+02 -0.72886021860E+02 -0.10494107527E+03  0.14296516969E+03  0.00000000000E+00 0.  1.
<scales pt_clust_3="57.87864" pt_clust_4="30.79263" pt_clust_5="86.38728" pt_clust_6="14000.00000"></scales>
<clustering>
<clus scale="   30.793">  2  4  1 -1</clus>
<clus scale="   57.879">  1  3  2 -1</clus>
<clus scale="   86.387">  1  5  2 -1</clus>
<clus scale="   57.879">  1  3  2 -1</clus>
</clustering>
</event>
<event>
 6    0  0.1631680E+002  0.6581194E+02  0.7546771E-02  0.1374943E+00
         21   -1    0    0  504  502  0.00000000000E+00  0.00000000000E+00  0.59395423845E+02  0.59395423845E+02  0.00000000000E+00 0. -1.
          2   -1    0    0  503    0 -0.00000000000E+00 -0.00000000000E+00 -0.16896279501E+04  0.16896279501E+04  0.00000000000E+00 0. -1.
         21    1    1    2  503  505  0.61978814565E+02  0.28878014729E+02 -0.35277182396E+03  0.35933726911E+03  0.00000000000E+00 0. -1.
         21    1    1    2  504  501 -0.47427632888E+02 -0.94793602521E+01  0.24120168093E+02  0.54046472050E+02  0.00000000000E+00 0. -1.
         21    1    1    2  505  502  0.29556234186E+02  0.70788061308E+02 -0.83343491825E+02  0.11327249548E+03  0.00000000000E+00 0. -1.
          2    1    1    2  501    0 -0.44107415862E+02 -0.90186715785E+02 -0.12182373785E+04  0.12223671373E+04  0.00000000000E+00 0. -1.
<scales pt_clust_3="60.80952" pt_clust_4="48.36568" pt_clust_5="65.81194" pt_clust_6="14000.00000"></scales>
<clustering>
<clus scale="   48.366">  1  4  2 -1</clus>
<clus scale="   60.810">  2  3  1 -1</clus>
<clus scale="   65.812">  1  5  2 -1</clus>
<clus scale="   48.366">  1  3  2 -1</clus>
</clustering>
</event>
<event>
 6    0  0.1631680E+002  0.1302191E+03  0.7546771E-02  0.1227131E+00
          3   -1    0    0  503    0 -0.00000000000E+00  0.00000000000E+00  0.52687822339E+03  0.52687822339E+03  0.00000000000E+00 0. -1.
         21   -1    0    0  505  502  0.00000000000E+00 -0.00000000000E+00 -0.14308789190E+04  0.14308789190E+04  0.00000000000E+00 0. -1.
         21    1    1    2  503  502 -0.19117132173E+02 -0.24585720202E+02 -0.46304642712E+03  0.46409257271E+03  0.00000000000E+00 0. -1.
         21    1    1    2  504  501 -0.72212780693E+02 -0.54473406088E+02 -0.34396809100E+02  0.96773850510E+02  0.00000000000E+00 0. -1.
         21    1    1    2  505  504  0.50163255986E+02 -0.53083926659E+02 -0.89052807799E+03  0.89351805422E+03  0.00000000000E+00 0. -1.
          3    1    1    2  501    0  0.41166656880E+02  0.13214305295E+03  0.48397061863E+03  0.50337266491E+03  0.00000000000E+00 0. -1.
<scales pt_clust_3="31.14358" pt_clust_4="14000.00000" pt_clust_5="82.44667" pt_clust_6="130.21908"></scales>
<clustering>
<clus scale="   31.144">  2  3  1 -1</clus>
<clus scale="   82.447">  2  5  1 -1</clus>
<clus scale="  130.219">  1  6  2 -1</clus>
<clus scale="   31.144">  2  3  1 -1</clus>
</clustering>
</event>
<event>
 6    0  0.1631680E+002  0.8414202E+02  0.7546771E-02  0.1317692E+00
         21   -1    0    0  503  502  0.00000000000E+00  0.00000000000E+00  0.76268019724E+02  0.76268019724E+02  0.00000000000E+00 0. -1.
          3   -1    0    0  504    0 -0.00000000000E+00 -0.00000000000E+00 -0.52550170792E+03  0.52550170792E+03  0.00000000000E+00 0. -1.
         21    1    1    2  503  501 -0.29594295762E+02  0.13563127471E+02 -0.41337377083E+01  0.32815675459E+02  0.00000000000E+00 0. -1.
         21    1    1    2  504  505 -0.26803470118E+02 -0.16298477226E+02 -0.11033493717E+03  0.11470773614E+03  0.00000000000E+00 0. -1.
         21    1    1    2  505  502  0.92071831090E+02 -0.66835025637E+02 -0.34428138116E+01  0.11382440731E+03  0.00000000000E+00 0. -1.
          3    1    1    2  501    0 -0.35674065211E+02  0.69570375392E+02 -0.33132219951E+03  0.34042190874E+03  0.00000000000E+00 0. -1.
<scales pt_clust_3="33.36079" pt_clust_4="31.36983" pt_clust_5="84.14202" pt_clust_6="14000.00000"></scales>
<clustering>
<clus scale="   31.370">  2  4  1 -1</clus>
<clus scale="   33.361">  1  3  2 -1</clus>
<clus scale="   84.142">  1  5  2 -1</clus>
<clus scale="   33.361">  1  3  2 -1</clus>
</clustering>
</event>
<event>
 6    0  0.1631680E+002  0.2494340E+03  0.7546771E-02  0.1113663E+00
          2   -1    0    0  504    0 -0.00000000000E+00  0.00000000000E+00  0.14671006728E+04  0.14671006728E+04  0.00000000000E+00 0. -1.
         21   -1    0    0  503  502  0.00000000000E+00 -0.00000000000E+00 -0.26929640484E+03  0.26929640484E+03  0.00000000000E+00 0. -1.
         21    1    1    2  503  501  0.65853809471E+02 -0.77779705045E+01  0.60887458821E+02  0.90025017016E+02  0.00000000000E+00 0. -1.
         21    1    1    2  504  505 -0.25787829809E+02 -0.19108949457E+03  0.16001382569E+03  0.25056861638E+03  0.00000000000E+00 0. -1.
         21    1    1    2  505  502 -0.61358434367E+02 -0.69004235502E+02 -0.18310903984E+03  0.20507404140E+03  0.00000000000E+00 0. -1.
          2    1    1    2  501    0  0.21292454705E+02  0.26787170058E+03  0.11600120232E+04  0.11907294028E+04  0.00000000000E+00 0. -1.
<scales pt_clust_3="66.31155" pt_clust_4="249.43395" pt_clust_5="75.76027" pt_clust_6="14000.00000"></scales>
<clustering>
<clus scale="   66.312">  2  3  1 -1</clus>
<clus scale="   75.760">  2  5  1 -1</clus>
<clus scale="  249.434">  2  4  1 -1</clus>
<clus scale="   66.312">  2  3  1 -1</clus>
</clustering>
</event>
<event>
 6    0  0.1631680E+002  0.1430778E+03  0.7546771E-02  0.1209247E+00
         21   -1    0    0  503  502  0.00000000000E+00  0.00000000000E+00  0.53987896608E+02  0.53987896608E+02  0.00000000000E+00 0.  1.
          2   -1    0    0  504    0 -0.00000000000E+00 -0.00000000000E+00 -0.40853748854E+04  0.40853748854E+04  0.00000000000E+00 0.  1.
         21    1    1    2  503  501  0.15069773398E+02 -0.38087064156E+02 -0.97601596522E+02  0.10584797669E+03  0.00000000000E+00 0.  1.
         21    1    1    2  504  505  0.32768233499E+02 -0.54750207673E+02 -0.57137142242E+03  0.57492316419E+03  0.00000000000E+00 0.  1.
         21    1    1    2  505  502  0.11848669632E+03 -0.11816176669E+02 -0.33245328379E+02  0.12362835879E+03  0.00000000000E+00 0.  1.
          2    1    1    2  501    0 -0.16632470322E+03  0.10465344850E+03 -0.33291686415E+04  0.33349632823E+04  0.00000000000E+00 0.  1.
<scales pt_clust_3="40.96001" pt_clust_4="65.24701" pt_clust_5="143.07778" pt_clust_6="14000.00000"></scales>
<clustering>
<clus scale="   40.960">  1  3  2 -1</clus>
<clus scale="   65.247">  2  4  1 -1</clus>
<clus scale="  143.078">  1  5  2 -1</clus>
<clus scale="   40.960">  1  3  2 -1</clus>
</clustering>
</event>
<event>
 6    0  0.1631680E+002  0.7606408E+02  0.7546771E-02  0.1340607E+00
          3   -1    0    0  504    0 -0.00000000000E+00  0.00000000000E+00  0.50922274584E+03  0.50922274584E+03  0.00000000000E+00 0.  1.
         21   -1    0    0  503  502  0.00000000000E+00 -0.00000000000E+00 -0.10072469551E+04  0.10072469551E+04  0.00000000000E+00 0. -1.
         21    1    1    2  503  501 -0.56745005634E+02 -0.91421390036E+02 -0.76837945590E+03  0.77587682944E+03  0.00000000000E+00 0. -1.
         21    1    1    2  504  505  0.33355731592E+02 -0.82304301563E+01 -0.89503232675E+01  0.35502860409E+02  0.00000000000E+00 0. -1.
         21    1    1    2  505  502  0.34474862266E+02  0.19639016876E+02 -0.20768739868E+03  0.21144328479E+03  0.00000000000E+00 0. -1.
          3    1    1    2  501    0 -0.11085588224E+02  0.80012803316E+02  0.48699296857E+03  0.49364672631E+03  0.00000000000E+00 0.  1.
<scales pt_clust_3="14000.00000" pt_clust_4="34.35615" pt_clust_5="39.77070" pt_clust_6="76.06408"></scales>
<clustering>
<clus scale="   34.356">  1  4  2 -1</clus>
<clus scale="   39.771">  2  5  1 -1</clus>
<clus scale="   76.064">  1  6  2 -1</clus>
<clus scale="   39.771">  2  3  1 -1</clus>
</clustering>
</event>
<event>
 6    0  0.1631680E+002  0.2413024E+03  0.7546771E-02  0.1118928E+00
          2   -1    0    0  503    0 -0.00000000000E+00  0.00000000000E+00  0.15384838825E+04  0.15384838825E+04  0.00000000000E+00 0. -1.
         21   -1    0    0  504  502  0.00000000000E+00 -0.00000000000E+00 -0.63361230024E+02  0.63361230024E+02  0.00000000000E+00 0. -1.
         21    1    1    2  503  502  0.12396592653E+03  0.22188861487E+03  0.39381238628E+03  0.46871132260E+03  0.00000000000E+00 0. -1.
         21    1    1    2  504  505 -0.39514880250E+02 -0.25829921264E+02  0.28695398045E+02  0.55245239276E+02  0.00000000000E+00 0.  1.
         21    1    1    2  505  501 -0.51099013961E+02 -0.26489256060E+02  0.21072117760E+03  0.21844039142E+03  0.00000000000E+00 0.  1.
          2    1    1    2  501    0 -0.33352032316E+02 -0.16956943754E+03  0.84189369059E+03  0.85944815927E+03  0.00000000000E+00 0. -1.
<scales pt_clust_3="223.49977" pt_clust_4="47.20816" pt_clust_5="53.22499" pt_clust_6="53.22499"></scales>
<clustering>
<clus scale="   47.208">  2  4  1 -1</clus>
<clus scale="   53.225">  5  6 -1 -1</clus>
<clus scale="  223.500">  2  3  1 -1</clus>
<clus scale="   47.208">  2  3  1 -1</clus>
</clustering>
</event>
<event>
 6    0  0.1631680E+002  0.8628862E+02  0.7546771E-02  0.1312097E+00
          2   -1    0    0  504    0 -0.00000000000E+00  0.00000000000E+00  0.39210886345E+03  0.39210886345E+03  0.00000000000E+00 0. -1.
         21   -1    0    0  503  502  0.00000000000E+00 -0.00000000000E+00 -0.34636318863E+03  0.34636318863E+03  0.00000000000E+00 0. -1.
         21    1    1    2  503  501 -0.12706401433E+02 -0.35616996751E+02 -0.15911753660E+03  0.16354942234E+03  0.00000000000E+00 0. -1.
         21    1    1    2  504  505 -0.76972739725E+01  0.83538544887E+02  0.12046651083E+03  0.14679958018E+03  0.00000000000E+00 0. -1.
         21    1    1    2  505  502  0.87821964125E+02  0.28056766685E+02 -0.14807361925E+03  0.17442957391E+03  0.00000000000E+00 0. -1.
          2    1    1    2  501    0 -0.67418288720E+02 -0.75978314821E+02  0.23247031984E+03  0.25369347564E+03  0.00000000000E+00 0. -1.
<scales pt_clust_3="37.81565" pt_clust_4="86.28862" pt_clust_5="76.80641" pt_clust_6="14000.00000"></scales>
<clustering>
<clus scale="   37.816">  2  3  1 -1</clus>
<clus scale="   76.806">  2  5  1 -1</clus>
<clus scale="   86.289">  2  4  1 -1</clus>
<clus scale="   37.816">  2  3  1 -1</clus>
</clustering>
</event>
<event>
 6    0  0.1631680E+002  0.1480320E+03  0.7546771E-02  0.1202912E+00
         21   -1    0    0  505  502  0.00000000000E+00  0.00000000000E+00  0.36638538910E+03  0.36638538910E+03  0.00000000000E+00 0. -1.
          1   -1    0    0  503    0 -0.00000000000E+00 -0.00000000000E+00 -0.23355878286E+04  0.23355878286E+04  0.00000000000E+00 0.  1.
         21    1    1    2  503  504  0.46653063771E+02 -0.10870796459E+02 -0.13115579852E+03  0.13962996119E+03  0.00000000000E+00 0. -1.
         21    1    1    2  504  502  0.17111200271E+03 -0.11258584836E+03  0.11280535307E+03  0.23383741874E+03  0.00000000000E+00 0. -1.
         21    1    1    2  505  501 -0.97929256828E+02  0.82169291261E+02  0.16507485884E+03  0.20878611254E+03  0.00000000000E+00 0. -1.
          1    1    1    2  501    0 -0.11983580965E+03  0.41287353561E+02 -0.21159268529E+04  0.21197197253E+04  0.00000000000E+00 0.  1.
<scales pt_clust_3="47.90285" pt_clust_4="14000.00000" pt_clust_5="148.03200" pt_clust_6="81.02160"></scales>
<clustering>
<clus scale="   47.903">  2  3  1 -1</clus>
<clus scale="   81.022">  2  6  1 -1</clus>
<clus scale="  148.032">  1  5  2 -1</clus>
<clus scale="  148.032">  1  3  2 -1</clus>
</clustering>
</event>
<event>
 6    0  0.1631680E+002  0.1394408E+03  0.7546771E-02  0.1214083E+00
         21   -1    0    0  501  502  0.00000000000E+00  0.00000000000E+00  0.11728624249E+03  0.11728624249E+03  0.00000000000E+00 0.  1.
          2   -1    0    0  504    0 -0.00000000000E+00 -0.00000000000E+00 -0.75957913207E+03  0.75957913207E+03  0.00000000000E+00 0. -1.
         21    1    1    2  503  505 -0.88991730983E+02 -0.71433802550E+02  0.92514417383E+01  0.11448976157E+03  0.00000000000E+00 0.  1.
         21    1    1    2  504  503  0.26427316041E+02 -0.22275002720E+02 -0.15056750063E+03  0.15448349758E+03  0.00000000000E+00 0. -1.
         21    1    1    2  505  502 -0.32655086237E+02 -0.80923956924E+01  0.38249802956E+02  0.50940052526E+02  0.00000000000E+00 0. -1.
          2    1    1    2  501    0  0.95219501178E+02  0.10180120096E+03 -0.53922663365E+03  0.55695206289E+03  0.00000000000E+00 0. -1.
<scales pt_clust_3="139.44084" pt_clust_4="34.03851" pt_clust_5="33.64285" pt_clust_6="14000.00000"></scales>
<clustering>
<clus scale="   33.643">  1  5  2 -1</clus>
<clus scale="   34.039">  2  4  1 -1</clus>
<clus scale="  139.441">  1  3  2 -1</clus>
<clus scale="   33.643">  1  3  2 -1</clus>
</clustering>
</event>
<event>
 6    0  0.1631680E+002  0.7700634E+02  0.7546771E-02  0.1337768E+00
          1   -1    0    0  504    0 -0.00000000000E+00  0.00000000000E+00  0.78700374556E+03  0.78700374556E+03  0.00000000000E+00 0. -1.
         21   -1    0    0  501  502  0.00000000000E+00 -0.00000000000E+00 -0.20993593587E+03  0.20993593587E+03  0.00000000000E+00 0.  1.
         21    1    1    2  503  502  0.55545218879E+02 -0.34594005218E+02 -0.13829771433E+03  0.15299762850E+03  0.00000000000E+00 0.  1.
         21    1    1    2  504  505 -0.17620301336E+02  0.40065503203E+02  0.93629754308E+02  0.10335497307E+03  0.00000000000E+00 0. -1.
         21    1    1    2  505  503 -0.48716723929E+02  0.10385136876E+03  0.57198938768E+01  0.11485270206E+03  0.00000000000E+00 0.  1.
          1    1    1    2  501    0  0.10791806385E+02 -0.10932286675E+03  0.61601587584E+03  0.62573437780E+03  0.00000000000E+00 0. -1.
<scales pt_clust_3="65.05188" pt_clust_4="43.76893" pt_clust_5="77.00634" pt_clust_6="14000.00000"></scales>
<clustering>
<clus scale="   43.769">  1  4  2 -1</clus>
<clus scale="   65.052">  2  3  1 -1</clus>
<clus scale="   77.006">  2  5  1 -1</clus>
<clus scale="   65.052">  2  3  1 -1</clus>
</clustering>
</event>
<event>
 6    0  0.1631680E+002  0.1015495E+03  0.7546771E-02  0.1277071E+00
         21   -1    0    0  503  502  0.00000000000E+00  0.00000000000E+00  0.10748915360E+04  0.10748915360E+04  0.00000000000E+00 0. -1.
          2   -1    0    0  505    0 -0.00000000000E+00 -0.00000000000E+00 -0.12565904211E+04  0.12565904211E+04  0.00000000000E+00 0. -1.
         21    1    1    2  503  501  0.10541961755E+03 -0.59085271168E+02  0.94469920689E+03  0.95239747823E+03  0.00000000000E+00 0. -1.
         21    1    1    2  504  502 -0.73668572928E+01  0.29880913020E+02  0.12061150237E+03  0.12447599790E+03  0.00000000000E+00 0. -1.
         21    1    1    2  505  504 -0.56778053603E+02  0.13672808064E+02 -0.25430269957E+03  0.26092250968E+03  0.00000000000E+00 0.  1.
          2    1    1    2  501    0 -0.41274706655E+02  0.15531550084E+02 -0.99270689478E+03  0.99368597122E+03  0.00000000000E+00 0. -1.
<scales pt_clust_3="14000.00000" pt_clust_4="30.77563" pt_clust_5="101.54946" pt_clust_6="44.10919"></scales>
<clustering>
<clus scale="   30.776">  1  4  2 -1</clus>
<clus scale="   44.109">  2  6  1 -1</clus>
<clus scale="  101.549">  2  5  1 -1</clus>
<clus scale="   30.776">  1  3  2 -1</clus>
</clustering>
</event>
<event>
 6    0  0.1631680E+002  0.7771797E+02  0.7546771E-02  0.1335655E+00
         21   -1    0    0  501  502  0.00000000000E+00  0.00000000000E+00  0.35011499315E+02  0.35011499315E+02  0.00000000000E+00 0. -1.
          1   -1    0    0  505    0 -0.00000000000E+00 -0.00000000000E+00 -0.12745780886E+04  0.12745780886E+04  0.00000000000E+00 0. -1.
         21    1    1    2  503  504  0.79297697018E+02 -0.23778243623E+02 -0.10711553264E+03  0.13537823664E+03  0.00000000000E+00 0. -1.
         21    1    1    2  504  502 -0.22678704802E+02 -0.21722533212E+02  0.89090205080E+00  0.31416330262E+02  0.00000000000E+00 0. -1.
         21    1    1    2  505  503  0.30908423534E+02 -0.15701544205E+02 -0.16643047053E+03  0.17000285485E+03  0.00000000000E+00 0.  1.
          1    1    1    2  501    0 -0.87527415750E+02  0.61202321040E+02 -0.96691148818E+03  0.97279216618E+03  0.00000000000E+00 0. -1.
<scales pt_clust_3="77.71797" pt_clust_4="31.40370" pt_clust_5="33.80150" pt_clust_6="14000.00000"></scales>
<clustering>
<clus scale="   31.404">  1  4  2 -1</clus>
<clus scale="   33.801">  2  5  1 -1</clus>
<clus scale="   77.718">  1  3  2 -1</clus>
<clus scale="   31.404">  1  3  2 -1</clus>
</clustering>
</event>
<event>
 6    0  0.1631680E+002  0.1076458E+03  0.7546771E-02  0.1264993E+00
         21   -1    0    0  501  502  0.00000000000E+00  0.00000000000E+00  0.51077978626E+02  0.51077978626E+02  0.00000000000E+00 0.  1.
          2   -1    0    0  505    0 -0.00000000000E+00 -0.00000000000E+00 -0.17581380890E+04  0.17581380890E+04  0.00000000000E+00 0.  1.
         21    1    1    2  503  502  0.22566059313E+02 -0.23774025038E+02  0.20669411689E+02  0.38751204871E+02  0.00000000000E+00 0.  1.
         21    1    1    2  504  503  0.44731164978E+02  0.99910312375E+02 -0.18534068186E+03  0.21525360854E+03  0.00000000000E+00 0.  1.
         21    1    1    2  505  504 -0.57773051996E+01  0.50545300232E+02 -0.24667160056E+03  0.25186322311E+03  0.00000000000E+00 0. -1.
          2    1    1    2  501    0 -0.61519919091E+02 -0.12668158757E+03 -0.12957172396E+04  0.13033480311E+04  0.00000000000E+00 0.  1.
<scales pt_clust_3="32.77852" pt_clust_4="14000.00000" pt_clust_5="47.75376" pt_clust_6="107.64584"></scales>
<clustering>
<clus scale="   32.779">  1  3  2 -1</clus>
<clus scale="   47.754">  2  5  1 -1</clus>
<clus scale="  107.646">  2  6  1 -1</clus>
<clus scale="   32.779">  1  3  2 -1</clus>
</clustering>
</event>
<event>
 6    0  0.1631680E+002  0.8421211E+02  0.7546771E-02  0.1317506E+00
          4   -1    0    0  504    0 -0.00000000000E+00  0.00000000000E+00  0.71770514275E+03  0.71770514275E+03  0.00000000000E+00 0.  1.
         21   -1    0    0  501  502  0.00000000000E+00 -0.00000000000E+00 -0.66922765236E+02  0.66922765236E+02  0.00000000000E+00 0.  1.
         21    1    1    2  503  502 -0.61940038866E+02  0.42785075652E+02  0.44672946024E+02  0.87537438960E+02  0.00000000000E+00 0.  1.
         21    1    1    2  504  505  0.33232160740E+01 -0.55884677166E+02  0.37379344972E+03  0.37796254306E+03  0.00000000000E+00 0. -1.
         21    1    1    2  505  503  0.56989326147E+02  0.98415235889E+02  0.19554657611E+03  0.22621185950E+03  0.00000000000E+00 0.  1.
          4    1    1    2  501    0  0.16274966448E+01 -0.85315634375E+02  0.36769405661E+02  0.92916066462E+02  0.00000000000E+00 0.  1.
<scales pt_clust_3="69.13710" pt_clust_4="55.98340" pt_clust_5="84.21211" pt_clust_6="14000.00000"></scales>
<clustering>
<clus scale="   55.983">  1  4  2 -1</clus>
<clus scale="   69.137">  2  3  1 -1</clus>
<clus scale="   84.212">  1  5  2 -1</clus>
<clus scale="   69.137">  2  3  1 -1</clus>
</clustering>
</event>
<event>
 6    0  0.1631680E+002  0.7592488E+02  0.7546771E-02  0.1341031E+00
         21   -1    0    0  503  502  0.00000000000E+00  0.00000000000E+00  0.54642387461E+02  0.54642387461E+02  0.00000000000E+00 0. -1.
          2   -1    0    0  505    0 -0.00000000000E+00 -0.00000000000E+00 -0.97109049425E+03  0.97109049425E+03  0.00000000000E+00 0. -1.
         21    1    1    2  503  501  0.12246868468E+02  0.57226436436E+02  0.89911712902E+01  0.59208884262E+02  0.00000000000E+00 0. -1.
         21    1    1    2  504  502 -0.33183778201E+02  0.15976551416E+02 -0.13163123139E+02  0.39111138332E+02  0.00000000000E+00 0. -1.
         21    1    1    2  505  504  0.91560309882E+01  0.45758090913E+02 -0.22050653251E+03  0.22539025415E+03  0.00000000000E+00 0. -1.
          2    1    1    2  501    0  0.11780878744E+02 -0.11896107876E+03 -0.69176962243E+03  0.70202260497E+03  0.00000000000E+00 0. -1.
<scales pt_clust_3="75.92488" pt_clust_4="36.82952" pt_clust_5="47.24793" pt_clust_6="14000.00000"></scales>
<clustering>
<clus scale="   36.830">  1  4  2 -1</clus>
<clus scale="   47.248">  2  5  1 -1</clus>
<clus scale="   75.925">  1  3  2 -1</clus>
<clus scale="   36.830">  1  3  2 -1</clus>
</clustering>
</event>
<event>
 6    0  0.1631680E+002  0.1195941E+03  0.7546771E-02  0.1243768E+00
          2   -1    0    0  504    0 -0.00000000000E+00  0.00000000000E+00  0.44613979173E+04  0.44613979173E+04  0.00000000000E+00 0. -1.
         21   -1    0    0  505  502  0.00000000000E+00 -0.00000000000E+00 -0.13092357572E+04  0.13092357572E+04  0.00000000000E+00 0.  1.
         21    1    1    2  503  502  0.22251552396E+02 -0.27609274495E+02 -0.11639328677E+04  0.11644728954E+04  0.00000000000E+00 0.  1.
         21    1    1    2  504  503  0.10823161080E+02 -0.54974252130E+02 -0.13441165826E+03  0.14562212431E+03  0.00000000000E+00 0.  1.
         21    1    1    2  505  501 -0.21857486454E+02 -0.36862602084E+02  0.10544657407E+03  0.11382258620E+03  0.00000000000E+00 0. -1.
          2    1    1    2  501    0 -0.11217227022E+02  0.11944612871E+03  0.43450601120E+04  0.43467160686E+04  0.00000000000E+00 0. -1.
<scales pt_clust_3="35.45989" pt_clust_4="119.59412" pt_clust_5="43.22428" pt_clust_6="14000.00000"></scales>
<clustering>
<clus scale="   35.460">  2  3  1 -1</clus>
<clus scale="   43.224">  2  5  1 -1</clus>
<clus scale="  119.594">  2  4  1 -1</clus>
<clus scale="   35.460">  2  3  1 -1</clus>
</clustering>
</event>
<event>
 6    0  0.1631680E+002  0.1588135E+03  0.7546771E-02  0.1190043E+00
          1   -1    0    0  504    0 -0.00000000000E+00  0.00000000000E+00  0.18814574708E+04  0.18814574708E+04  0.00000000000E+00 0. -1.
         21   -1    0    0  505  502  0.00000000000E+00 -0.00000000000E+00 -0.10355038614E+03  0.10355038614E+03  0.00000000000E+00 0. -1.
         21    1    1    2  503  502  0.27313426202E+02  0.62243589672E+02 -0.51024610815E+02  0.84992932736E+02  0.00000000000E+00 0. -1.
         21    1    1    2  504  503 -0.14285861695E+03 -0.12391601322E+02  0.63819811485E+03  0.65410929516E+03  0.00000000000E+00 0. -1.
         21    1    1    2  505  501 -0.52580001350E+02  0.98537875106E+01  0.13423510483E+02  0.55153824019E+02  0.00000000000E+00 0. -1.
          1    1    1    2  501    0  0.16812519210E+03 -0.59705775861E+02  0.11773100701E+04  0.11907518050E+04  0.00000000000E+00 0. -1.
<scales pt_clust_3="72.13026" pt_clust_4="158.81352" pt_clust_5="53.49536" pt_clust_6="14000.00000"></scales>
<clustering>
<clus scale="   53.495">  2  5  1 -1</clus>
<clus scale="   72.130">  2  3  1 -1</clus>
<clus scale="  158.814">  2  4  1 -1</clus>
<clus scale="   53.495">  2  3  1 -1</clus>
</clustering>
</event>
<event>
 6    0  0.1631680E+002  0.1123004E+03  0.7546771E-02  0.1256368E+00
         21   -1    0    0  503  502  0.00000000000E+00  0.00000000000E+00  0.24280237901E+02  0.24280237901E+02  0.00000000000E+00 0. -1.
          2   -1    0    0  504    0 -0.00000000000E+00 -0.00000000000E+00 -0.26518078791E+04  0.26518078791E+04  0.00000000000E+00 0. -1.
         21    1    1    2  503  501  0.52395151641E+02  0.85038706004E+02 -0.34125081799E+03  0.35556849440E+03  0.00000000000E+00 0. -1.
         21    1    1    2  504  505 -0.13757487373E+02 -0.29458217892E+02 -0.17537689729E+03  0.17836510635E+03  0.00000000000E+00 0. -1.
         21    1    1    2  505  502  0.17020028787E+02 -0.13539513566E+03 -0.31093756485E+03  0.33956397538E+03  0.00000000000E+00 0. -1.
          2    1    1    2  501    0 -0.55657693056E+02  0.79814647548E+02 -0.17999623611E+04  0.18025905409E+04  0.00000000000E+00 0. -1.
<scales pt_clust_3="14000.00000" pt_clust_4="32.51238" pt_clust_5="112.30042" pt_clust_6="87.86481"></scales>
<clustering>
<clus scale="   32.512">  2  4  1 -1</clus>
<clus scale="   87.865">  2  6  1 -1</clus>
<clus scale="  112.300">  1  5  2 -1</clus>
<clus scale="  112.300">  1  3  2 -1</clus>
</clustering>
</event>
<event>
 6    0  0.1662403E+002  0.9516389E+02  0.7546771E-02  0.1290807E+00
          2   -1    0    0  504    0 -0.00000000000E+00  0.00000000000E+00  0.14025587652E+04  0.14025587652E+04  0.00000000000E+00 0. -1.
         21   -1    0    0  503  502  0.00000000000E+00 -0.00000000000E+00 -0.34716458124E+03  0.34716458124E+03  0.00000000000E+00 0. -1.
         21    1    1    2  503  501  0.13965728051E+02  0.64224633717E+02  0.28718547990E+02  0.71725867961E+02  0.00000000000E+00 0. -1.
         21    1    1    2  504  505  0.53020744796E+02  0.14971476380E+01  0.12519873531E+03  0.13597118869E+03  0.00000000000E+00 0. -1.
         21    1    1    2  505  502 -0.89012320914E+02 -0.18289192153E+01 -0.31312981750E+03  0.32554081285E+03  0.00000000000E+00 0. -1.
          2    1    1    2  501    0  0.22025848067E+02 -0.63892862140E+02  0.12146067182E+04  0.12164854770E+04  0.00000000000E+00 0. -1.
<scales pt_clust_3="66.25932" pt_clust_4="53.04188" pt_clust_5="95.16389" pt_clust_6="14000.00000"></scales>
<clustering>
<clus scale="   53.042">  1  4  2 -1</clus>
<clus scale="   66.259">  2  3  1 -1</clus>
<clus scale="   95.164">  2  5  1 -1</clus>
<clus scale="   66.259">  2  3  1 -1</clus>
</clustering>
</event>
<event>
 6    0  0.1631680E+002  0.8836281E+02  0.7546771E-02  0.1306866E+00
         21   -1    0    0  503  502  0.00000000000E+00  0.00000000000E+00  0.24855912890E+03  0.24855912890E+03  0.00000000000E+00 0.  1.
          3   -1    0    0  504    0 -0.00000000000E+00 -0.00000000000E+00 -0.19435316680E+03  0.19435316680E+03  0.00000000000E+00 0.  1.
         21    1    1    2  503  501  0.37829643415E+02 -0.45298499423E+01  0.22087403224E+02  0.44039242076E+02  0.00000000000E+00 0.  1.
         21    1    1    2  504  505  0.32892491878E+02 -0.52430583506E+01 -0.64881002352E+02  0.72931132920E+02  0.00000000000E+00 0.  1.
         21    1    1    2  505  502 -0.36098788037E+02  0.93258648345E+02  0.17826529251E+03  0.20439866071E+03  0.00000000000E+00 0.  1.
          3    1    1    2  501    0 -0.34623347256E+02 -0.83485740052E+02 -0.81265731278E+02  0.12154325998E+03  0.00000000000E+00 0.  1.
<scales pt_clust_3="41.01208" pt_clust_4="33.30774" pt_clust_5="88.36281" pt_clust_6="14000.00000"></scales>
<clustering>
<clus scale="   33.308">  2  4  1 -1</clus>
<clus scale="   41.012">  1  3  2 -1</clus>
<clus scale="   88.363">  1  5  2 -1</clus>
<clus scale="   41.012">  1  3  2 -1</clus>
</clustering>
</event>
<event>
 6    0  0.1631680E+002  0.8885764E+02  0.7546771E-02  0.1305642E+00
          2   -1    0    0  503    0 -0.00000000000E+00  0.00000000000E+00  0.20172552218E+03  0.20172552218E+03  0.00000000000E+00 0. -1.
         21   -1    0    0  504  502  0.00000000000E+00 -0.00000000000E+00 -0.13756047791E+04  0.13756047791E+04  0.00000000000E+00 0. -1.
         21    1    1    2  503  505  0.14441933412E+02 -0.27263489711E+02  0.12189003265E+03  0.12573403426E+03  0.00000000000E+00 0.  1.
         21    1    1    2  504  501  0.17310013552E+02 -0.12084662621E+03 -0.12109641733E+04  0.12171022031E+04  0.00000000000E+00 0. -1.
         21    1    1    2  505  502  0.63385479570E+01  0.38689228221E+02 -0.10925931440E+03  0.11608027978E+03  0.00000000000E+00 0. -1.
          2    1    1    2  501    0 -0.38090494920E+02  0.10942088770E+03  0.24454198180E+02  0.11841378415E+03  0.00000000000E+00 0. -1.
<scales pt_clust_3="30.85235" pt_clust_4="14000.00000" pt_clust_5="38.13828" pt_clust_6="88.85764"></scales>
<clustering>
<clus scale="   30.852">  1  3  2 -1</clus>
<clus scale="   38.138">  2  5  1 -1</clus>
<clus scale="   88.858">  1  6  2 -1</clus>
<clus scale="   38.138">  2  3  1 -1</clus>
</clustering>
</event>
<event>
 6    0  0.1631680E+002  0.1133551E+03  0.7546771E-02  0.1254480E+00
         21   -1    0    0  505  502  0.00000000000E+00  0.00000000000E+00  0.18165755928E+03  0.18165755928E+03  0.00000000000E+00 0.  1.
          1   -1    0    0  503    0 -0.00000000000E+00 -0.00000000000E+00 -0.12655297499E+04  0.12655297499E+04  0.00000000000E+00 0.  1.
         21    1    1    2  503  502  0.48451372326E+01 -0.32292106556E+02 -0.29682900830E+03  0.29861968399E+03  0.00000000000E+00 0.  1.
         21    1    1    2  504  501 -0.15041078749E+03  0.42449231793E+02 -0.36382387281E+03  0.39597115135E+03  0.00000000000E+00 0.  1.
         21    1    1    2  505  504  0.85075868517E+02 -0.72610331767E+02  0.14198260703E+03  0.18074629839E+03  0.00000000000E+00 0.  1.
          1    1    1    2  501    0  0.60489781738E+02  0.62453206530E+02 -0.56520191655E+03  0.57185017546E+03  0.00000000000E+00 0.  1.
<scales pt_clust_3="32.65357" pt_clust_4="113.35513" pt_clust_5="14000.00000" pt_clust_6="76.82624"></scales>
<clustering>
<clus scale="   32.654">  2  3  1 -1</clus>
<clus scale="   76.826">  2  6  1 -1</clus>
<clus scale="  113.355">  2  4  1 -1</clus>
<clus scale="  113.355">  1  3  2 -1</clus>
</clustering>
</event>
<event>
 6    0  0.1631680E+002  0.1217237E+03  0.7546771E-02  0.1240280E+00
         21   -1    0    0  505  502  0.00000000000E+00  0.00000000000E+00  0.79788457130E+03  0.79788457130E+03  0.00000000000E+00 0. -1.
          2   -1    0    0  504    0 -0.00000000000E+00 -0.00000000000E+00 -0.15532344381E+04  0.15532344381E+04  0.00000000000E+00 0.  1.
         21    1    1    2  503  502 -0.15393902902E+03  0.19448132565E+02  0.43700573833E+03  0.46373426642E+03  0.00000000000E+00 0. -1.
         21    1    1    2  504  503 -0.14417811004E+02 -0.44051775082E+02 -0.46968669512E+03  0.47196824442E+03  0.00000000000E+00 0. -1.
         21    1    1    2  505  501  0.34928965434E+02  0.38760426677E+01  0.34120387822E+03  0.34300895446E+03  0.00000000000E+00 0.  1.
          2    1    1    2  501    0  0.13342787459E+03  0.20727599849E+02 -0.10638727882E+04  0.10724075441E+04  0.00000000000E+00 0.  1.
<scales pt_clust_3="14000.00000" pt_clust_4="46.31484" pt_clust_5="35.14337" pt_clust_6="121.72369"></scales>
<clustering>
<clus scale="   35.143">  1  5  2 -1</clus>
<clus scale="   46.315">  2  4  1 -1</clus>
<clus scale="  121.724">  2  6  1 -1</clus>
<clus scale="   35.143">  1  3  2 -1</clus>
</clustering>
</event>
<event>
 6    0  0.1631680E+002  0.8228196E+02  0.7546771E-02  0.1322698E+00
          2   -1    0    0  505    0 -0.00000000000E+00  0.00000000000E+00  0.13744081128E+04  0.13744081128E+04  0.00000000000E+00 0. -1.
         21   -1    0    0  504  502  0.00000000000E+00 -0.00000000000E+00 -0.30796307619E+02  0.30796307619E+02  0.00000000000E+00 0. -1.
         21    1    1    2  503  502 -0.74056475859E+02  0.15934576165E+02  0.22351068942E+03  0.23599851825E+03  0.00000000000E+00 0. -1.
         21    1    1    2  504  501  0.26379349741E+02  0.54594325789E+02  0.38848020174E+02  0.72010965641E+02  0.00000000000E+00 0. -1.
         21    1    1    2  505  503  0.59447428024E+02  0.41716341309E+02  0.37271358361E+03  0.37972314288E+03  0.00000000000E+00 0. -1.
          2    1    1    2  501    0 -0.11770301906E+02 -0.11224524326E+03  0.70853951202E+03  0.71747179369E+03  0.00000000000E+00 0. -1.
<scales pt_clust_3="74.13259" pt_clust_4="60.63341" pt_clust_5="82.28196" pt_clust_6="14000.00000"></scales>
<clustering>
<clus scale="   60.633">  2  4  1 -1</clus>
<clus scale="   74.133">  2  3  1 -1</clus>
<clus scale="   82.282">  1  5  2 -1</clus>
<clus scale="   60.633">  2  3  1 -1</clus>
</clustering>
</event>
<event>
 6    0  0.1631680E+002  0.1053580E+03  0.7546771E-02  0.1269416E+00
         21   -1    0    0  503  502  0.00000000000E+00  0.00000000000E+00  0.33359819278E+03  0.33359819278E+03  0.00000000000E+00 0.  1.
          1   -1    0    0  504    0 -0.00000000000E+00 -0.00000000000E+00 -0.41832926747E+03  0.41832926747E+03  0.00000000000E+00 0.  1.
         21    1    1    2  503  501 -0.72434837560E+02 -0.52344008501E+02 -0.44813612282E+02  0.99974800646E+02  0.00000000000E+00 0. -1.
         21    1    1    2  504  505 -0.23320234867E+02  0.65012214834E+02 -0.66714878292E+02  0.96027581545E+02  0.00000000000E+00 0. -1.
         21    1    1    2  505  502  0.10394192134E+02 -0.73053815111E+02  0.27599035764E+03  0.28568440042E+03  0.00000000000E+00 0.  1.
          1    1    1    2  501    0  0.85360880293E+02  0.60385608778E+02 -0.24919294175E+03  0.27024067764E+03  0.00000000000E+00 0.  1.
<scales pt_clust_3="14000.00000" pt_clust_4="69.06824" pt_clust_5="72.81673" pt_clust_6="105.35801"></scales>
<clustering>
<clus scale="   69.068">  2  4  1 -1</clus>
<clus scale="   72.817">  1  5  2 -1</clus>
<clus scale="  105.358">  2  6  1 -1</clus>
<clus scale="   72.817">  1  3  2 -1</clus>
</clustering>
</event>
<event>
 6    0  0.1631680E+002  0.8565108E+02  0.7546771E-02  0.1313739E+00
         21   -1    0    0  505  502  0.00000000000E+00  0.00000000000E+00  0.27910101601E+03  0.27910101601E+03  0.00000000000E+00 0.  1.
          2   -1    0    0  504    0 -0.00000000000E+00 -0.00000000000E+00 -0.13152846063E+04  0.13152846063E+04  0.00000000000E+00 0. -1.
         21    1    1    2  503  501 -0.66117701780E+02  0.41995652375E+00 -0.18764662703E+03  0.19895472724E+03  0.00000000000E+00 0. -1.
         21    1    1    2  504  502 -0.45053989611E+02 -0.10009084741E+02  0.28091844936E+02  0.54029579946E+02  0.00000000000E+00 0. -1.
         21    1    1    2  505  503  0.28058376716E+02 -0.36962565168E+02  0.22799887694E+03  0.23267357309E+03  0.00000000000E+00 0.  1.
          2    1    1    2  501    0  0.83113314675E+02  0.46551693385E+02 -0.11046276852E+04  0.11087277421E+04  0.00000000000E+00 0. -1.
<scales pt_clust_3="14000.00000" pt_clust_4="46.15240" pt_clust_5="49.16728" pt_clust_6="85.65108"></scales>
<clustering>
<clus scale="   46.152">  1  4  2 -1</clus>
<clus scale="   49.167">  1  5  2 -1</clus>
<clus scale="   85.651">  2  6  1 -1</clus>
<clus scale="   46.152">  1  3  2 -1</clus>
</clustering>
</event>
<event>
 6    0  0.1631680E+002  0.8741019E+02  0.7546771E-02  0.1309247E+00
          2   -1    0    0  505    0 -0.00000000000E+00  0.00000000000E+00  0.51277746699E+03  0.51277746699E+03  0.00000000000E+00 0. -1.
         21   -1    0    0  503  502  0.00000000000E+00 -0.00000000000E+00 -0.53571173047E+02  0.53571173047E+02  0.00000000000E+00 0. -1.
         21    1    1    2  503  501 -0.64355954239E+02 -0.46980557528E+02  0.10499297125E+03  0.13180434607E+03  0.00000000000E+00 0. -1.
         21    1    1    2  504  502  0.26640484604E+02  0.95366463737E+02  0.35103593724E+02  0.10505589045E+03  0.00000000000E+00 0. -1.
         21    1    1    2  505  504  0.30173632109E+02  0.28025157747E+01  0.11889992010E+03  0.12270082791E+03  0.00000000000E+00 0. -1.
          2    1    1    2  501    0  0.75418375264E+01 -0.51188421984E+02  0.20020980888E+03  0.20678757562E+03  0.00000000000E+00 0. -1.
<scales pt_clust_3="87.41019" pt_clust_4="14000.00000" pt_clust_5="30.30350" pt_clust_6="54.88144"></scales>
<clustering>
<clus scale="   30.304">  1  5  2 -1</clus>
<clus scale="   54.881">  1  6  2 -1</clus>
<clus scale="   87.410">  1  3  2 -1</clus>
<clus scale="   87.410">  2  3  1 -1</clus>
</clustering>
</event>
<event>
 6    0  0.1631680E+002  0.1252275E+03  0.7546771E-02  0.1234714E+00
          2   -1    0    0  504    0 -0.00000000000E+00  0.00000000000E+00  0.11730325459E+04  0.11730325459E+04  0.00000000000E+00 0. -1.
         21   -1    0    0  505  502  0.00000000000E+00 -0.00000000000E+00 -0.17168524418E+03  0.17168524418E+03  0.00000000000E+00 0. -1.
         21    1    1    2  503  502 -0.32202154716E+02 -0.33823190213E+00 -0.17534119651E+02  0.36667949508E+02  0.00000000000E+00 0.  1.
         21    1    1    2  504  503  0.24608594706E+02 -0.29962273543E+02  0.52058308897E+03  0.52202497382E+03  0.00000000000E+00 0. -1.
         21    1    1    2  505  501  0.57117701596E+02  0.12428889882E+03 -0.10563020049E+03  0.17282332441E+03  0.00000000000E+00 0. -1.
          2    1    1    2  501    0 -0.49524141586E+02 -0.93988393370E+02  0.60392853286E+03  0.61320154231E+03  0.00000000000E+00 0. -1.
<scales pt_clust_3="32.20393" pt_clust_4="38.67227" pt_clust_5="125.22746" pt_clust_6="14000.00000"></scales>
<clustering>
<clus scale="   32.204">  2  3  1 -1</clus>
<clus scale="   38.672">  1  4  2 -1</clus>
<clus scale="  125.227">  2  5  1 -1</clus>
<clus scale="   32.204">  2  3  1 -1</clus>
</clustering>
</event>
<event>
 6    0  0.1631680E+002  0.1673331E+03  0.7546771E-02  0.1180658E+00
          2   -1    0    0  505    0 -0.00000000000E+00  0.00000000000E+00  0.21103061542E+04  0.21103061542E+04  0.00000000000E+00 0. -1.
         21   -1    0    0  504  502  0.00000000000E+00 -0.00000000000E+00 -0.85276746876E+02  0.85276746876E+02  0.00000000000E+00 0. -1.
         21    1    1    2  503  502 -0.11323465851E+03  0.13776337714E+03  0.66432920641E+02  0.19030020734E+03  0.00000000000E+00 0. -1.
         21    1    1    2  504  501  0.35570733669E+02  0.65446838145E+01  0.41785036708E+01  0.36408376412E+02  0.00000000000E+00 0. -1.
         21    1    1    2  505  503 -0.16084418003E+02  0.29449942555E+02  0.15113830060E+03  0.15481858263E+03  0.00000000000E+00 0.  1.
          2    1    1    2  501    0  0.93748342846E+02 -0.17375800351E+03  0.18032796824E+04  0.18140557347E+04  0.00000000000E+00 0. -1.
<scales pt_clust_3="167.33308" pt_clust_4="36.06056" pt_clust_5="33.55604" pt_clust_6="14000.00000"></scales>
<clustering>
<clus scale="   33.556">  1  5  2 -1</clus>
<clus scale="   36.061">  2  4  1 -1</clus>
<clus scale="  167.333">  2  3  1 -1</clus>
<clus scale="   36.061">  2  3  1 -1</clus>
</clustering>
</event>
<event>
 6    0  0.1631680E+002  0.2141512E+03  0.7546771E-02  0.1138320E+00
         21   -1    0    0  501  502  0.00000000000E+00  0.00000000000E+00  0.54963229110E+03  0.54963229110E+03  0.00000000000E+00 0.  1.
          3   -1    0    0  503    0 -0.00000000000E+00 -0.00000000000E+00 -0.20088988549E+03  0.20088988549E+03  0.00000000000E+00 0.  1.
         21    1    1    2  503  505  0.95409381492E+01 -0.29583333506E+02 -0.13407437769E+02  0.33852068026E+02  0.00000000000E+00 0. -1.
         21    1    1    2  504  502 -0.18476493029E+03  0.82713030577E+02  0.27212971359E+03  0.33916678185E+03  0.00000000000E+00 0.  1.
         21    1    1    2  505  504  0.19579187520E+03 -0.14427117558E+03  0.13012296876E+03  0.27582715148E+03  0.00000000000E+00 0.  1.
          3    1    1    2  501    0 -0.20567883057E+02  0.91141478507E+02 -0.40102838967E+02  0.10167617524E+03  0.00000000000E+00 0.  1.
<scales pt_clust_3="31.08381" pt_clust_4="214.15123" pt_clust_5="14000.00000" pt_clust_6="81.06051"></scales>
<clustering>
<clus scale="   31.084">  2  3  1 -1</clus>
<clus scale="   81.061">  2  6  1 -1</clus>
<clus scale="  214.151">  1  4  2 -1</clus>
<clus scale="  214.151">  1  3  2 -1</clus>
</clustering>
</event>
<event>
 6    0  0.1631680E+002  0.1064318E+03  0.7546771E-02  0.1267324E+00
         21   -1    0    0  505  502  0.00000000000E+00  0.00000000000E+00  0.36918087740E+02  0.36918087740E+02  0.00000000000E+00 0.  1.
          1   -1    0    0  504    0 -0.00000000000E+00 -0.00000000000E+00 -0.33503998934E+04  0.33503998934E+04  0.00000000000E+00 0. -1.
         21    1    1    2  503  501  0.45187883813E+02  0.10723408363E+03 -0.19846991530E+03  0.23006825251E+03  0.00000000000E+00 0.  1.
         21    1    1    2  504  502  0.58610103838E+01 -0.41946546481E+02 -0.43046917072E+03  0.43254776748E+03  0.00000000000E+00 0.  1.
         21    1    1    2  505  503 -0.30074496172E+02  0.75174735720E+00  0.81100025784E+01  0.31157865554E+02  0.00000000000E+00 0.  1.
          1    1    1    2  501    0 -0.20974398025E+02 -0.66039284508E+02 -0.26926527222E+04  0.26935440956E+04  0.00000000000E+00 0. -1.
<scales pt_clust_3="14000.00000" pt_clust_4="42.09687" pt_clust_5="30.08389" pt_clust_6="106.43180"></scales>
<clustering>
<clus scale="   30.084">  1  5  2 -1</clus>
<clus scale="   42.097">  2  4  1 -1</clus>
<clus scale="  106.432">  2  6  1 -1</clus>
<clus scale="   30.084">  1  3  2 -1</clus>
</clustering>
</event>
<event>
 6    0  0.1631680E+002  0.1135582E+03  0.7546771E-02  0.1254119E+00
         21   -1    0    0  503  502  0.00000000000E+00  0.00000000000E+00  0.57545963019E+03  0.57545963019E+03  0.00000000000E+00 0.  1.
         -2   -1    0    0    0  501 -0.00000000000E+00 -0.00000000000E+00 -0.14102754716E+03  0.14102754716E+03  0.00000000000E+00 0. -1.
         21    1    1    2  503  505  0.41073598249E+02  0.11878995473E+03  0.28885034154E+03  0.31501208488E+03  0.00000000000E+00 0.  1.
         21    1    1    2  504  502  0.21531147799E+02 -0.10778342191E+03  0.22694234670E+03  0.25215805577E+03  0.00000000000E+00 0.  1.
         21    1    1    2  505  501  0.28135805178E+02 -0.11947199632E+02 -0.37930590799E+02  0.48714359592E+02  0.00000000000E+00 0. -1.
         -2    1    1    2    0  504 -0.90740551226E+02  0.94066680943E+00 -0.43430014408E+02  0.10060267711E+03  0.00000000000E+00 0. -1.
<scales pt_clust_3="113.55822" pt_clust_4="14000.00000" pt_clust_5="30.56729" pt_clust_6="70.44273"></scales>
<clustering>
<clus scale="   30.567">  2  5  1 -1</clus>
<clus scale="   70.443">  2  6  1 -1</clus>
<clus scale="  113.558">  2  3  1 -1</clus>
<clus scale="  113.558">  1  3  2 -1</clus>
</clustering>
</event>
<event>
 6    0  0.1631680E+002  0.1911263E+03  0.7546771E-02  0.1157449E+00
         -1   -1    0    0    0  501 -0.00000000000E+00  0.00000000000E+00  0.33663159721E+03  0.33663159721E+03  0.00000000000E+00 0.  1.
         21   -1    0    0  503  502  0.00000000000E+00 -0.00000000000E+00 -0.16004348576E+04  0.16004348576E+04  0.00000000000E+00 0.  1.
         21    1    1    2  503  504  0.13442725781E+03  0.51060516856E+01 -0.79565467071E+03  0.80694678538E+03  0.00000000000E+00 0.  1.
         21    1    1    2  504  501  0.30516102730E+02 -0.35946000462E+02  0.11550573920E+03  0.12475946162E+03  0.00000000000E+00 0. -1.
         21    1    1    2  505  502 -0.14827427082E+03 -0.19070151861E+03 -0.70986873676E+03  0.74984395177E+03  0.00000000000E+00 0.  1.
         -1    1    1    2    0  505 -0.16669089719E+02  0.22154146738E+03  0.12621440791E+03  0.25551625601E+03  0.00000000000E+00 0.  1.
<scales pt_clust_3="135.28732" pt_clust_4="47.15239" pt_clust_5="191.12630" pt_clust_6="14000.00000"></scales>
<clustering>
<clus scale="   47.152">  1  4  2 -1</clus>
<clus scale="  135.287">  2  3  1 -1</clus>
<clus scale="  191.126">  2  5  1 -1</clus>
<clus scale="  135.287">  2  3  1 -1</clus>
</clustering>
</event>
<event>
 6    0  0.1631680E+002  0.9861191E+02  0.7546771E-02  0.1283242E+00
         -2   -1    0    0    0  501 -0.00000000000E+00  0.00000000000E+00  0.46198898892E+03  0.46198898892E+03  0.00000000000E+00 0. -1.
         21   -1    0    0  503  502  0.00000000000E+00 -0.00000000000E+00 -0.91478133506E+02  0.91478133506E+02  0.00000000000E+00 0.  1.
         21    1    1    2  503  504  0.23924468601E+01 -0.52317431088E+02 -0.32975208650E+02  0.61888624020E+02  0.00000000000E+00 0.  1.
         21    1    1    2  504  501  0.59411176482E+01 -0.83988977355E+02  0.53651455276E+02  0.99839490430E+02  0.00000000000E+00 0.  1.
         21    1    1    2  505  502 -0.30581671650E+02  0.33936447332E+02  0.28702347728E+02  0.53951328654E+02  0.00000000000E+00 0. -1.
         -2    1    1    2    0  505  0.22248107142E+02  0.10236996111E+03  0.32113226106E+03  0.33778767933E+03  0.00000000000E+00 0. -1.
<scales pt_clust_3="35.69262" pt_clust_4="14000.00000" pt_clust_5="45.68283" pt_clust_6="98.61191"></scales>
<clustering>
<clus scale="   45.683">  2  5  1 -1</clus>
<clus scale="   35.693">  2  3  1 -1</clus>
<clus scale="   98.612">  1  6  2 -1</clus>
<clus scale="   45.683">  2  3  1 -1</clus>
</clustering>
</event>
<event>
 6    0  0.1631680E+002  0.1292719E+03  0.7546771E-02  0.1228540E+00
         21   -1    0    0  504  502  0.00000000000E+00  0.00000000000E+00  0.14837711525E+03  0.14837711525E+03  0.00000000000E+00 0.  1.
          2   -1    0    0  503    0 -0.00000000000E+00 -0.00000000000E+00 -0.11225202728E+04  0.11225202728E+04  0.00000000000E+00 0. -1.
         21    1    1    2  503  505 -0.43506986113E+02  0.37370294695E+02 -0.99941648945E+02  0.11522903263E+03  0.00000000000E+00 0. -1.
         21    1    1    2  504  501  0.17734927467E+02  0.30784882241E+02  0.18308826415E+02  0.39968109181E+02  0.00000000000E+00 0. -1.
         21    1    1    2  505  502 -0.55509124279E+02  0.93534851183E+02  0.74543636246E+02  0.13185895862E+03  0.00000000000E+00 0.  1.
          2    1    1    2  501    0  0.81281182925E+02 -0.16169002812E+03 -0.96705397122E+03  0.98384128758E+03  0.00000000000E+00 0. -1.
<scales pt_clust_3="57.82002" pt_clust_4="35.52797" pt_clust_5="14000.00000" pt_clust_6="129.27192"></scales>
<clustering>
<clus scale="   35.528">  1  4  2 -1</clus>
<clus scale="   57.820">  2  3  1 -1</clus>
<clus scale="  129.272">  2  6  1 -1</clus>
<clus scale="   35.528">  1  3  2 -1</clus>
</clustering>
</event>
<event>
 6    0  0.1631680E+002  0.1219135E+03  0.7546771E-02  0.1239973E+00
          2   -1    0    0  503    0 -0.00000000000E+00  0.00000000000E+00  0.83436933442E+03  0.83436933442E+03  0.00000000000E+00 0. -1.
         21   -1    0    0  505  502  0.00000000000E+00 -0.00000000000E+00 -0.91842582906E+02  0.91842582906E+02  0.00000000000E+00 0. -1.
         21    1    1    2  503  504 -0.37936853032E+02 -0.28489563974E+02  0.11595610643E+03  0.12528638670E+03  0.00000000000E+00 0.  1.
         21    1    1    2  504  502  0.48048210900E+02 -0.28606776213E+02  0.15983594501E+02  0.58158864407E+02  0.00000000000E+00 0. -1.
         21    1    1    2  505  501  0.53929993841E+02  0.11032526040E+03 -0.37039723949E+01  0.12285693603E+03  0.00000000000E+00 0. -1.
          2    1    1    2  501    0 -0.64041351709E+02 -0.53228920217E+02  0.61429102297E+03  0.61990973019E+03  0.00000000000E+00 0. -1.
<scales pt_clust_3="47.44323" pt_clust_4="55.03056" pt_clust_5="14000.00000" pt_clust_6="121.91354"></scales>
<clustering>
<clus scale="   47.443">  1  3  2 -1</clus>
<clus scale="   55.031">  2  4  1 -1</clus>
<clus scale="  121.914">  1  6  2 -1</clus>
<clus scale="   55.031">  2  3  1 -1</clus>
</clustering>
</event>
<event>
 6    0  0.1631680E+002  0.1113576E+03  0.7546771E-02  0.1258076E+00
         21   -1    0    0  501  502  0.00000000000E+00  0.00000000000E+00  0.41211710966E+03  0.41211710966E+03  0.00000000000E+00 0. -1.
          2   -1    0    0  503    0 -0.00000000000E+00 -0.00000000000E+00 -0.11979975957E+04  0.11979975957E+04  0.00000000000E+00 0.  1.
         21    1    1    2  503  504 -0.63331094488E+02 -0.22764418985E+01 -0.20197777099E+03  0.21168615848E+03  0.00000000000E+00 0.  1.
         21    1    1    2  504  505  0.20838347536E+02  0.63727163832E+02 -0.36996541755E+01  0.67149650625E+02  0.00000000000E+00 0. -1.
         21    1    1    2  505  502 -0.68482244769E+02 -0.10471143491E+03  0.36125918030E+03  0.38231204245E+03  0.00000000000E+00 0. -1.
          2    1    1    2  501    0  0.11097499172E+03  0.43260712974E+02 -0.94146224115E+03  0.94896685378E+03  0.00000000000E+00 0.  1.
<scales pt_clust_3="63.37199" pt_clust_4="14000.00000" pt_clust_5="111.35759" pt_clust_6="65.16675"></scales>
<clustering>
<clus scale="   63.372">  2  3  1 -1</clus>
<clus scale="   65.167">  2  6  1 -1</clus>
<clus scale="  111.358">  1  5  2 -1</clus>
<clus scale="  111.358">  1  3  2 -1</clus>
</clustering>
</event>
<event>
 6    0  0.1631680E+002  0.7235997E+02  0.7546771E-02  0.1352247E+00
          2   -1    0    0  503    0 -0.00000000000E+00  0.00000000000E+00  0.18601282285E+04  0.18601282285E+04  0.00000000000E+00 0.  1.
         21   -1    0    0  504  502  0.00000000000E+00 -0.00000000000E+00 -0.51867029372E+03  0.51867029372E+03  0.00000000000E+00 0.  1.
         21    1    1    2  503  502 -0.22298981408E+02  0.10232405789E+03  0.22823568768E+03  0.25111548444E+03  0.00000000000E+00 0.  1.
         21    1    1    2  504  505 -0.36958008072E+02  0.16296511285E+01 -0.86788906626E+02  0.94344392715E+02  0.00000000000E+00 0.  1.
         21    1    1    2  505  501  0.12144452046E+02 -0.69352630130E+02 -0.41315622863E+03  0.41911256755E+03  0.00000000000E+00 0.  1.
          2    1    1    2  501    0  0.47112537434E+02 -0.34601078886E+02  0.16131673824E+04  0.16142260776E+04  0.00000000000E+00 0.  1.
<scales pt_clust_3="72.35997" pt_clust_4="36.99392" pt_clust_5="14000.00000" pt_clust_6="58.41560"></scales>
<clustering>
<clus scale="   36.994">  2  4  1 -1</clus>
<clus scale="   58.416">  1  6  2 -1</clus>
<clus scale="   72.360">  1  3  2 -1</clus>
<clus scale="   36.994">  2  3  1 -1</clus>
</clustering>
</event>
<event>
 6    0  0.1631680E+002  0.2290628E+03  0.7546771E-02  0.1127301E+00
         21   -1    0    0  501  502  0.00000000000E+00  0.00000000000E+00  0.13776677608E+04  0.13776677608E+04  0.00000000000E+00 0.  1.
          3   -1    0    0  504    0 -0.00000000000E+00 -0.00000000000E+00 -0.24070825136E+03  0.24070825136E+03  0.00000000000E+00 0. -1.
         21    1    1    2  503  502 -0.54716507854E+02  0.36403719285E+02  0.68954374316E+03  0.69266853599E+03  0.00000000000E+00 0.  1.
         21    1    1    2  504  505 -0.75325183086E+02 -0.15914798187E+02 -0.55156968380E+02  0.94707207588E+02  0.00000000000E+00 0.  1.
         21    1    1    2  505  503 -0.15562245253E+03 -0.11987779130E+03  0.49041564742E+03  0.52829588283E+03  0.00000000000E+00 0.  1.
          3    1    1    2  501    0  0.28566414347E+03  0.99388870203E+02  0.12157087242E+02  0.30270438576E+03  0.00000000000E+00 0. -1.
<scales pt_clust_3="65.72007" pt_clust_4="78.32495" pt_clust_5="229.06278" pt_clust_6="14000.00000"></scales>
<clustering>
<clus scale="   65.720">  1  3  2 -1</clus>
<clus scale="   78.325">  2  4  1 -1</clus>
<clus scale="  229.063">  1  5  2 -1</clus>
<clus scale="   65.720">  1  3  2 -1</clus>
</clustering>
</event>
<event>
 6    0  0.1631680E+002  0.8614618E+02  0.7546771E-02  0.1312462E+00
         21   -1    0    0  504  502  0.00000000000E+00  0.00000000000E+00  0.77724258068E+03  0.77724258068E+03  0.00000000000E+00 0. -1.
          2   -1    0    0  503    0 -0.00000000000E+00 -0.00000000000E+00 -0.71447491371E+02  0.71447491371E+02  0.00000000000E+00 0. -1.
         21    1    1    2  503  505  0.16583797140E+02 -0.52133836179E+02 -0.28582255181E+02  0.61724423963E+02  0.00000000000E+00 0. -1.
         21    1    1    2  504  501 -0.80842887339E+02 -0.29207781307E+02  0.27210053110E+03  0.28535480712E+03  0.00000000000E+00 0. -1.
         21    1    1    2  505  502  0.89350644619E+02 -0.38228941527E+01  0.33287622953E+03  0.34468062957E+03  0.00000000000E+00 0. -1.
          2    1    1    2  501    0 -0.25091554420E+02  0.85164511639E+02  0.12940058386E+03  0.15693021139E+03  0.00000000000E+00 0. -1.
<scales pt_clust_3="54.70794" pt_clust_4="86.14618" pt_clust_5="14000.00000" pt_clust_6="60.15438"></scales>
<clustering>
<clus scale="   54.708">  2  3  1 -1</clus>
<clus scale="   60.154">  2  6  1 -1</clus>
<clus scale="   86.146">  2  4  1 -1</clus>
<clus scale="   86.146">  1  3  2 -1</clus>
</clustering>
</event>
<event>
 6    0  0.1631680E+002  0.8613186E+02  0.7546771E-02  0.1312499E+00
         21   -1    0    0  503  502  0.00000000000E+00  0.00000000000E+00  0.39017614781E+03  0.39017614781E+03  0.00000000000E+00 0.  1.
          1   -1    0    0  504    0 -0.00000000000E+00 -0.00000000000E+00 -0.26773781475E+03  0.26773781475E+03  0.00000000000E+00 0.  1.
         21    1    1    2  503  501  0.95102092546E+02  0.87459099358E+02  0.22742131731E+03  0.26156061943E+03  0.00000000000E+00 0.  1.
         21    1    1    2  504  505 -0.66370363960E+02  0.17674836872E+02 -0.64169752838E+02  0.93995650165E+02  0.00000000000E+00 0.  1.
         21    1    1    2  505  502 -0.69839358512E+02 -0.80390116622E+01  0.10258886363E+03  0.12436493335E+03  0.00000000000E+00 0.  1.
          1    1    1    2  501    0  0.41107629925E+02 -0.97094924568E+02 -0.14340209504E+03  0.17799275962E+03  0.00000000000E+00 0.  1.
<scales pt_clust_3="86.13186" pt_clust_4="68.68351" pt_clust_5="74.00347" pt_clust_6="14000.00000"></scales>
<clustering>
<clus scale="   68.684">  2  4  1 -1</clus>
<clus scale="   74.003">  1  5  2 -1</clus>
<clus scale="   86.132">  1  3  2 -1</clus>
<clus scale="   74.003">  1  3  2 -1</clus>
</clustering>
</event>
<event>
 6    0  0.1631680E+002  0.1261454E+03  0.7546771E-02  0.1233290E+00
          2   -1    0    0  505    0 -0.00000000000E+00  0.00000000000E+00  0.42080386756E+03  0.42080386756E+03  0.00000000000E+00 0. -1.
         21   -1    0    0  501  502  0.00000000000E+00 -0.00000000000E+00 -0.11860633911E+03  0.11860633911E+03  0.00000000000E+00 0. -1.
         21    1    1    2  503  504  0.14207240580E+03  0.17806895869E+02  0.15408403584E+03  0.21034149407E+03  0.00000000000E+00 0. -1.
         21    1    1    2  504  502 -0.74154131605E+02 -0.11108764211E+03  0.54515146280E+01  0.13367504806E+03  0.00000000000E+00 0. -1.
         21    1    1    2  505  503 -0.45611496113E+02  0.10452783132E+02  0.61729225435E+02  0.77460741835E+02  0.00000000000E+00 0. -1.
          2    1    1    2  501    0 -0.22306778077E+02  0.82827963108E+02  0.80932752551E+02  0.11793292270E+03  0.00000000000E+00 0. -1.
<scales pt_clust_3="126.14538" pt_clust_4="14000.00000" pt_clust_5="46.79390" pt_clust_6="92.73575"></scales>
<clustering>
<clus scale="   46.794">  1  5  2 -1</clus>
<clus scale="   92.736">  1  6  2 -1</clus>
<clus scale="  126.145">  1  3  2 -1</clus>
<clus scale="  126.145">  2  3  1 -1</clus>
</clustering>
</event>
<event>
 6    0  0.1631680E+002  0.1211725E+03  0.7546771E-02  0.1241175E+00
         21   -1    0    0  501  502  0.00000000000E+00  0.00000000000E+00  0.16228953847E+03  0.16228953847E+03  0.00000000000E+00 0.  1.
          2   -1    0    0  504    0 -0.00000000000E+00 -0.00000000000E+00 -0.43044475010E+04  0.43044475010E+04  0.00000000000E+00 0. -1.
         21    1    1    2  503  502  0.17012926777E+02 -0.36760942759E+02  0.13451290318E+03  0.14047963451E+03  0.00000000000E+00 0.  1.
         21    1    1    2  504  505  0.69818935676E+02  0.78200897136E+02 -0.19608706088E+04  0.19636709522E+04  0.00000000000E+00 0.  1.
         21    1    1    2  505  503  0.93515651858E+01  0.73872049704E+02 -0.45367886813E+02  0.87193902612E+02  0.00000000000E+00 0.  1.
          2    1    1    2  501    0 -0.96183427638E+02 -0.11531200408E+03 -0.22704323701E+04  0.22753925501E+04  0.00000000000E+00 0. -1.
<scales pt_clust_3="40.50687" pt_clust_4="121.17249" pt_clust_5="48.98095" pt_clust_6="14000.00000"></scales>
<clustering>
<clus scale="   40.507">  1  3  2 -1</clus>
<clus scale="   48.981">  1  5  2 -1</clus>
<clus scale="  121.172">  2  4  1 -1</clus>
<clus scale="   40.507">  1  3  2 -1</clus>
</clustering>
</event>
<event>
 6    0  0.1631680E+002  0.9385127E+02  0.7546771E-02  0.1293784E+00
          1   -1    0    0  504    0 -0.00000000000E+00  0.00000000000E+00  0.38693312189E+03  0.38693312189E+03  0.00000000000E+00 0. -1.
         21   -1    0    0  501  502  0.00000000000E+00 -0.00000000000E+00 -0.13980744609E+04  0.13980744609E+04  0.00000000000E+00 0.  1.
         21    1    1    2  503  505 -0.25253165317E+01 -0.81508619019E+02 -0.20843940869E+03  0.22382363435E+03  0.00000000000E+00 0. -1.
         21    1    1    2  504  503 -0.27731165001E+02 -0.17238735519E+02  0.15764965104E+03  0.16099566450E+03  0.00000000000E+00 0. -1.
         21    1    1    2  505  502 -0.43445714902E+02 -0.52346568565E+00 -0.11624542393E+04  0.11632659467E+04  0.00000000000E+00 0.  1.
          1    1    1    2  501    0  0.73702196435E+02  0.99270820224E+02  0.20210265801E+03  0.23692233724E+03  0.00000000000E+00 0. -1.
<scales pt_clust_3="14000.00000" pt_clust_4="32.65259" pt_clust_5="43.49869" pt_clust_6="93.85127"></scales>
<clustering>
<clus scale="   32.653">  1  4  2 -1</clus>
<clus scale="   43.499">  2  5  1 -1</clus>
<clus scale="   93.851">  1  6  2 -1</clus>
<clus scale="   43.499">  2  3  1 -1</clus>
</clustering>
</event>
<event>
 6    0  0.1631680E+002  0.1051025E+03  0.7546771E-02  0.1269918E+00
         -3   -1    0    0    0  501 -0.00000000000E+00  0.00000000000E+00  0.63279296896E+02  0.63279296896E+02  0.00000000000E+00 0. -1.
         21   -1    0    0  504  502  0.00000000000E+00 -0.00000000000E+00 -0.78521307628E+03  0.78521307628E+03  0.00000000000E+00 0. -1.
         21    1    1    2  503  505  0.38197967304E+02 -0.86236924395E+02 -0.19105647212E+03  0.21306916101E+03  0.00000000000E+00 0. -1.
         21    1    1    2  504  501 -0.53356167449E+02 -0.62797572491E+02 -0.31847994556E+02  0.88344272439E+02  0.00000000000E+00 0. -1.
         21    1    1    2  505  502  0.41624174198E+02  0.21179002051E+02 -0.33103160131E+03  0.33430980104E+03  0.00000000000E+00 0. -1.
         -3    1    1    2    0  503 -0.26465974053E+02  0.12785549483E+03 -0.16799771140E+03  0.21276913869E+03  0.00000000000E+00 0. -1.
<scales pt_clust_3="105.10248" pt_clust_4="76.71887" pt_clust_5="46.70248" pt_clust_6="14000.00000"></scales>
<clustering>
<clus scale="   46.702">  2  5  1 -1</clus>
<clus scale="   76.719">  1  4  2 -1</clus>
<clus scale="  105.102">  2  3  1 -1</clus>
<clus scale="   46.702">  2  3  1 -1</clus>
</clustering>
</event>
<event>
 6    0  0.1631680E+002  0.9805166E+02  0.7546771E-02  0.1284447E+00
         21   -1    0    0  505  502  0.00000000000E+00  0.00000000000E+00  0.56278986027E+03  0.56278986027E+03  0.00000000000E+00 0. -1.
          1   -1    0    0  504    0 -0.00000000000E+00 -0.00000000000E+00 -0.34493743275E+03  0.34493743275E+03  0.00000000000E+00 0.  1.
         21    1    1    2  503  502 -0.25309202005E+02  0.24368844434E+02  0.74711666823E+02  0.82560459330E+02  0.00000000000E+00 0. -1.
         21    1    1    2  504  503 -0.34064074722E+02  0.32996293044E+02 -0.99889411234E+02  0.11057581570E+03  0.00000000000E+00 0. -1.
         21    1    1    2  505  501 -0.18456320095E+02  0.63468067340E+02  0.45429055240E+03  0.45907378201E+03  0.00000000000E+00 0. -1.
          1    1    1    2  501    0  0.77829596823E+02 -0.12083320482E+03 -0.21126038047E+03  0.25551723598E+03  0.00000000000E+00 0.  1.
<scales pt_clust_3="35.13398" pt_clust_4="47.81259" pt_clust_5="98.05166" pt_clust_6="14000.00000"></scales>
<clustering>
<clus scale="   35.134">  1  3  2 -1</clus>
<clus scale="   47.813">  2  4  1 -1</clus>
<clus scale="   98.052">  1  5  2 -1</clus>
<clus scale="   35.134">  1  3  2 -1</clus>
</clustering>
</event>
<event>
 6    0  0.1631680E+002  0.2465129E+03  0.7546771E-02  0.1115529E+00
          2   -1    0    0  505    0 -0.00000000000E+00  0.00000000000E+00  0.14524979770E+04  0.14524979770E+04  0.00000000000E+00 0. -1.
         21   -1    0    0  504  502  0.00000000000E+00 -0.00000000000E+00 -0.17602909278E+04  0.17602909278E+04  0.00000000000E+00 0.  1.
         21    1    1    2  503  502  0.28354258099E+03 -0.16535498547E+03 -0.38730793399E+03  0.50768701203E+03  0.00000000000E+00 0.  1.
         21    1    1    2  504  501 -0.23939082795E+03 -0.38852473731E+02 -0.12759841816E+04  0.12988275924E+04  0.00000000000E+00 0.  1.
         21    1    1    2  505  503  0.28397674821E+02 -0.13934194454E+02  0.21693025403E+00  0.31632843202E+02  0.00000000000E+00 0.  1.
          2    1    1    2  501    0 -0.72549427859E+02  0.21814165366E+03  0.13552822345E+04  0.13746414572E+04  0.00000000000E+00 0. -1.
<scales pt_clust_3="246.51292" pt_clust_4="14000.00000" pt_clust_5="31.63210" pt_clust_6="209.90769"></scales>
<clustering>
<clus scale="   31.632">  1  5  2 -1</clus>
<clus scale="  209.908">  1  6  2 -1</clus>
<clus scale="  246.513">  1  3  2 -1</clus>
<clus scale="  246.513">  2  3  1 -1</clus>
</clustering>
</event>
<event>
 6    0  0.1631680E+002  0.9767875E+02  0.7546771E-02  0.1285254E+00
          1   -1    0    0  504    0 -0.00000000000E+00  0.00000000000E+00  0.99067874183E+03  0.99067874183E+03  0.00000000000E+00 0. -1.
         21   -1    0    0  505  502  0.00000000000E+00 -0.00000000000E+00 -0.39162783394E+02  0.39162783394E+02  0.00000000000E+00 0. -1.
         21    1    1    2  503  502  0.90438163948E+02  0.17222461828E+02  0.96762516687E+02  0.13356144401E+03  0.00000000000E+00 0. -1.
         21    1    1    2  504  503  0.48313520430E+02  0.17180897888E+02  0.16375256221E+03  0.17159335984E+03  0.00000000000E+00 0. -1.
         21    1    1    2  505  501 -0.99688184737E+02 -0.40719381766E+02  0.16394403041E+03  0.19614649457E+03  0.00000000000E+00 0. -1.
          1    1    1    2  501    0 -0.39063499641E+02  0.63160220495E+01  0.52705684913E+03  0.52854022681E+03  0.00000000000E+00 0. -1.
<scales pt_clust_3="14000.00000" pt_clust_4="39.32124" pt_clust_5="97.67875" pt_clust_6="39.57081"></scales>
<clustering>
<clus scale="   39.571">  1  6  2 -1</clus>
<clus scale="   39.321">  1  4  2 -1</clus>
<clus scale="   97.679">  1  5  2 -1</clus>
<clus scale="   97.679">  2  3  1 -1</clus>
</clustering>
</event>
<event>
 6    0  0.1631680E+002  0.1578797E+03  0.7546771E-02  0.1191112E+00
          2   -1    0    0  503    0 -0.00000000000E+00  0.00000000000E+00  0.29274284916E+04  0.29274284916E+04  0.00000000000E+00 0. -1.
         21   -1    0    0  501  502  0.00000000000E+00 -0.00000000000E+00 -0.59626966940E+02  0.59626966940E+02  0.00000000000E+00 0. -1.
         21    1    1    2  503  505 -0.72216041592E+02  0.30390453121E+02  0.91367225541E+03  0.91702547763E+03  0.00000000000E+00 0.  1.
         21    1    1    2  504  502  0.37382838029E+01 -0.16408837563E+03  0.83273283694E+02  0.18404730250E+03  0.00000000000E+00 0. -1.
         21    1    1    2  505  504  0.71155523444E+02  0.50014780174E+02  0.28637659259E+03  0.29929273218E+03  0.00000000000E+00 0. -1.
          2    1    1    2  501    0 -0.26777656551E+01  0.83683142333E+02  0.15844793930E+04  0.15866899463E+04  0.00000000000E+00 0. -1.
<scales pt_clust_3="78.35009" pt_clust_4="157.87972" pt_clust_5="81.49432" pt_clust_6="14000.00000"></scales>
<clustering>
<clus scale="   78.350">  1  3  2 -1</clus>
<clus scale="   81.494">  1  5  2 -1</clus>
<clus scale="  157.880">  2  4  1 -1</clus>
<clus scale="  157.880">  2  3  1 -1</clus>
</clustering>
</event>
<event>
 6    0  0.1631680E+002  0.7929943E+02  0.7546771E-02  0.1331051E+00
         21   -1    0    0  503  502  0.00000000000E+00  0.00000000000E+00  0.10025916519E+03  0.10025916519E+03  0.00000000000E+00 0. -1.
          2   -1    0    0  505    0 -0.00000000000E+00 -0.00000000000E+00 -0.49104043258E+03  0.49104043258E+03  0.00000000000E+00 0. -1.
         21    1    1    2  503  501 -0.86051359250E+02  0.47209408392E+01 -0.45599997000E+02  0.97501197108E+02  0.00000000000E+00 0. -1.
         21    1    1    2  504  502  0.76758336780E+02  0.50563263392E+01  0.29662336423E+02  0.82445514756E+02  0.00000000000E+00 0. -1.
         21    1    1    2  505  504  0.58192140409E+02  0.42529423496E+02 -0.78881111254E+02  0.10685179821E+03  0.00000000000E+00 0. -1.
          2    1    1    2  501    0 -0.48899117939E+02 -0.52306690674E+02 -0.29596249556E+03  0.30450108769E+03  0.00000000000E+00 0. -1.
<scales pt_clust_3="79.29943" pt_clust_4="14000.00000" pt_clust_5="38.39690" pt_clust_6="71.60387"></scales>
<clustering>
<clus scale="   71.604">  2  6  1 -1</clus>
<clus scale="   38.397">  2  5  1 -1</clus>
<clus scale="   79.299">  2  3  1 -1</clus>
<clus scale="   79.299">  1  3  2 -1</clus>
</clustering>
</event>
<event>
 6    0  0.1631680E+002  0.1161868E+03  0.7546771E-02  0.1249524E+00
          2   -1    0    0  503    0 -0.00000000000E+00  0.00000000000E+00  0.94046565843E+03  0.94046565843E+03  0.00000000000E+00 0. -1.
         21   -1    0    0  504  502  0.00000000000E+00 -0.00000000000E+00 -0.92163533898E+02  0.92163533898E+02  0.00000000000E+00 0. -1.
         21    1    1    2  503  505 -0.39633548108E+02 -0.11754944247E+01  0.37274230372E+03  0.37484533464E+03  0.00000000000E+00 0. -1.
         21    1    1    2  504  501  0.35001664329E+02 -0.85116703451E+02 -0.24455572300E+02  0.95226281712E+02  0.00000000000E+00 0. -1.
         21    1    1    2  505  502 -0.99854958952E+02 -0.19246005996E+02  0.13933413021E+03  0.17249759829E+03  0.00000000000E+00 0. -1.
          2    1    1    2  501    0  0.10448684273E+03  0.10553820387E+03  0.36068126290E+03  0.39005997768E+03  0.00000000000E+00 0. -1.
<scales pt_clust_3="39.65098" pt_clust_4="91.18852" pt_clust_5="116.18678" pt_clust_6="14000.00000"></scales>
<clustering>
<clus scale="   39.651">  1  3  2 -1</clus>
<clus scale="   91.189">  2  4  1 -1</clus>
<clus scale="  116.187">  2  5  1 -1</clus>
<clus scale="   91.189">  2  3  1 -1</clus>
</clustering>
</event>
<event>
 6    0  0.1631680E+002  0.7336144E+02  0.7546771E-02  0.1349022E+00
         21   -1    0    0  504  502  0.00000000000E+00  0.00000000000E+00  0.82810674135E+02  0.82810674135E+02  0.00000000000E+00 0. -1.
          2   -1    0    0  503    0 -0.00000000000E+00 -0.00000000000E+00 -0.81637595385E+03  0.81637595385E+03  0.00000000000E+00 0.  1.
         21    1    1    2  503  505 -0.18240692844E+02  0.50395724982E+02 -0.17551438086E+03  0.18351498538E+03  0.00000000000E+00 0.  1.
         21    1    1    2  504  501 -0.22321604659E+02  0.51000073911E+02 -0.22108450664E+02  0.59900293524E+02  0.00000000000E+00 0. -1.
         21    1    1    2  505  502  0.54056033209E+02  0.21592097404E+02  0.37428017876E+02  0.69203539785E+02  0.00000000000E+00 0. -1.
          2    1    1    2  501    0 -0.13493735706E+02 -0.12298789630E+03 -0.57337046607E+03  0.58656780930E+03  0.00000000000E+00 0.  1.
<scales pt_clust_3="53.59526" pt_clust_4="73.36144" pt_clust_5="58.26797" pt_clust_6="14000.00000"></scales>
<clustering>
<clus scale="   53.595">  2  3  1 -1</clus>
<clus scale="   58.268">  1  5  2 -1</clus>
<clus scale="   73.361">  1  4  2 -1</clus>
<clus scale="   58.268">  1  3  2 -1</clus>
</clustering>
</event>
<event>
 6    0  0.1631680E+002  0.9869654E+02  0.7546771E-02  0.1283061E+00
         21   -1    0    0  503  502  0.00000000000E+00  0.00000000000E+00  0.28719853603E+03  0.28719853603E+03  0.00000000000E+00 0.  1.
         -3   -1    0    0    0  501 -0.00000000000E+00 -0.00000000000E+00 -0.17136952606E+04  0.17136952606E+04  0.00000000000E+00 0.  1.
         21    1    1    2  503  505  0.73006220313E+02  0.10437956071E+03  0.23838225804E+03  0.27027967339E+03  0.00000000000E+00 0.  1.
         21    1    1    2  504  502 -0.37894209532E+02 -0.11923184218E+02  0.18129882916E+02  0.43667219885E+02  0.00000000000E+00 0. -1.
         21    1    1    2  505  501 -0.28872666676E+02 -0.13708840015E+02 -0.30353971861E+03  0.30521783033E+03  0.00000000000E+00 0. -1.
         -3    1    1    2    0  504 -0.62393441040E+01 -0.78747536479E+02 -0.13794691469E+04  0.13817290730E+04  0.00000000000E+00 0.  1.
<scales pt_clust_3="14000.00000" pt_clust_4="40.01256" pt_clust_5="31.96190" pt_clust_6="98.69654"></scales>
<clustering>
<clus scale="   31.962">  2  5  1 -1</clus>
<clus scale="   40.013">  1  4  2 -1</clus>
<clus scale="   98.697">  2  6  1 -1</clus>
<clus scale="   40.013">  1  3  2 -1</clus>
</clustering>
</event>
<event>
 6    0  0.1631680E+002  0.1189206E+03  0.7546771E-02  0.1244888E+00
          2   -1    0    0  505    0 -0.00000000000E+00  0.00000000000E+00  0.30873409303E+03  0.30873409303E+03  0.00000000000E+00 0. -1.
         21   -1    0    0  501  502  0.00000000000E+00 -0.00000000000E+00 -0.23605481429E+04  0.23605481429E+04  0.00000000000E+00 0.  1.
         21    1    1    2  503  502 -0.93180633935E+02 -0.62327004078E+02 -0.10873588883E+04  0.10931224258E+04  0.00000000000E+00 0.  1.
         21    1    1    2  504  503  0.39633457839E+02  0.14468845922E+03 -0.12402436166E+04  0.12492837107E+04  0.00000000000E+00 0.  1.
         21    1    1    2  505  504  0.71103149198E+01 -0.60690765660E+02  0.17512946070E+02  0.63565941311E+02  0.00000000000E+00 0.  1.
          2    1    1    2  501    0  0.46436861176E+02 -0.21670689486E+02  0.25827550892E+03  0.26331015812E+03  0.00000000000E+00 0. -1.
<scales pt_clust_3="14000.00000" pt_clust_4="118.92056" pt_clust_5="91.62072" pt_clust_6="51.24452"></scales>
<clustering>
<clus scale="   51.245">  1  6  2 -1</clus>
<clus scale="   91.621">  1  5  2 -1</clus>
<clus scale="  118.921">  1  4  2 -1</clus>
<clus scale="  118.921">  2  3  1 -1</clus>
</clustering>
</event>
<event>
 6    0  0.1631680E+002  0.8089568E+02  0.7546771E-02  0.1326529E+00
          2   -1    0    0  503    0 -0.00000000000E+00  0.00000000000E+00  0.34897423487E+04  0.34897423487E+04  0.00000000000E+00 0.  1.
         21   -1    0    0  504  502  0.00000000000E+00 -0.00000000000E+00 -0.19560895541E+02  0.19560895541E+02  0.00000000000E+00 0. -1.
         21    1    1    2  503  505 -0.42991255072E+02  0.91241447994E+01  0.12736003716E+04  0.12743584286E+04  0.00000000000E+00 0.  1.
         21    1    1    2  504  501  0.69152076809E+02 -0.30790663677E+02  0.96214856971E+02  0.12242292840E+03  0.00000000000E+00 0. -1.
         21    1    1    2  505  502 -0.10056069180E+03  0.39571487783E+02  0.56452745929E+03  0.57477787681E+03  0.00000000000E+00 0. -1.
          2    1    1    2  501    0  0.74399870060E+02 -0.17904968905E+02  0.15358387653E+04  0.15377440105E+04  0.00000000000E+00 0.  1.
<scales pt_clust_3="43.94881" pt_clust_4="80.89568" pt_clust_5="14000.00000" pt_clust_6="46.06088"></scales>
<clustering>
<clus scale="   43.949">  1  3  2 -1</clus>
<clus scale="   46.061">  1  6  2 -1</clus>
<clus scale="   80.896">  2  4  1 -1</clus>
<clus scale="   80.896">  2  3  1 -1</clus>
</clustering>
</event>
<event>
 6    0  0.1631680E+002  0.1151657E+03  0.7546771E-02  0.1251292E+00
         21   -1    0    0  501  502  0.00000000000E+00  0.00000000000E+00  0.49019957060E+03  0.49019957060E+03  0.00000000000E+00 0.  1.
          1   -1    0    0  505    0 -0.00000000000E+00 -0.00000000000E+00 -0.18676878516E+04  0.18676878516E+04  0.00000000000E+00 0.  1.
         21    1    1    2  503  502  0.47758677304E+02 -0.47531599370E+02  0.45945086911E+03  0.46436542218E+03  0.00000000000E+00 0.  1.
         21    1    1    2  504  503 -0.11027247231E+02 -0.72263108972E+02 -0.26584545494E+02  0.77783643261E+02  0.00000000000E+00 0. -1.
         21    1    1    2  505  504  0.16592786134E+01  0.45251027623E+02 -0.34100609615E+03  0.34399936965E+03  0.00000000000E+00 0. -1.
          1    1    1    2  501    0 -0.38390708686E+02  0.74543680719E+02 -0.14693485085E+04  0.14717389871E+04  0.00000000000E+00 0.  1.
<scales pt_clust_3="67.33108" pt_clust_4="115.16567" pt_clust_5="45.28144" pt_clust_6="14000.00000"></scales>
<clustering>
<clus scale="   45.281">  2  5  1 -1</clus>
<clus scale="   67.331">  1  3  2 -1</clus>
<clus scale="  115.166">  1  4  2 -1</clus>
<clus scale="   67.331">  1  3  2 -1</clus>
</clustering>
</event>
<event>
 6    0  0.1631680E+002  0.7927056E+02  0.7546771E-02  0.1331134E+00
          2   -1    0    0  505    0 -0.00000000000E+00  0.00000000000E+00  0.11639200481E+04  0.11639200481E+04  0.00000000000E+00 0. -1.
         21   -1    0    0  501  502  0.00000000000E+00 -0.00000000000E+00 -0.46935678661E+03  0.46935678661E+03  0.00000000000E+00 0. -1.
         21    1    1    2  503  504  0.59093101362E+02 -0.12613805147E+02  0.31888674117E+03  0.32456102108E+03  0.00000000000E+00 0. -1.
         21    1    1    2  504  502 -0.35273419192E+02  0.25636838137E+02 -0.45653442892E+03  0.45861219605E+03  0.00000000000E+00 0. -1.
         21    1    1    2  505  503 -0.23159504264E+02 -0.87966938424E+02  0.32906483241E+03  0.34140622259E+03  0.00000000000E+00 0. -1.
          2    1    1    2  501    0 -0.66017790718E+00  0.74943905433E+02  0.50314611680E+03  0.50869739497E+03  0.00000000000E+00 0. -1.
<scales pt_clust_3="51.00854" pt_clust_4="43.60575" pt_clust_5="14000.00000" pt_clust_6="79.27056"></scales>
<clustering>
<clus scale="   43.606">  2  4  1 -1</clus>
<clus scale="   51.009">  2  3  1 -1</clus>
<clus scale="   79.271">  1  6  2 -1</clus>
<clus scale="   43.606">  2  3  1 -1</clus>
</clustering>
</event>
<event>
 6    0  0.1631680E+002  0.1867722E+03  0.7546771E-02  0.1161405E+00
         21   -1    0    0  504  502  0.00000000000E+00  0.00000000000E+00  0.13276368435E+04  0.13276368435E+04  0.00000000000E+00 0. -1.
          4   -1    0    0  505    0 -0.00000000000E+00 -0.00000000000E+00 -0.12959933981E+03  0.12959933981E+03  0.00000000000E+00 0.  1.
         21    1    1    2  503  502 -0.36483448964E+02 -0.17290426755E+03  0.61458707317E+03  0.63948744968E+03  0.00000000000E+00 0. -1.
         21    1    1    2  504  501 -0.47790100230E+02 -0.39920892649E+01  0.60193180409E+03  0.60383915676E+03  0.00000000000E+00 0. -1.
         21    1    1    2  505  503  0.25164531392E+02  0.38117297366E+02  0.30950960837E+02  0.55173761657E+02  0.00000000000E+00 0.  1.
          4    1    1    2  501    0  0.59109017802E+02  0.13877905945E+03 -0.49432334454E+02  0.15873581517E+03  0.00000000000E+00 0.  1.
<scales pt_clust_3="14000.00000" pt_clust_4="47.72812" pt_clust_5="45.67474" pt_clust_6="186.77224"></scales>
<clustering>
<clus scale="   45.675">  2  5  1 -1</clus>
<clus scale="   47.728">  1  4  2 -1</clus>
<clus scale="  186.772">  2  6  1 -1</clus>
<clus scale="   47.728">  1  3  2 -1</clus>
</clustering>
</event>
<event>
 6    0  0.1631680E+002  0.1266031E+03  0.7546771E-02  0.1232585E+00
         21   -1    0    0  501  502  0.00000000000E+00  0.00000000000E+00  0.23695818332E+03  0.23695818332E+03  0.00000000000E+00 0. -1.
          2   -1    0    0  505    0 -0.00000000000E+00 -0.00000000000E+00 -0.13307573308E+04  0.13307573308E+04  0.00000000000E+00 0.  1.
         21    1    1    2  503  504 -0.13199738801E+03  0.91654800396E+02  0.15451953538E+03  0.22293541597E+03  0.00000000000E+00 0. -1.
         21    1    1    2  504  502  0.81554416867E+01 -0.94006592985E+02 -0.26031483612E+02  0.97884569227E+02  0.00000000000E+00 0. -1.
         21    1    1    2  505  503 -0.31093742566E+02  0.26079005380E+02 -0.51042907743E+02  0.65209767514E+02  0.00000000000E+00 0. -1.
          2    1    1    2  501    0  0.15493568889E+03 -0.23727212791E+02 -0.11712442915E+04  0.11816857614E+04  0.00000000000E+00 0.  1.
<scales pt_clust_3="126.60309" pt_clust_4="92.97446" pt_clust_5="40.58245" pt_clust_6="14000.00000"></scales>
<clustering>
<clus scale="   40.582">  2  5  1 -1</clus>
<clus scale="   92.974">  1  4  2 -1</clus>
<clus scale="  126.603">  1  3  2 -1</clus>
<clus scale="   92.974">  1  3  2 -1</clus>
</clustering>
</event>
<event>
 6    0  0.1631680E+002  0.8409768E+02  0.7546771E-02  0.1317809E+00
          2   -1    0    0  505    0 -0.00000000000E+00  0.00000000000E+00  0.26100736851E+03  0.26100736851E+03  0.00000000000E+00 0.  1.
         21   -1    0    0  504  502  0.00000000000E+00 -0.00000000000E+00 -0.68094036829E+03  0.68094036829E+03  0.00000000000E+00 0. -1.
         21    1    1    2  503  502  0.54086096822E+02 -0.59322429026E+02 -0.12259290185E+03  0.14653830912E+03  0.00000000000E+00 0.  1.
         21    1    1    2  504  501 -0.71482227763E+02  0.47523139067E+02 -0.49902138541E+03  0.50635017600E+03  0.00000000000E+00 0. -1.
         21    1    1    2  505  503  0.75171788520E+02 -0.13172778297E+02 -0.15208035065E+01  0.76332383172E+02  0.00000000000E+00 0.  1.
          2    1    1    2  501    0 -0.57775657579E+02  0.24972068256E+02  0.20320209099E+03  0.21272686851E+03  0.00000000000E+00 0.  1.
<scales pt_clust_3="14000.00000" pt_clust_4="84.09768" pt_clust_5="34.71325" pt_clust_6="62.94149"></scales>
<clustering>
<clus scale="   62.941">  1  6  2 -1</clus>
<clus scale="   34.713">  1  5  2 -1</clus>
<clus scale="   84.098">  2  4  1 -1</clus>
<clus scale="   84.098">  2  3  1 -1</clus>
</clustering>
</event>
<event>
 6    0  0.1631680E+002  0.1593826E+03  0.7546771E-02  0.1189396E+00
         21   -1    0    0  505  502  0.00000000000E+00  0.00000000000E+00  0.20037849390E+03  0.20037849390E+03  0.00000000000E+00 0. -1.
          1   -1    0    0  503    0 -0.00000000000E+00 -0.00000000000E+00 -0.88261711195E+03  0.88261711195E+03  0.00000000000E+00 0.  1.
         21    1    1    2  503  502  0.33974968615E+02  0.10611228232E+02 -0.12652825009E+03  0.13143931957E+03  0.00000000000E+00 0.  1.
         21    1    1    2  504  501 -0.22128956622E+03  0.10870989396E+02 -0.73480674330E+02  0.23342377777E+03  0.00000000000E+00 0. -1.
         21    1    1    2  505  504  0.13949192974E+03 -0.28255975982E+02  0.73585650244E+02  0.16022249081E+03  0.00000000000E+00 0. -1.
          1    1    1    2  501    0  0.47822667869E+02  0.67737583543E+01 -0.55581534388E+03  0.55791001770E+03  0.00000000000E+00 0.  1.
<scales pt_clust_3="35.59349" pt_clust_4="159.38265" pt_clust_5="14000.00000" pt_clust_6="74.37685"></scales>
<clustering>
<clus scale="   35.593">  2  3  1 -1</clus>
<clus scale="   74.377">  2  6  1 -1</clus>
<clus scale="  159.383">  2  4  1 -1</clus>
<clus scale="  159.383">  1  3  2 -1</clus>
</clustering>
</event>
<event>
 6    0  0.1631680E+002  0.1399787E+03  0.7546771E-02  0.1213358E+00
          2   -1    0    0  505    0 -0.00000000000E+00  0.00000000000E+00  0.15877507633E+04  0.15877507633E+04  0.00000000000E+00 0.  1.
         21   -1    0    0  504  502  0.00000000000E+00 -0.00000000000E+00 -0.68250054307E+02  0.68250054307E+02  0.00000000000E+00 0. -1.
         21    1    1    2  503  502 -0.18894688328E+02  0.26447827908E+02 -0.18432766075E+02  0.37366612280E+02  0.00000000000E+00 0. -1.
         21    1    1    2  504  501 -0.51438644331E+02 -0.67300217073E+02  0.35241947874E+02  0.91745562501E+02  0.00000000000E+00 0. -1.
         21    1    1    2  505  503 -0.57602770196E+02 -0.34849338554E+02  0.13217248774E+03  0.14833112299E+03  0.00000000000E+00 0. -1.
          2    1    1    2  501    0  0.12793610286E+03  0.75701727719E+02  0.13705190394E+04  0.13785575198E+04  0.00000000000E+00 0.  1.
<scales pt_clust_3="32.50380" pt_clust_4="139.97866" pt_clust_5="68.12978" pt_clust_6="14000.00000"></scales>
<clustering>
<clus scale="   32.504">  2  3  1 -1</clus>
<clus scale="   68.130">  2  5  1 -1</clus>
<clus scale="  139.979">  2  4  1 -1</clus>
<clus scale="   32.504">  2  3  1 -1</clus>
</clustering>
</event>
<event>
 6    0  0.1631680E+002  0.2822328E+03  0.7546771E-02  0.1094476E+00
          2   -1    0    0  505    0 -0.00000000000E+00  0.00000000000E+00  0.16413852047E+04  0.16413852047E+04  0.00000000000E+00 0. -1.
         21   -1    0    0  504  502  0.00000000000E+00 -0.00000000000E+00 -0.45764881434E+03  0.45764881434E+03  0.00000000000E+00 0.  1.
         21    1    1    2  503  501  0.98842726218E+02  0.18748715608E+03  0.10622061948E+04  0.10831451050E+04  0.00000000000E+00 0. -1.
         21    1    1    2  504  503 -0.15949567425E+03 -0.18413593759E+03 -0.38910119369E+03  0.45906933305E+03  0.00000000000E+00 0.  1.
         21    1    1    2  505  502  0.77614361419E+00 -0.30659661481E+02 -0.98359121037E+01  0.32208110903E+02  0.00000000000E+00 0.  1.
          2    1    1    2  501    0  0.59876804413E+02  0.27308442989E+02  0.52046730133E+03  0.52461147006E+03  0.00000000000E+00 0. -1.
<scales pt_clust_3="52.02149" pt_clust_4="266.38050" pt_clust_5="30.66948" pt_clust_6="52.02149"></scales>
<clustering>
<clus scale="   30.669">  2  5  1 -1</clus>
<clus scale="   52.021">  3  6 -1 -1</clus>
<clus scale="  266.380">  2  4  1 -1</clus>
<clus scale="   30.669">  2  3  1 -1</clus>
</clustering>
</event>
<event>
 6    0  0.1631680E+002  0.1032609E+03  0.7546771E-02  0.1273584E+00
          2   -1    0    0  504    0 -0.00000000000E+00  0.00000000000E+00  0.73268833086E+03  0.73268833086E+03  0.00000000000E+00 0. -1.
         21   -1    0    0  505  502  0.00000000000E+00 -0.00000000000E+00 -0.75261029283E+02  0.75261029283E+02  0.00000000000E+00 0. -1.
         21    1    1    2  503  502 -0.44725983930E+02  0.11996869814E+03  0.39872472879E+03  0.41877716213E+03  0.00000000000E+00 0. -1.
         21    1    1    2  504  503 -0.18701246978E+02 -0.90532469259E+02  0.28486283745E+03  0.29948739671E+03  0.00000000000E+00 0.  1.
         21    1    1    2  505  501  0.23596042542E+02 -0.25244312750E+02 -0.34439840318E+02  0.48786792793E+02  0.00000000000E+00 0. -1.
          2    1    1    2  501    0  0.39831188366E+02 -0.41919161361E+01  0.82795756653E+01  0.40898008518E+02  0.00000000000E+00 0. -1.
<scales pt_clust_3="103.26094" pt_clust_4="14000.00000" pt_clust_5="34.55501" pt_clust_6="53.83602"></scales>
<clustering>
<clus scale="   34.555">  2  5  1 -1</clus>
<clus scale="   53.836">  2  6  1 -1</clus>
<clus scale="  103.261">  2  3  1 -1</clus>
<clus scale="   34.555">  2  3  1 -1</clus>
</clustering>
</event>
<event>
 6    0  0.1631680E+002  0.1529419E+03  0.7546771E-02  0.1196904E+00
         21   -1    0    0  504  502  0.00000000000E+00  0.00000000000E+00  0.65729944751E+02  0.65729944751E+02  0.00000000000E+00 0. -1.
         -4   -1    0    0    0  501 -0.00000000000E+00 -0.00000000000E+00 -0.88896440943E+03  0.88896440943E+03  0.00000000000E+00 0.  1.
         21    1    1    2  503  505  0.57942077639E+02  0.16049490460E+03 -0.12599516470E+03  0.21211006646E+03  0.00000000000E+00 0. -1.
         21    1    1    2  504  501  0.24145564759E+02 -0.24451588150E+02 -0.77962641722E+02  0.85200128901E+02  0.00000000000E+00 0.  1.
         21    1    1    2  505  502 -0.37090570184E+02 -0.74292288139E+01 -0.19954688773E+02  0.42767901999E+02  0.00000000000E+00 0. -1.
         -4    1    1    2    0  503 -0.44997072214E+02 -0.12861408764E+03 -0.59932196948E+03  0.61461625682E+03  0.00000000000E+00 0.  1.
<scales pt_clust_3="14000.00000" pt_clust_4="34.36406" pt_clust_5="37.11097" pt_clust_6="152.94187"></scales>
<clustering>
<clus scale="   34.364">  2  4  1 -1</clus>
<clus scale="   37.111">  1  5  2 -1</clus>
<clus scale="  152.942">  2  6  1 -1</clus>
<clus scale="   37.111">  1  3  2 -1</clus>
</clustering>
</event>
<event>
 6    0  0.1631680E+002  0.1094761E+03  0.7546771E-02  0.1261543E+00
         21   -1    0    0  501  502  0.00000000000E+00  0.00000000000E+00  0.14031755257E+03  0.14031755257E+03  0.00000000000E+00 0. -1.
          2   -1    0    0  504    0 -0.00000000000E+00 -0.00000000000E+00 -0.10741894447E+04  0.10741894447E+04  0.00000000000E+00 0. -1.
         21    1    1    2  503  502  0.44527564215E+02 -0.10199712595E+03  0.19323399710E+02  0.11295800748E+03  0.00000000000E+00 0. -1.
         21    1    1    2  504  505  0.68907066399E+02  0.29123708743E+02 -0.12739785231E+03  0.14773823806E+03  0.00000000000E+00 0. -1.
         21    1    1    2  505  503  0.12251771605E+01  0.11270449386E+03  0.63188133829E+01  0.11288813666E+03  0.00000000000E+00 0. -1.
          2    1    1    2  501    0 -0.11465980777E+03 -0.39831076660E+02 -0.83211625290E+03  0.84092261507E+03  0.00000000000E+00 0. -1.
<scales pt_clust_3="109.47608" pt_clust_4="74.80892" pt_clust_5="14000.00000" pt_clust_6="54.88562"></scales>
<clustering>
<clus scale="   74.809">  2  4  1 -1</clus>
<clus scale="   54.886">  2  6  1 -1</clus>
<clus scale="  109.476">  1  3  2 -1</clus>
<clus scale="  109.476">  1  3  2 -1</clus>
</clustering>
</event>
<event>
 6    0  0.1631680E+002  0.1747565E+03  0.7546771E-02  0.1172976E+00
         21   -1    0    0  505  502  0.00000000000E+00  0.00000000000E+00  0.60134563249E+03  0.60134563249E+03  0.00000000000E+00 0. -1.
          2   -1    0    0  503    0 -0.00000000000E+00 -0.00000000000E+00 -0.45842691427E+03  0.45842691427E+03  0.00000000000E+00 0.  1.
         21    1    1    2  503  502 -0.41576927129E+02  0.11257879011E+02 -0.15271778333E+03  0.15867609162E+03  0.00000000000E+00 0. -1.
         21    1    1    2  504  501 -0.13012059245E+03 -0.87305636688E+02  0.34707889985E+03  0.38081150915E+03  0.00000000000E+00 0. -1.
         21    1    1    2  505  504 -0.31773321294E+02  0.22778289289E+02  0.19351205603E+03  0.19742165595E+03  0.00000000000E+00 0. -1.
          2    1    1    2  501    0  0.20347084088E+03  0.53269468387E+02 -0.24495445434E+03  0.32286329003E+03  0.00000000000E+00 0.  1.
<scales pt_clust_3="43.34305" pt_clust_4="14000.00000" pt_clust_5="39.09469" pt_clust_6="174.75647"></scales>
<clustering>
<clus scale="   39.095">  1  5  2 -1</clus>
<clus scale="   43.343">  2  3  1 -1</clus>
<clus scale="  174.756">  2  6  1 -1</clus>
<clus scale="   39.095">  1  3  2 -1</clus>
</clustering>
</event>
<event>
 6    0  0.1631680E+002  0.2066157E+03  0.7546771E-02  0.1144274E+00
          2   -1    0    0  502    0 -0.00000000000E+00  0.00000000000E+00  0.13985521569E+04  0.13985521569E+04  0.00000000000E+00 0. -1.
         21   -1    0    0  503  502  0.00000000000E+00 -0.00000000000E+00 -0.39243907374E+03  0.39243907374E+03  0.00000000000E+00 0.  1.
         21    1    1    2  503  504 -0.52669613662E+01  0.18583229758E+03 -0.32431624156E+03  0.37382135873E+03  0.00000000000E+00 0.  1.
         21    1    1    2  504  505 -0.30047722079E+02 -0.19444120309E+02  0.99909589778E+02  0.10612664862E+03  0.00000000000E+00 0. -1.
         21    1    1    2  505  501 -0.64534327582E+02 -0.22749921096E+03  0.34769501134E+03  0.42049065547E+03  0.00000000000E+00 0. -1.
          2    1    1    2  501    0  0.99849011028E+02  0.61111033696E+02  0.88282472364E+03  0.89055256785E+03  0.00000000000E+00 0. -1.
<scales pt_clust_3="188.78800" pt_clust_4="32.66308" pt_clust_5="32.66308" pt_clust_6="117.06572"></scales>
<clustering>
<clus scale="   32.663">  4  5 -1 -1</clus>
<clus scale="  117.066">  1  6  2 -1</clus>
<clus scale="  188.788">  2  3  1 -1</clus>
<clus scale="  188.788">  2  3  1 -1</clus>
</clustering>
</event>
<event>
 6    0  0.1631680E+002  0.9204957E+02  0.7546771E-02  0.1297963E+00
          1   -1    0    0  503    0 -0.00000000000E+00  0.00000000000E+00  0.32967340649E+03  0.32967340649E+03  0.00000000000E+00 0.  1.
         21   -1    0    0  505  502  0.00000000000E+00 -0.00000000000E+00 -0.14479622008E+04  0.14479622008E+04  0.00000000000E+00 0.  1.
         21    1    1    2  503  504 -0.27649079300E+02 -0.25600833569E+02  0.14445727750E+03  0.14929092166E+03  0.00000000000E+00 0.  1.
         21    1    1    2  504  502  0.62961250012E+02  0.12093365079E+01 -0.13303416973E+03  0.14718584107E+03  0.00000000000E+00 0.  1.
         21    1    1    2  505  501 -0.92550936017E+02 -0.41475986308E+02 -0.12924915003E+04  0.12964645046E+04  0.00000000000E+00 0.  1.
          1    1    1    2  501    0  0.57238765304E+02  0.65867483369E+02  0.16277959824E+03  0.18469433998E+03  0.00000000000E+00 0.  1.
<scales pt_clust_3="37.68122" pt_clust_4="92.04957" pt_clust_5="14000.00000" pt_clust_6="51.80512"></scales>
<clustering>
<clus scale="   37.681">  1  3  2 -1</clus>
<clus scale="   51.805">  1  6  2 -1</clus>
<clus scale="   92.050">  1  4  2 -1</clus>
<clus scale="   92.050">  2  3  1 -1</clus>
</clustering>
</event>
<event>
 6    0  0.1631680E+002  0.1306927E+03  0.7546771E-02  0.1226432E+00
         21   -1    0    0  505  502  0.00000000000E+00  0.00000000000E+00  0.21176813412E+03  0.21176813412E+03  0.00000000000E+00 0.  1.
          2   -1    0    0  504    0 -0.00000000000E+00 -0.00000000000E+00 -0.12618970693E+04  0.12618970693E+04  0.00000000000E+00 0.  1.
         21    1    1    2  503  502 -0.33808604027E+02  0.17300685279E+03  0.13274637997E+03  0.22067168874E+03  0.00000000000E+00 0.  1.
         21    1    1    2  504  503 -0.15182267464E+02 -0.28580695233E+02 -0.13903727320E+03  0.14275405677E+03  0.00000000000E+00 0. -1.
         21    1    1    2  505  501  0.63402683389E+01 -0.45406473686E+02  0.13206191321E+02  0.47711113426E+02  0.00000000000E+00 0. -1.
          2    1    1    2  501    0  0.42650603152E+02 -0.99019683869E+02 -0.10570442333E+04  0.10625283445E+04  0.00000000000E+00 0.  1.
<scales pt_clust_3="130.69266" pt_clust_4="32.36290" pt_clust_5="46.25124" pt_clust_6="14000.00000"></scales>
<clustering>
<clus scale="   32.363">  2  4  1 -1</clus>
<clus scale="   46.251">  1  5  2 -1</clus>
<clus scale="  130.693">  1  3  2 -1</clus>
<clus scale="   46.251">  1  3  2 -1</clus>
</clustering>
</event>
<event>
 6    0  0.1631680E+002  0.1328646E+03  0.7546771E-02  0.1223266E+00
         -4   -1    0    0    0  501 -0.00000000000E+00  0.00000000000E+00  0.14263241240E+04  0.14263241240E+04  0.00000000000E+00 0.  1.
         21   -1    0    0  505  502  0.00000000000E+00 -0.00000000000E+00 -0.10425463881E+04  0.10425463881E+04  0.00000000000E+00 0. -1.
         21    1    1    2  503  502  0.30247434060E+02  0.43517341235E+02 -0.58054430317E+02  0.78606508222E+02  0.00000000000E+00 0. -1.
         21    1    1    2  504  501 -0.41198138764E+02  0.38015092434E+01  0.20240889175E+03  0.20659404050E+03  0.00000000000E+00 0.  1.
         21    1    1    2  505  504 -0.14688759569E+03  0.18982927943E+02 -0.96037023093E+03  0.97172387939E+03  0.00000000000E+00 0. -1.
         -4    1    1    2    0  503  0.15783830039E+03 -0.66301778421E+02  0.11997935054E+04  0.12119460840E+04  0.00000000000E+00 0.  1.
<scales pt_clust_3="52.82621" pt_clust_4="41.37316" pt_clust_5="14000.00000" pt_clust_6="132.86463"></scales>
<clustering>
<clus scale="   41.373">  1  4  2 -1</clus>
<clus scale="   52.826">  2  3  1 -1</clus>
<clus scale="  132.865">  1  6  2 -1</clus>
<clus scale="   52.826">  2  3  1 -1</clus>
</clustering>
</event>
<event>
 6    0  0.1631680E+002  0.1180821E+03  0.7546771E-02  0.1246295E+00
          2   -1    0    0  503    0 -0.00000000000E+00  0.00000000000E+00  0.17926427124E+04  0.17926427124E+04  0.00000000000E+00 0.  1.
         21   -1    0    0  501  502  0.00000000000E+00 -0.00000000000E+00 -0.22873199562E+03  0.22873199562E+03  0.00000000000E+00 0. -1.
         21    1    1    2  503  505  0.14199967903E+03 -0.29138627352E+02  0.30705127548E+03  0.33954889813E+03  0.00000000000E+00 0. -1.
         21    1    1    2  504  502 -0.98156437808E+02  0.11381167663E+02 -0.19560245705E+03  0.21914501698E+03  0.00000000000E+00 0. -1.
         21    1    1    2  505  504  0.36536252016E+02  0.22976333880E+02  0.11559818858E+03  0.12339266929E+03  0.00000000000E+00 0. -1.
          2    1    1    2  501    0 -0.80379493237E+02 -0.52188741914E+01  0.13368637098E+04  0.13392881236E+04  0.00000000000E+00 0.  1.
<scales pt_clust_3="33.50033" pt_clust_4="100.86680" pt_clust_5="33.50033" pt_clust_6="80.54874"></scales>
<clustering>
<clus scale="   33.500">  3  5 -1 -1</clus>
<clus scale="   80.549">  1  6  2 -1</clus>
<clus scale="  100.867">  2  4  1 -1</clus>
<clus scale="  100.867">  2  3  1 -1</clus>
</clustering>
</event>
<event>
 6    0  0.1631680E+002  0.1396377E+03  0.7546771E-02  0.1213817E+00
          1   -1    0    0  504    0 -0.00000000000E+00  0.00000000000E+00  0.12104884214E+04  0.12104884214E+04  0.00000000000E+00 0.  1.
         21   -1    0    0  503  502  0.00000000000E+00 -0.00000000000E+00 -0.28314673418E+03  0.28314673418E+03  0.00000000000E+00 0.  1.
         21    1    1    2  503  501 -0.52702878987E+02  0.78620187891E+02 -0.21410370989E+03  0.23409213140E+03  0.00000000000E+00 0.  1.
         21    1    1    2  504  505  0.72726046664E+02  0.40856414275E+02  0.22663749502E+03  0.24150130144E+03  0.00000000000E+00 0.  1.
         21    1    1    2  505  502 -0.10554039479E+03 -0.54241434931E+02  0.24380620783E+02  0.12114174700E+03  0.00000000000E+00 0.  1.
          1    1    1    2  501    0  0.85517227114E+02 -0.65235167235E+02  0.89042728129E+03  0.89689997572E+03  0.00000000000E+00 0.  1.
<scales pt_clust_3="94.58726" pt_clust_4="83.41657" pt_clust_5="139.63767" pt_clust_6="14000.00000"></scales>
<clustering>
<clus scale="   83.417">  1  4  2 -1</clus>
<clus scale="   94.587">  2  3  1 -1</clus>
<clus scale="  139.638">  2  5  1 -1</clus>
<clus scale="   94.587">  2  3  1 -1</clus>
</clustering>
</event>
<event>
 6    0  0.1631680E+002  0.1588064E+03  0.7546771E-02  0.1190051E+00
          3   -1    0    0  504    0 -0.00000000000E+00  0.00000000000E+00  0.86415722366E+03  0.86415722366E+03  0.00000000000E+00 0.  1.
         21   -1    0    0  503  502  0.00000000000E+00 -0.00000000000E+00 -0.71231808982E+03  0.71231808982E+03  0.00000000000E+00 0.  1.
         21    1    1    2  503  501 -0.84457210714E+02 -0.17382726124E+03 -0.66201076536E+03  0.68964279932E+03  0.00000000000E+00 0.  1.
         21    1    1    2  504  505  0.43720024051E+02  0.44895488764E+01  0.13831168041E+03  0.14512655680E+03  0.00000000000E+00 0. -1.
         21    1    1    2  505  502  0.59299593525E+01  0.35484048839E+02 -0.13873242642E+02  0.38558384320E+02  0.00000000000E+00 0. -1.
          3    1    1    2  501    0  0.34807227310E+02  0.13385366353E+03  0.68941146144E+03  0.70314757304E+03  0.00000000000E+00 0.  1.
<scales pt_clust_3="158.80643" pt_clust_4="43.99757" pt_clust_5="35.97613" pt_clust_6="14000.00000"></scales>
<clustering>
<clus scale="   35.976">  2  5  1 -1</clus>
<clus scale="   43.998">  1  4  2 -1</clus>
<clus scale="  158.806">  2  3  1 -1</clus>
<clus scale="   35.976">  2  3  1 -1</clus>
</clustering>
</event>
<event>
 6    0  0.1631680E+002  0.1566715E+03  0.7546771E-02  0.1192507E+00
          2   -1    0    0  505    0 -0.00000000000E+00  0.00000000000E+00  0.17851050621E+04  0.17851050621E+04  0.00000000000E+00 0.  1.
         21   -1    0    0  504  502  0.00000000000E+00 -0.00000000000E+00 -0.49334304215E+03  0.49334304215E+03  0.00000000000E+00 0. -1.
         21    1    1    2  503  501  0.29557477872E+02  0.24025717822E+02  0.36194485503E+03  0.36394361884E+03  0.00000000000E+00 0. -1.
         21    1    1    2  504  503  0.11780587852E+03  0.46067732443E+02  0.31850717814E+02  0.13044128646E+03  0.00000000000E+00 0. -1.
         21    1    1    2  505  502 -0.13088001505E+03 -0.97097483212E+02 -0.42786761772E+03  0.45785172041E+03  0.00000000000E+00 0. -1.
          2    1    1    2  501    0 -0.16483341344E+02  0.27004032946E+02  0.13258340648E+04  0.13262114785E+04  0.00000000000E+00 0.  1.
<scales pt_clust_3="48.29052" pt_clust_4="14000.00000" pt_clust_5="156.67147" pt_clust_6="31.63729"></scales>
<clustering>
<clus scale="   31.637">  1  6  2 -1</clus>
<clus scale="   48.291">  1  3  2 -1</clus>
<clus scale="  156.671">  2  5  1 -1</clus>
<clus scale="  156.671">  2  3  1 -1</clus>
</clustering>
</event>
<event>
 6    0  0.1631680E+002  0.1227526E+03  0.7546771E-02  0.1238624E+00
         21   -1    0    0  505  502  0.00000000000E+00  0.00000000000E+00  0.11609099751E+04  0.11609099751E+04  0.00000000000E+00 0.  1.
          4   -1    0    0  503    0 -0.00000000000E+00 -0.00000000000E+00 -0.10131716018E+04  0.10131716018E+04  0.00000000000E+00 0. -1.
         21    1    1    2  503  502  0.24084617831E+02 -0.23149208282E+02 -0.65579542790E+03  0.65664571720E+03  0.00000000000E+00 0. -1.
         21    1    1    2  504  501 -0.74031467128E+02  0.71240687691E+02  0.21847485805E+03  0.24142733339E+03  0.00000000000E+00 0. -1.
         21    1    1    2  505  504  0.80888670632E+02 -0.10322595438E+03  0.92296662652E+03  0.93223707734E+03  0.00000000000E+00 0.  1.
          4    1    1    2  501    0 -0.30941821335E+02  0.55134474974E+02 -0.33790768337E+03  0.34377144895E+03  0.00000000000E+00 0. -1.
<scales pt_clust_3="33.40591" pt_clust_4="14000.00000" pt_clust_5="122.75261" pt_clust_6="33.97207"></scales>
<clustering>
<clus scale="   33.406">  2  3  1 -1</clus>
<clus scale="   33.972">  2  6  1 -1</clus>
<clus scale="  122.753">  1  5  2 -1</clus>
<clus scale="  122.753">  1  3  2 -1</clus>
</clustering>
</event>
<event>
 6    0  0.1631680E+002  0.1287350E+03  0.7546771E-02  0.1229345E+00
         21   -1    0    0  501  502  0.00000000000E+00  0.00000000000E+00  0.25034540033E+03  0.25034540033E+03  0.00000000000E+00 0. -1.
          2   -1    0    0  504    0 -0.00000000000E+00 -0.00000000000E+00 -0.10942890531E+04  0.10942890531E+04  0.00000000000E+00 0.  1.
         21    1    1    2  503  505  0.10936675420E+03  0.15652646596E+02  0.11307621046E+03  0.15808960004E+03  0.00000000000E+00 0. -1.
         21    1    1    2  504  503  0.34482936597E+02 -0.54704475053E+02 -0.84781462561E+02  0.10662808683E+03  0.00000000000E+00 0. -1.
         21    1    1    2  505  502 -0.13243136530E+02  0.76903166063E+02  0.83654188434E+02  0.11440061564E+03  0.00000000000E+00 0. -1.
          2    1    1    2  501    0 -0.13060655426E+03 -0.37851337607E+02 -0.95589258915E+03  0.96551615096E+03  0.00000000000E+00 0.  1.
<scales pt_clust_3="128.73500" pt_clust_4="64.66570" pt_clust_5="77.11599" pt_clust_6="14000.00000"></scales>
<clustering>
<clus scale="   64.666">  2  4  1 -1</clus>
<clus scale="   77.116">  1  5  2 -1</clus>
<clus scale="  128.735">  1  3  2 -1</clus>
<clus scale="   77.116">  1  3  2 -1</clus>
</clustering>
</event>
<event>
 6    0  0.1631680E+002  0.1176753E+03  0.7546771E-02  0.1246982E+00
         -3   -1    0    0    0  501 -0.00000000000E+00  0.00000000000E+00  0.39406721742E+03  0.39406721742E+03  0.00000000000E+00 0. -1.
         21   -1    0    0  503  502  0.00000000000E+00 -0.00000000000E+00 -0.16476413880E+03  0.16476413880E+03  0.00000000000E+00 0.  1.
         21    1    1    2  503  501 -0.43534637238E+02 -0.94278189289E-01  0.63994832905E+02  0.77399044996E+02  0.00000000000E+00 0. -1.
         21    1    1    2  504  505  0.25343891309E+02  0.16235437292E+03 -0.63824658688E+02  0.17628057831E+03  0.00000000000E+00 0.  1.
         21    1    1    2  505  502  0.10289621775E+02 -0.54581162227E+02  0.42641057431E+01  0.55706033642E+02  0.00000000000E+00 0. -1.
         -3    1    1    2    0  504  0.79011241544E+01 -0.10767893251E+03  0.22486879867E+03  0.24944569927E+03  0.00000000000E+00 0. -1.
<scales pt_clust_3="43.53474" pt_clust_4="14000.00000" pt_clust_5="54.94684" pt_clust_6="117.67526"></scales>
<clustering>
<clus scale="   43.535">  1  3  2 -1</clus>
<clus scale="   54.947">  2  5  1 -1</clus>
<clus scale="  117.675">  1  6  2 -1</clus>
<clus scale="   54.947">  2  3  1 -1</clus>
</clustering>
</event>
<event>
 6    0  0.1631680E+002  0.1162777E+03  0.7546771E-02  0.1249367E+00
         21   -1    0    0  505  502  0.00000000000E+00  0.00000000000E+00  0.16160906424E+03  0.16160906424E+03  0.00000000000E+00 0.  1.
         -1   -1    0    0    0  501 -0.00000000000E+00 -0.00000000000E+00 -0.10428520385E+04  0.10428520385E+04  0.00000000000E+00 0. -1.
         21    1    1    2  503  501 -0.35869733609E+02  0.75566388193E+02 -0.54258305483E+03  0.54899297646E+03  0.00000000000E+00 0. -1.
         21    1    1    2  504  502  0.23544336384E+02 -0.98968865300E+02  0.37656277152E+02  0.10847657481E+03  0.00000000000E+00 0.  1.
         21    1    1    2  505  503 -0.38169782341E+02 -0.23490778159E+02  0.76661761639E+02  0.88801884215E+02  0.00000000000E+00 0.  1.
         -1    1    1    2    0  504  0.50495179566E+02  0.46893255266E+02 -0.45297795825E+03  0.45818966729E+03  0.00000000000E+00 0. -1.
<scales pt_clust_3="116.27773" pt_clust_4="14000.00000" pt_clust_5="44.81907" pt_clust_6="67.45961"></scales>
<clustering>
<clus scale="   44.819">  1  5  2 -1</clus>
<clus scale="   67.460">  2  6  1 -1</clus>
<clus scale="  116.278">  2  3  1 -1</clus>
<clus scale="   44.819">  1  3  2 -1</clus>
</clustering>
</event>
<event>
 6    0  0.1631680E+002  0.8018613E+02  0.7546771E-02  0.1328524E+00
          2   -1    0    0  505    0 -0.00000000000E+00  0.00000000000E+00  0.10980230308E+04  0.10980230308E+04  0.00000000000E+00 0. -1.
         21   -1    0    0  504  502  0.00000000000E+00 -0.00000000000E+00 -0.33321462503E+03  0.33321462503E+03  0.00000000000E+00 0.  1.
         21    1    1    2  503  501 -0.45808998569E+02  0.79331044497E+02  0.10998281270E+03  0.14313664122E+03  0.00000000000E+00 0. -1.
         21    1    1    2  504  503 -0.40688973995E+02 -0.85168477779E+01 -0.26379975372E+03  0.26705512420E+03  0.00000000000E+00 0.  1.
         21    1    1    2  505  502  0.15159678328E+02 -0.33842702592E+02 -0.42593668432E+02  0.56474462868E+02  0.00000000000E+00 0. -1.
          2    1    1    2  501    0  0.71338294236E+02 -0.36971494127E+02  0.96121901520E+03  0.96457142752E+03  0.00000000000E+00 0. -1.
<scales pt_clust_3="80.18613" pt_clust_4="48.13618" pt_clust_5="37.08294" pt_clust_6="14000.00000"></scales>
<clustering>
<clus scale="   37.083">  2  5  1 -1</clus>
<clus scale="   48.136">  2  4  1 -1</clus>
<clus scale="   80.186">  2  3  1 -1</clus>
<clus scale="   37.083">  2  3  1 -1</clus>
</clustering>
</event>
<event>
 6    0  0.1631680E+002  0.1056138E+03  0.7546771E-02  0.1268915E+00
         21   -1    0    0  505  502  0.00000000000E+00  0.00000000000E+00  0.13704331899E+04  0.13704331899E+04  0.00000000000E+00 0. -1.
         -2   -1    0    0    0  501 -0.00000000000E+00 -0.00000000000E+00 -0.36715270550E+03  0.36715270550E+03  0.00000000000E+00 0. -1.
         21    1    1    2  503  502 -0.36995058002E+02  0.21573886074E+02  0.15127693308E+03  0.15722206384E+03  0.00000000000E+00 0. -1.
         21    1    1    2  504  503  0.61348309660E+02  0.82185739550E+02  0.11867463224E+04  0.11911695700E+04  0.00000000000E+00 0. -1.
         21    1    1    2  505  501 -0.54468885387E+02 -0.27888327237E+02 -0.20520851409E+02  0.64542417169E+02  0.00000000000E+00 0.  1.
         -2    1    1    2    0  504  0.30115633729E+02 -0.75871298387E+02 -0.31422191960E+03  0.32465184440E+03  0.00000000000E+00 0. -1.
<scales pt_clust_3="42.82601" pt_clust_4="14000.00000" pt_clust_5="61.61477" pt_clust_6="105.61384"></scales>
<clustering>
<clus scale="   42.826">  1  3  2 -1</clus>
<clus scale="   61.615">  2  5  1 -1</clus>
<clus scale="  105.614">  2  6  1 -1</clus>
<clus scale="   42.826">  1  3  2 -1</clus>
</clustering>
</event>
<event>
 6    0  0.1631680E+002  0.1039565E+03  0.7546771E-02  0.1272189E+00
          2   -1    0    0  503    0 -0.00000000000E+00  0.00000000000E+00  0.15963535951E+04  0.15963535951E+04  0.00000000000E+00 0.  1.
         21   -1    0    0  504  502  0.00000000000E+00 -0.00000000000E+00 -0.27867539194E+03  0.27867539194E+03  0.00000000000E+00 0. -1.
         21    1    1    2  503  505 -0.55697743531E+02 -0.65595955057E+02  0.69037428024E+02  0.11032331767E+03  0.00000000000E+00 0. -1.
         21    1    1    2  504  501  0.31040002328E+02 -0.10275992022E+02 -0.31095227871E+02  0.45121956439E+02  0.00000000000E+00 0. -1.
         21    1    1    2  505  502  0.24834264727E+02 -0.31553039338E+02 -0.21614865634E+03  0.21984671167E+03  0.00000000000E+00 0. -1.
          2    1    1    2  501    0 -0.17652352471E+00  0.10742498642E+03  0.14958846594E+04  0.14997370013E+04  0.00000000000E+00 0.  1.
<scales pt_clust_3="103.95654" pt_clust_4="32.69675" pt_clust_5="66.89500" pt_clust_6="14000.00000"></scales>
<clustering>
<clus scale="   32.697">  2  4  1 -1</clus>
<clus scale="   66.895">  2  5  1 -1</clus>
<clus scale="  103.957">  2  3  1 -1</clus>
<clus scale="   32.697">  2  3  1 -1</clus>
</clustering>
</event>
<event>
 6    0  0.1631680E+002  0.6617637E+02  0.7546771E-02  0.1373600E+00
         21   -1    0    0  503  502  0.00000000000E+00  0.00000000000E+00  0.18640293205E+03  0.18640293205E+03  0.00000000000E+00 0.  1.
          2   -1    0    0  504    0 -0.00000000000E+00 -0.00000000000E+00 -0.18379483352E+03  0.18379483352E+03  0.00000000000E+00 0.  1.
         21    1    1    2  503  501 -0.22965242193E+02  0.37591933527E+02  0.25946069385E+02  0.51124889554E+02  0.00000000000E+00 0. -1.
         21    1    1    2  504  505  0.38402379978E+02 -0.63335439462E+01 -0.24624812474E+02  0.46056899117E+02  0.00000000000E+00 0. -1.
         21    1    1    2  505  502  0.33212643751E+02 -0.94144079461E+02  0.10331507366E+03  0.14366694765E+03  0.00000000000E+00 0.  1.
          2    1    1    2  501    0 -0.48649781536E+02  0.62885689879E+02 -0.10202823204E+03  0.12934902925E+03  0.00000000000E+00 0.  1.
<scales pt_clust_3="41.97009" pt_clust_4="38.92116" pt_clust_5="14000.00000" pt_clust_6="66.17637"></scales>
<clustering>
<clus scale="   38.921">  2  4  1 -1</clus>
<clus scale="   41.970">  1  3  2 -1</clus>
<clus scale="   66.176">  2  6  1 -1</clus>
<clus scale="   41.970">  1  3  2 -1</clus>
</clustering>
</event>
<event>
 6    0  0.1631680E+002  0.1157925E+03  0.7546771E-02  0.1250204E+00
          2   -1    0    0  503    0 -0.00000000000E+00  0.00000000000E+00  0.30306538253E+04  0.30306538253E+04  0.00000000000E+00 0. -1.
         21   -1    0    0  504  502  0.00000000000E+00 -0.00000000000E+00 -0.14201415909E+02  0.14201415909E+02  0.00000000000E+00 0. -1.
         21    1    1    2  503  502 -0.49646366334E+02  0.11578127606E+02  0.40225086907E+03  0.40546834204E+03  0.00000000000E+00 0.  1.
         21    1    1    2  504  505  0.25184728863E+02  0.45815409630E+02  0.95696485593E+02  0.10904650238E+03  0.00000000000E+00 0. -1.
         21    1    1    2  505  501  0.11391557310E+03  0.19593366495E+01  0.75257528605E+03  0.76115054882E+03  0.00000000000E+00 0. -1.
          2    1    1    2  501    0 -0.89453935631E+02 -0.59352873886E+02  0.17659297687E+04  0.17691898480E+04  0.00000000000E+00 0. -1.
<scales pt_clust_3="50.97857" pt_clust_4="51.77991" pt_clust_5="115.79251" pt_clust_6="14000.00000"></scales>
<clustering>
<clus scale="   50.979">  1  3  2 -1</clus>
<clus scale="   51.780">  2  4  1 -1</clus>
<clus scale="  115.793">  2  5  1 -1</clus>
<clus scale="   51.780">  2  3  1 -1</clus>
</clustering>
</event>
<event>
 6    0  0.1631680E+002  0.8667420E+02  0.7546771E-02  0.1311111E+00
         21   -1    0    0  504  502  0.00000000000E+00  0.00000000000E+00  0.41855642210E+03  0.41855642210E+03  0.00000000000E+00 0.  1.
         -3   -1    0    0    0  501 -0.00000000000E+00 -0.00000000000E+00 -0.38442287131E+03  0.38442287131E+03  0.00000000000E+00 0. -1.
         21    1    1    2  503  505  0.13356746948E+03  0.33223640570E+02  0.24045913656E+03  0.27706438882E+03  0.00000000000E+00 0.  1.
         21    1    1    2  504  503 -0.54558684168E+02 -0.11257881346E+02  0.12702364415E+03  0.13870254534E+03  0.00000000000E+00 0.  1.
         21    1    1    2  505  501 -0.20601928125E+02  0.37811098037E+02  0.49891401036E+00  0.43062367474E+02  0.00000000000E+00 0.  1.
         -3    1    1    2    0  502 -0.58406857192E+02 -0.59776857261E+02 -0.33384814393E+03  0.34414999177E+03  0.00000000000E+00 0. -1.
<scales pt_clust_3="86.67420" pt_clust_4="55.91358" pt_clust_5="43.05948" pt_clust_6="14000.00000"></scales>
<clustering>
<clus scale="   43.059">  2  5  1 -1</clus>
<clus scale="   55.914">  1  4  2 -1</clus>
<clus scale="   86.674">  1  3  2 -1</clus>
<clus scale="   55.914">  1  3  2 -1</clus>
</clustering>
</event>
<event>
 6    0  0.1631680E+002  0.1637751E+03  0.7546771E-02  0.1184499E+00
         21   -1    0    0  503  502  0.00000000000E+00  0.00000000000E+00  0.20876039010E+03  0.20876039010E+03  0.00000000000E+00 0. -1.
          1   -1    0    0  504    0 -0.00000000000E+00 -0.00000000000E+00 -0.80826610696E+03  0.80826610696E+03  0.00000000000E+00 0. -1.
         21    1    1    2  503  501 -0.19512946989E+02 -0.68419488443E+02  0.14956450487E+03  0.16562464375E+03  0.00000000000E+00 0. -1.
         21    1    1    2  504  505  0.40154804226E+02 -0.41976577642E+02 -0.52231134029E+02  0.78118709250E+02  0.00000000000E+00 0. -1.
         21    1    1    2  505  502  0.75847034314E+02 -0.23952155713E+02 -0.28045574982E+02  0.84338796847E+02  0.00000000000E+00 0. -1.
          1    1    1    2  501    0 -0.96488891551E+02  0.13434822180E+03 -0.66879351272E+03  0.68894434721E+03  0.00000000000E+00 0. -1.
<scales pt_clust_3="71.14760" pt_clust_4="39.58042" pt_clust_5="39.58042" pt_clust_6="157.08979"></scales>
<clustering>
<clus scale="   39.580">  4  5 -1 -1</clus>
<clus scale="   71.148">  1  3  2 -1</clus>
<clus scale="  157.090">  2  6  1 -1</clus>
<clus scale="   71.148">  1  3  2 -1</clus>
</clustering>
</event>
<event>
 6    0  0.1631680E+002  0.1132674E+03  0.7546771E-02  0.1254636E+00
          2   -1    0    0  503    0 -0.00000000000E+00  0.00000000000E+00  0.92700877709E+03  0.92700877709E+03  0.00000000000E+00 0. -1.
         21   -1    0    0  504  502  0.00000000000E+00 -0.00000000000E+00 -0.63874052052E+02  0.63874052052E+02  0.00000000000E+00 0. -1.
         21    1    1    2  503  505 -0.27166656242E+02  0.14416087424E+02  0.35506203241E+03  0.35639149491E+03  0.00000000000E+00 0. -1.
         21    1    1    2  504  501  0.83581489080E+02 -0.45306529530E+02  0.25834036404E+02  0.98518751371E+02  0.00000000000E+00 0. -1.
         21    1    1    2  505  502 -0.36601571428E+02 -0.78476492968E+02  0.77361721252E+02  0.11611662626E+03  0.00000000000E+00 0. -1.
          2    1    1    2  501    0 -0.19813261410E+02  0.10936693507E+03  0.40487693497E+03  0.41985595659E+03  0.00000000000E+00 0. -1.
<scales pt_clust_3="30.75469" pt_clust_4="113.26743" pt_clust_5="86.48101" pt_clust_6="14000.00000"></scales>
<clustering>
<clus scale="   30.755">  1  3  2 -1</clus>
<clus scale="   86.481">  2  5  1 -1</clus>
<clus scale="  113.267">  2  4  1 -1</clus>
<clus scale="   86.481">  2  3  1 -1</clus>
</clustering>
</event>
<event>
 6    0  0.1631680E+002  0.1042267E+03  0.7546771E-02  0.1271651E+00
         -3   -1    0    0    0  501 -0.00000000000E+00  0.00000000000E+00  0.16477131006E+04  0.16477131006E+04  0.00000000000E+00 0. -1.
         21   -1    0    0  503  502  0.00000000000E+00 -0.00000000000E+00 -0.17786385884E+03  0.17786385884E+03  0.00000000000E+00 0.  1.
         21    1    1    2  503  501 -0.41078769110E+01 -0.37298084051E+02  0.56707749474E+01  0.37949695850E+02  0.00000000000E+00 0. -1.
         21    1    1    2  504  505  0.99437403380E+02  0.65124848102E+02  0.50136333439E+03  0.51526132797E+03  0.00000000000E+00 0. -1.
         21    1    1    2  505  502 -0.26957413997E+02 -0.65219261729E+02 -0.14529089142E+03  0.16152305532E+03  0.00000000000E+00 0.  1.
         -3    1    1    2    0  504 -0.68372112472E+02  0.37392497678E+02  0.11081060239E+04  0.11108428803E+04  0.00000000000E+00 0. -1.
<scales pt_clust_3="37.52362" pt_clust_4="14000.00000" pt_clust_5="104.22667" pt_clust_6="77.80872"></scales>
<clustering>
<clus scale="   37.524">  2  3  1 -1</clus>
<clus scale="   77.809">  1  6  2 -1</clus>
<clus scale="  104.227">  2  5  1 -1</clus>
<clus scale="   37.524">  2  3  1 -1</clus>
</clustering>
</event>
<event>
 6    0  0.1631680E+002  0.1170418E+03  0.7546771E-02  0.1248059E+00
          2   -1    0    0  503    0 -0.00000000000E+00  0.00000000000E+00  0.22362951876E+04  0.22362951876E+04  0.00000000000E+00 0.  1.
         21   -1    0    0  505  502  0.00000000000E+00 -0.00000000000E+00 -0.35189866691E+03  0.35189866691E+03  0.00000000000E+00 0. -1.
         21    1    1    2  503  504  0.15793200574E+02 -0.26365996509E+02  0.39426668681E+03  0.39546278116E+03  0.00000000000E+00 0.  1.
         21    1    1    2  504  502  0.13378278055E+02 -0.48180819330E+02  0.17608428957E+02  0.53013455324E+02  0.00000000000E+00 0.  1.
         21    1    1    2  505  501  0.49997634479E+02 -0.49893148658E+02 -0.32680780944E+03  0.33435375584E+03  0.00000000000E+00 0. -1.
          2    1    1    2  501    0 -0.79169113108E+02  0.12443996450E+03  0.17993292144E+04  0.18053638622E+04  0.00000000000E+00 0.  1.
<scales pt_clust_3="30.73420" pt_clust_4="50.57212" pt_clust_5="14000.00000" pt_clust_6="117.04177"></scales>
<clustering>
<clus scale="   30.734">  1  3  2 -1</clus>
<clus scale="   50.572">  2  4  1 -1</clus>
<clus scale="  117.042">  1  6  2 -1</clus>
<clus scale="   50.572">  2  3  1 -1</clus>
</clustering>
</event>
<event>
 6    0  0.1631680E+002  0.7965754E+02  0.7546771E-02  0.1330026E+00
          2   -1    0    0  505    0 -0.00000000000E+00  0.00000000000E+00  0.15374144741E+04  0.15374144741E+04  0.00000000000E+00 0.  1.
         21   -1    0    0  504  502  0.00000000000E+00 -0.00000000000E+00 -0.50124034494E+02  0.50124034494E+02  0.00000000000E+00 0.  1.
         21    1    1    2  503  502  0.44898608184E+02 -0.24023424106E+02  0.59152950579E+02  0.78051787199E+02  0.00000000000E+00 0.  1.
         21    1    1    2  504  501  0.26222281775E+02  0.60687918775E+02 -0.72542892772E+01  0.66507565431E+02  0.00000000000E+00 0.  1.
         21    1    1    2  505  503  0.32289023502E+02 -0.22941907887E+02  0.55884140199E+03  0.56024336208E+03  0.00000000000E+00 0.  1.
          2    1    1    2  501    0 -0.10340991346E+03 -0.13722586781E+02  0.87655037627E+03  0.88273579384E+03  0.00000000000E+00 0.  1.
<scales pt_clust_3="53.67936" pt_clust_4="14000.00000" pt_clust_5="39.60950" pt_clust_6="79.65754"></scales>
<clustering>
<clus scale="   39.609">  1  5  2 -1</clus>
<clus scale="   53.679">  2  3  1 -1</clus>
<clus scale="   79.658">  1  6  2 -1</clus>
<clus scale="   53.679">  2  3  1 -1</clus>
</clustering>
</event>
<event>
 6    0  0.1631680E+002  0.1696321E+03  0.7546771E-02  0.1178232E+00
         -1   -1    0    0    0  501 -0.00000000000E+00  0.00000000000E+00  0.89433125536E+02  0.89433125536E+02  0.00000000000E+00 0. -1.
         21   -1    0    0  503  502  0.00000000000E+00 -0.00000000000E+00 -0.79948817517E+03  0.79948817517E+03  0.00000000000E+00 0.  1.
         21    1    1    2  503  501  0.16084452750E+03 -0.75662268668E+02 -0.59082389195E+03  0.61698347808E+03  0.00000000000E+00 0.  1.
         21    1    1    2  504  505 -0.30132341202E+02  0.27442199144E+02 -0.75369840533E+01  0.41446814218E+02  0.00000000000E+00 0. -1.
         21    1    1    2  505  502 -0.37908090943E+01  0.56209670651E+02 -0.82682061228E+02  0.10005108973E+03  0.00000000000E+00 0.  1.
         -1    1    1    2    0  504 -0.12692137720E+03 -0.79896011271E+01 -0.29012112404E+02  0.13043991867E+03  0.00000000000E+00 0. -1.
<scales pt_clust_3="160.03161" pt_clust_4="31.84787" pt_clust_5="56.33735" pt_clust_6="31.84787"></scales>
<clustering>
<clus scale="   31.848">  4  6 -1 -1</clus>
<clus scale="   56.337">  2  5  1 -1</clus>
<clus scale="  160.032">  2  3  1 -1</clus>
<clus scale="   56.337">  2  3  1 -1</clus>
</clustering>
</event>
<event>
 6    0  0.1631680E+002  0.1146334E+03  0.7546771E-02  0.1252222E+00
         21   -1    0    0  504  502  0.00000000000E+00  0.00000000000E+00  0.39413323395E+03  0.39413323395E+03  0.00000000000E+00 0.  1.
          2   -1    0    0  503    0 -0.00000000000E+00 -0.00000000000E+00 -0.99691647491E+03  0.99691647491E+03  0.00000000000E+00 0.  1.
         21    1    1    2  503  505  0.20162373936E+02  0.33442604758E+02 -0.33154854569E+03  0.33384033202E+03  0.00000000000E+00 0.  1.
         21    1    1    2  504  501  0.13074804653E+03 -0.69775156103E+02 -0.36275712028E+03  0.39186267032E+03  0.00000000000E+00 0. -1.
         21    1    1    2  505  502 -0.10632433718E+03  0.40824211596E+02  0.36802047263E+03  0.38524089763E+03  0.00000000000E+00 0.  1.
          2    1    1    2  501    0 -0.44586083289E+02 -0.44916602506E+01 -0.27649804763E+03  0.28010580889E+03  0.00000000000E+00 0.  1.
<scales pt_clust_3="39.05034" pt_clust_4="14000.00000" pt_clust_5="114.63337" pt_clust_6="37.37128"></scales>
<clustering>
<clus scale="   39.050">  2  3  1 -1</clus>
<clus scale="   37.371">  2  6  1 -1</clus>
<clus scale="  114.633">  1  5  2 -1</clus>
<clus scale="  114.633">  1  3  2 -1</clus>
</clustering>
</event>
<event>
 6    0  0.1631680E+002  0.2553460E+03  0.7546771E-02  0.1109972E+00
         21   -1    0    0  505  502  0.00000000000E+00  0.00000000000E+00  0.44989882110E+03  0.44989882110E+03  0.00000000000E+00 0.  1.
          1   -1    0    0  502    0 -0.00000000000E+00 -0.00000000000E+00 -0.17214230743E+04  0.17214230743E+04  0.00000000000E+00 0. -1.
         21    1    1    2  503  501 -0.15429117150E+02  0.56773425143E+02 -0.22173820887E+03  0.22941035882E+03  0.00000000000E+00 0. -1.
         21    1    1    2  504  503 -0.11902536311E+03  0.24197648144E+03 -0.46669635072E+03  0.53900383896E+03  0.00000000000E+00 0. -1.
         21    1    1    2  505  504  0.92554684146E+02 -0.21331705595E+03  0.37438269563E+03  0.44071866162E+03  0.00000000000E+00 0.  1.
          1    1    1    2  501    0  0.41899796112E+02 -0.85432850641E+02 -0.95747238918E+03  0.96218903596E+03  0.00000000000E+00 0. -1.
<scales pt_clust_3="44.77378" pt_clust_4="44.77378" pt_clust_5="236.67035" pt_clust_6="95.15443"></scales>
<clustering>
<clus scale="   44.774">  3  4 -1 -1</clus>
<clus scale="   95.154">  2  6  1 -1</clus>
<clus scale="  236.670">  1  5  2 -1</clus>
<clus scale="  236.670">  1  3  2 -1</clus>
</clustering>
</event>
<event>
 6    0  0.1631680E+002  0.1350416E+03  0.7546771E-02  0.1220161E+00
          1   -1    0    0  505    0 -0.00000000000E+00  0.00000000000E+00  0.72329284707E+03  0.72329284707E+03  0.00000000000E+00 0.  1.
         21   -1    0    0  503  502  0.00000000000E+00 -0.00000000000E+00 -0.14505056802E+03  0.14505056802E+03  0.00000000000E+00 0.  1.
         21    1    1    2  503  501 -0.30218606685E+02  0.75780003478E+02  0.68839293880E+02  0.10674559241E+03  0.00000000000E+00 0.  1.
         21    1    1    2  504  502  0.51682203029E+02  0.67849719009E+02 -0.96700253251E+02  0.12894019334E+03  0.00000000000E+00 0.  1.
         21    1    1    2  505  504 -0.31184336310E+02 -0.12848035968E+02  0.43892482322E+02  0.55354176569E+02  0.00000000000E+00 0.  1.
          1    1    1    2  501    0  0.97207399661E+01 -0.13078168652E+03  0.56221075609E+03  0.57730345277E+03  0.00000000000E+00 0.  1.
<scales pt_clust_3="81.65133" pt_clust_4="135.04160" pt_clust_5="33.72736" pt_clust_6="14000.00000"></scales>
<clustering>
<clus scale="   33.727">  1  5  2 -1</clus>
<clus scale="   81.651">  2  3  1 -1</clus>
<clus scale="  135.042">  2  4  1 -1</clus>
<clus scale="   81.651">  2  3  1 -1</clus>
</clustering>
</event>
<event>
 6    0  0.1631680E+002  0.9720064E+02  0.7546771E-02  0.1286295E+00
          2   -1    0    0  503    0 -0.00000000000E+00  0.00000000000E+00  0.46063669207E+03  0.46063669207E+03  0.00000000000E+00 0. -1.
         21   -1    0    0  501  502  0.00000000000E+00 -0.00000000000E+00 -0.29053541175E+03  0.29053541175E+03  0.00000000000E+00 0.  1.
         21    1    1    2  503  504 -0.39877573116E+02  0.11336326107E+02  0.28207293672E+03  0.28510327034E+03  0.00000000000E+00 0. -1.
         21    1    1    2  504  505  0.95903144702E+02  0.71326898484E+02 -0.65973223654E+02  0.13651888459E+03  0.00000000000E+00 0.  1.
         21    1    1    2  505  502 -0.43635163545E+02  0.10666081717E+02 -0.16887753459E+03  0.17474957649E+03  0.00000000000E+00 0.  1.
          2    1    1    2  501    0 -0.12390408041E+02 -0.93329306308E+02  0.12287910184E+03  0.15480037240E+03  0.00000000000E+00 0. -1.
<scales pt_clust_3="41.45761" pt_clust_4="97.20064" pt_clust_5="45.60688" pt_clust_6="14000.00000"></scales>
<clustering>
<clus scale="   41.458">  1  3  2 -1</clus>
<clus scale="   45.607">  2  5  1 -1</clus>
<clus scale="   97.201">  2  4  1 -1</clus>
<clus scale="   45.607">  2  3  1 -1</clus>
</clustering>
</event>
<event>
 6    0  0.1631680E+002  0.1008126E+03  0.7546771E-02  0.1278596E+00
          1   -1    0    0  504    0 -0.00000000000E+00  0.00000000000E+00  0.55603130747E+03  0.55603130747E+03  0.00000000000E+00 0. -1.
         21   -1    0    0  505  502  0.00000000000E+00 -0.00000000000E+00 -0.10195294718E+04  0.10195294718E+04  0.00000000000E+00 0. -1.
         21    1    1    2  503  502  0.20751558173E+02  0.65030799375E+02 -0.41946648982E+03  0.42498443280E+03  0.00000000000E+00 0. -1.
         21    1    1    2  504  503 -0.16547398034E+02  0.26321380714E+02  0.55759184309E+02  0.63841351013E+02  0.00000000000E+00 0. -1.
         21    1    1    2  505  501 -0.54378281526E+02  0.30838952764E+02 -0.58272157808E+03  0.58606524899E+03  0.00000000000E+00 0. -1.
          1    1    1    2  501    0  0.50174121386E+02 -0.12219113285E+03  0.48293071928E+03  0.50066974647E+03  0.00000000000E+00 0. -1.
<scales pt_clust_3="14000.00000" pt_clust_4="31.09070" pt_clust_5="62.60657" pt_clust_6="100.81261"></scales>
<clustering>
<clus scale="   31.091">  1  4  2 -1</clus>
<clus scale="   62.607">  2  5  1 -1</clus>
<clus scale="  100.813">  1  6  2 -1</clus>
<clus scale="   62.607">  2  3  1 -1</clus>
</clustering>
</event>
<event>
 6    0  0.1631680E+002  0.7834285E+02  0.7546771E-02  0.1333821E+00
          2   -1    0    0  505    0 -0.00000000000E+00  0.00000000000E+00  0.47393277244E+03  0.47393277244E+03  0.00000000000E+00 0.  1.
         21   -1    0    0  501  502  0.00000000000E+00 -0.00000000000E+00 -0.87609296533E+02  0.87609296533E+02  0.00000000000E+00 0.  1.
         21    1    1    2  503  504  0.95296662812E+02  0.22307988580E+02  0.13169004307E+03  0.16407732245E+03  0.00000000000E+00 0.  1.
         21    1    1    2  504  502 -0.59027435022E+02 -0.48715153229E+02 -0.36288885070E+02  0.84701165394E+02  0.00000000000E+00 0.  1.
         21    1    1    2  505  503  0.22481938500E+02  0.27313426325E+02  0.20885669059E+03  0.21183148496E+03  0.00000000000E+00 0.  1.
          2    1    1    2  501    0 -0.58751166289E+02 -0.90626167591E+00  0.82065627308E+02  0.10093209616E+03  0.00000000000E+00 0.  1.
<scales pt_clust_3="14000.00000" pt_clust_4="78.34285" pt_clust_5="35.37599" pt_clust_6="51.66366"></scales>
<clustering>
<clus scale="   35.376">  1  5  2 -1</clus>
<clus scale="   51.664">  1  6  2 -1</clus>
<clus scale="   78.343">  2  4  1 -1</clus>
<clus scale="   78.343">  2  3  1 -1</clus>
</clustering>
</event>
<event>
 6    0  0.1631680E+002  0.8860606E+02  0.7546771E-02  0.1306263E+00
          1   -1    0    0  505    0 -0.00000000000E+00  0.00000000000E+00  0.97319718607E+03  0.97319718607E+03  0.00000000000E+00 0.  1.
         21   -1    0    0  504  502  0.00000000000E+00 -0.00000000000E+00 -0.40275103757E+02  0.40275103757E+02  0.00000000000E+00 0.  1.
         21    1    1    2  503  502 -0.37782996403E+02  0.31565990635E+01  0.37576340614E+02  0.53380711018E+02  0.00000000000E+00 0. -1.
         21    1    1    2  504  501  0.87534169084E+02 -0.15523900001E+02  0.73556606954E+02  0.11538542653E+03  0.00000000000E+00 0. -1.
         21    1    1    2  505  503  0.40984341063E+02  0.56471287848E+02  0.15062370593E+03  0.16600067274E+03  0.00000000000E+00 0.  1.
          1    1    1    2  501    0 -0.90735513743E+02 -0.44103986911E+02  0.67116542881E+03  0.67870547953E+03  0.00000000000E+00 0.  1.
<scales pt_clust_3="37.91463" pt_clust_4="64.54881" pt_clust_5="88.60606" pt_clust_6="14000.00000"></scales>
<clustering>
<clus scale="   37.915">  2  3  1 -1</clus>
<clus scale="   64.549">  2  4  1 -1</clus>
<clus scale="   88.606">  2  5  1 -1</clus>
<clus scale="   37.915">  2  3  1 -1</clus>
</clustering>
</event>
<event>
 6    0  0.1631680E+002  0.7022129E+02  0.7546771E-02  0.1359342E+00
         21   -1    0    0  503  502  0.00000000000E+00  0.00000000000E+00  0.21457878350E+03  0.21457878350E+03  0.00000000000E+00 0.  1.
         -1   -1    0    0    0  501 -0.00000000000E+00 -0.00000000000E+00 -0.20984918132E+03  0.20984918132E+03  0.00000000000E+00 0.  1.
         21    1    1    2  503  504 -0.53811883901E+02  0.25468641918E+01  0.68173642601E+02  0.86889878074E+02  0.00000000000E+00 0.  1.
         21    1    1    2  504  505  0.60976726757E+02 -0.65852418581E+02  0.92548105041E+02  0.12891801265E+03  0.00000000000E+00 0.  1.
         21    1    1    2  505  501  0.23553873735E+01 -0.34621009068E+02 -0.17852380748E+02  0.39023962086E+02  0.00000000000E+00 0. -1.
         -1    1    1    2    0  502 -0.95202302290E+01  0.97926563457E+02 -0.13813976472E+03  0.16959611201E+03  0.00000000000E+00 0.  1.
<scales pt_clust_3="53.69577" pt_clust_4="14000.00000" pt_clust_5="34.70104" pt_clust_6="70.22129"></scales>
<clustering>
<clus scale="   34.701">  2  5  1 -1</clus>
<clus scale="   53.696">  1  3  2 -1</clus>
<clus scale="   70.221">  2  6  1 -1</clus>
<clus scale="   53.696">  1  3  2 -1</clus>
</clustering>
</event>
<event>
 6    0  0.1631680E+002  0.1762602E+03  0.7546771E-02  0.1171472E+00
          2   -1    0    0  503    0 -0.00000000000E+00  0.00000000000E+00  0.14943022213E+04  0.14943022213E+04  0.00000000000E+00 0. -1.
         21   -1    0    0  505  502  0.00000000000E+00 -0.00000000000E+00 -0.78453775858E+02  0.78453775858E+02  0.00000000000E+00 0. -1.
         21    1    1    2  503  502  0.21657092713E+02 -0.56790832802E+02  0.16405290809E+03  0.17495023580E+03  0.00000000000E+00 0. -1.
         21    1    1    2  504  501 -0.89997465229E+02  0.20245143021E+01  0.21174784544E+02  0.92477099361E+02  0.00000000000E+00 0. -1.
         21    1    1    2  505  504 -0.78858732706E+02  0.41459751827E+02  0.27610887585E+02  0.93273639678E+02  0.00000000000E+00 0. -1.
          2    1    1    2  501    0  0.14719910522E+03  0.13306566673E+02  0.12030098652E+04  0.12120550223E+04  0.00000000000E+00 0. -1.
<scales pt_clust_3="60.78016" pt_clust_4="41.25878" pt_clust_5="41.25878" pt_clust_6="171.31155"></scales>
<clustering>
<clus scale="   41.259">  4  5 -1 -1</clus>
<clus scale="   60.780">  1  3  2 -1</clus>
<clus scale="  171.312">  1  6  2 -1</clus>
<clus scale="  176.260">  2  3  1 -1</clus>
</clustering>
</event>
<event>
 6    0  0.1631680E+002  0.7560595E+02  0.7546771E-02  0.1342005E+00
         21   -1    0    0  501  502  0.00000000000E+00  0.00000000000E+00  0.92126165411E+03  0.92126165411E+03  0.00000000000E+00 0. -1.
          1   -1    0    0  503    0 -0.00000000000E+00 -0.00000000000E+00 -0.51921700084E+03  0.51921700084E+03  0.00000000000E+00 0.  1.
         21    1    1    2  503  504  0.36454406404E+02  0.30230622995E+02 -0.14337418590E+02  0.49481065922E+02  0.00000000000E+00 0. -1.
         21    1    1    2  504  505  0.46117995557E+02  0.29620436644E+02  0.29709186073E+03  0.30210563300E+03  0.00000000000E+00 0. -1.
         21    1    1    2  505  502 -0.17141236785E+02  0.42224435722E+02  0.59562630084E+03  0.59736706908E+03  0.00000000000E+00 0. -1.
          1    1    1    2  501    0 -0.65431165176E+02 -0.10207549536E+03 -0.47633608970E+03  0.49152488694E+03  0.00000000000E+00 0.  1.
<scales pt_clust_3="48.16020" pt_clust_4="14000.00000" pt_clust_5="45.57110" pt_clust_6="75.60595"></scales>
<clustering>
<clus scale="   45.571">  1  5  2 -1</clus>
<clus scale="   48.160">  2  3  1 -1</clus>
<clus scale="   75.606">  2  6  1 -1</clus>
<clus scale="   45.571">  1  3  2 -1</clus>
</clustering>
</event>
<event>
 6    0  0.1631680E+002  0.1108865E+03  0.7546771E-02  0.1258937E+00
          1   -1    0    0  505    0 -0.00000000000E+00  0.00000000000E+00  0.14083538314E+04  0.14083538314E+04  0.00000000000E+00 0. -1.
         21   -1    0    0  504  502  0.00000000000E+00 -0.00000000000E+00 -0.58589106915E+02  0.58589106915E+02  0.00000000000E+00 0. -1.
         21    1    1    2  503  501 -0.40636000007E+01  0.76073306131E+02  0.48241979620E+02  0.90171776894E+02  0.00000000000E+00 0. -1.
         21    1    1    2  504  503  0.55713164018E+02  0.28825641379E+02  0.74242768238E+01  0.63166400342E+02  0.00000000000E+00 0. -1.
         21    1    1    2  505  502  0.33799176842E+02  0.42918205310E+02  0.29238226796E+03  0.29744200665E+03  0.00000000000E+00 0. -1.
          1    1    1    2  501    0 -0.85448740859E+02 -0.14781715282E+03  0.10017162001E+04  0.10161627544E+04  0.00000000000E+00 0. -1.
<scales pt_clust_3="110.88645" pt_clust_4="64.30933" pt_clust_5="54.62927" pt_clust_6="14000.00000"></scales>
<clustering>
<clus scale="   54.629">  1  5  2 -1</clus>
<clus scale="   64.309">  2  4  1 -1</clus>
<clus scale="  110.886">  2  3  1 -1</clus>
<clus scale="   64.309">  2  3  1 -1</clus>
</clustering>
</event>
<event>
 6    0  0.1631680E+002  0.1422588E+03  0.7546771E-02  0.1210321E+00
          2   -1    0    0  505    0 -0.00000000000E+00  0.00000000000E+00  0.58482169178E+03  0.58482169178E+03  0.00000000000E+00 0. -1.
         21   -1    0    0  504  502  0.00000000000E+00 -0.00000000000E+00 -0.18294819785E+03  0.18294819785E+03  0.00000000000E+00 0.  1.
         21    1    1    2  503  502  0.30628361462E+02  0.50780618133E+01 -0.66150813079E+01  0.31743385741E+02  0.00000000000E+00 0. -1.
         21    1    1    2  504  501 -0.13588781849E+03 -0.81650243141E+02 -0.82501664152E+02  0.17871425798E+03  0.00000000000E+00 0.  1.
         21    1    1    2  505  503 -0.58371272493E+02 -0.31954051844E+02  0.10632645977E+03  0.12543357975E+03  0.00000000000E+00 0.  1.
          2    1    1    2  501    0  0.16363072952E+03  0.10852623317E+03  0.38466377962E+03  0.43187866616E+03  0.00000000000E+00 0. -1.
<scales pt_clust_3="31.04647" pt_clust_4="142.25883" pt_clust_5="64.83848" pt_clust_6="14000.00000"></scales>
<clustering>
<clus scale="   31.046">  2  3  1 -1</clus>
<clus scale="   64.838">  1  5  2 -1</clus>
<clus scale="  142.259">  2  4  1 -1</clus>
<clus scale="   31.046">  2  3  1 -1</clus>
</clustering>
</event>
<event>
 6    0  0.1631680E+002  0.1814775E+03  0.7546771E-02  0.1166381E+00
          2   -1    0    0  504    0 -0.00000000000E+00  0.00000000000E+00  0.28783936284E+04  0.28783936284E+04  0.00000000000E+00 0. -1.
         21   -1    0    0  503  502  0.00000000000E+00 -0.00000000000E+00 -0.21974324668E+03  0.21974324668E+03  0.00000000000E+00 0. -1.
         21    1    1    2  503  501 -0.14130059084E+02 -0.29473939785E+02 -0.15869887352E+03  0.16202994832E+03  0.00000000000E+00 0. -1.
         21    1    1    2  504  505  0.83093004432E+02 -0.95740187486E+02  0.60157010380E+02  0.14031926733E+03  0.00000000000E+00 0. -1.
         21    1    1    2  505  502 -0.84471688585E+02 -0.63455352828E+02  0.16017750607E+03  0.19188246774E+03  0.00000000000E+00 0.  1.
          2    1    1    2  501    0  0.15508743238E+02  0.18866948010E+03  0.25970147388E+04  0.26039051917E+04  0.00000000000E+00 0. -1.
<scales pt_clust_3="32.68596" pt_clust_4="14000.00000" pt_clust_5="113.46422" pt_clust_6="181.47748"></scales>
<clustering>
<clus scale="   32.686">  2  3  1 -1</clus>
<clus scale="  113.464">  2  5  1 -1</clus>
<clus scale="  181.477">  1  6  2 -1</clus>
<clus scale="   32.686">  2  3  1 -1</clus>
</clustering>
</event>
<event>
 6    0  0.1631680E+002  0.7361514E+02  0.7546771E-02  0.1348214E+00
         21   -1    0    0  505  502  0.00000000000E+00  0.00000000000E+00  0.12076115822E+03  0.12076115822E+03  0.00000000000E+00 0.  1.
          2   -1    0    0  504    0 -0.00000000000E+00 -0.00000000000E+00 -0.85910207559E+03  0.85910207559E+03  0.00000000000E+00 0. -1.
         21    1    1    2  503  502  0.38149179743E+02  0.10326479213E+03  0.29622840927E+02  0.11400214872E+03  0.00000000000E+00 0.  1.
         21    1    1    2  504  503 -0.20680363405E+02 -0.32606040235E+02 -0.43860607677E+03  0.44030230736E+03  0.00000000000E+00 0. -1.
         21    1    1    2  505  501 -0.59522979749E+02 -0.29611674649E+02  0.21455025052E+02  0.69858102563E+02  0.00000000000E+00 0.  1.
          2    1    1    2  501    0  0.42054163411E+02 -0.41047077242E+02 -0.35081270659E+03  0.35570067517E+03  0.00000000000E+00 0. -1.
<scales pt_clust_3="73.61514" pt_clust_4="38.61128" pt_clust_5="68.39694" pt_clust_6="14000.00000"></scales>
<clustering>
<clus scale="   38.611">  2  4  1 -1</clus>
<clus scale="   68.397">  1  5  2 -1</clus>
<clus scale="   73.615">  1  3  2 -1</clus>
<clus scale="   68.397">  1  3  2 -1</clus>
</clustering>
</event>
<event>
 6    0  0.1631680E+002  0.9081821E+02  0.7546771E-02  0.1300882E+00
          2   -1    0    0  504    0 -0.00000000000E+00  0.00000000000E+00  0.20270204878E+04  0.20270204878E+04  0.00000000000E+00 0. -1.
         21   -1    0    0  503  502  0.00000000000E+00 -0.00000000000E+00 -0.20881019939E+03  0.20881019939E+03  0.00000000000E+00 0. -1.
         21    1    1    2  503  501 -0.61191807774E+02  0.56836799177E+02  0.69089779532E+02  0.10838937547E+03  0.00000000000E+00 0. -1.
         21    1    1    2  504  505 -0.10413097437E+00 -0.44578007654E+02  0.17501040985E+03  0.18059859680E+03  0.00000000000E+00 0.  1.
         21    1    1    2  505  502 -0.30987211758E+02 -0.24522111154E+02 -0.18302545633E+03  0.18724278062E+03  0.00000000000E+00 0. -1.
          2    1    1    2  501    0  0.92283150506E+02  0.12263319631E+02  0.17571355554E+04  0.17595999343E+04  0.00000000000E+00 0. -1.
<scales pt_clust_3="14000.00000" pt_clust_4="47.62070" pt_clust_5="39.51634" pt_clust_6="90.81821"></scales>
<clustering>
<clus scale="   39.516">  2  5  1 -1</clus>
<clus scale="   47.621">  2  4  1 -1</clus>
<clus scale="   90.818">  1  6  2 -1</clus>
<clus scale="   39.516">  2  3  1 -1</clus>
</clustering>
</event>
<event>
 6    0  0.1631680E+002  0.1403023E+03  0.7546771E-02  0.1212923E+00
         21   -1    0    0  505  502  0.00000000000E+00  0.00000000000E+00  0.24938261991E+03  0.24938261991E+03  0.00000000000E+00 0.  1.
          2   -1    0    0  503    0 -0.00000000000E+00 -0.00000000000E+00 -0.25436121863E+04  0.25436121863E+04  0.00000000000E+00 0. -1.
         21    1    1    2  503  504 -0.14649579464E+03  0.53160874380E+02 -0.15777196530E+04  0.15853978680E+04  0.00000000000E+00 0.  1.
         21    1    1    2  504  502 -0.25933089649E+02 -0.19221669763E+02  0.23117934738E+03  0.23342212487E+03  0.00000000000E+00 0.  1.
         21    1    1    2  505  501  0.54621533675E+02  0.13406966515E+01 -0.74607775575E+02  0.92475021410E+02  0.00000000000E+00 0.  1.
          2    1    1    2  501    0  0.11780735062E+03 -0.35279901268E+02 -0.87308148519E+03  0.88169979193E+03  0.00000000000E+00 0. -1.
<scales pt_clust_3="14000.00000" pt_clust_4="32.27999" pt_clust_5="41.97293" pt_clust_6="140.30234"></scales>
<clustering>
<clus scale="   32.280">  1  4  2 -1</clus>
<clus scale="   41.973">  1  5  2 -1</clus>
<clus scale="  140.302">  1  6  2 -1</clus>
<clus scale="   32.280">  1  3  2 -1</clus>
</clustering>
</event>
<event>
 6    0  0.1631680E+002  0.9990714E+02  0.7546771E-02  0.1280491E+00
         21   -1    0    0  503  502  0.00000000000E+00  0.00000000000E+00  0.49586444155E+02  0.49586444155E+02  0.00000000000E+00 0. -1.
          2   -1    0    0  505    0 -0.00000000000E+00 -0.00000000000E+00 -0.15057398067E+04  0.15057398067E+04  0.00000000000E+00 0.  1.
         21    1    1    2  503  501 -0.56875261222E+02  0.71603924258E+02 -0.28632317202E+03  0.30057091699E+03  0.00000000000E+00 0. -1.
         21    1    1    2  504  502  0.61671387389E+02  0.32660699680E+02 -0.50967352344E-01  0.69785986586E+02  0.00000000000E+00 0. -1.
         21    1    1    2  505  504  0.24785573294E+02  0.31852968945E+02 -0.13645238615E+03  0.14229613474E+03  0.00000000000E+00 0. -1.
          2    1    1    2  501    0 -0.29581699460E+02 -0.13611759288E+03 -0.10333268370E+04  0.10426732125E+04  0.00000000000E+00 0.  1.
<scales pt_clust_3="99.90714" pt_clust_4="70.72797" pt_clust_5="40.36008" pt_clust_6="14000.00000"></scales>
<clustering>
<clus scale="   40.360">  2  5  1 -1</clus>
<clus scale="   70.728">  1  4  2 -1</clus>
<clus scale="   99.907">  1  3  2 -1</clus>
<clus scale="   70.728">  1  3  2 -1</clus>
</clustering>
</event>
<event>
 6    0  0.1631680E+002  0.1114501E+03  0.7546771E-02  0.1257908E+00
          2   -1    0    0  505    0 -0.00000000000E+00  0.00000000000E+00  0.11347969433E+04  0.11347969433E+04  0.00000000000E+00 0. -1.
         21   -1    0    0  504  502  0.00000000000E+00 -0.00000000000E+00 -0.28249645343E+03  0.28249645343E+03  0.00000000000E+00 0. -1.
         21    1    1    2  503  502  0.17045242222E+02  0.75297401414E+02  0.10320360016E+03  0.12888452983E+03  0.00000000000E+00 0. -1.
         21    1    1    2  504  501  0.96604196032E+02 -0.59218912895E+02 -0.25162050810E+03  0.27595675464E+03  0.00000000000E+00 0. -1.
         21    1    1    2  505  503 -0.33587701069E+02  0.31530723340E+02  0.56575983669E+03  0.56763237486E+03  0.00000000000E+00 0. -1.
          2    1    1    2  501    0 -0.80061737184E+02 -0.47609211859E+02  0.43495756113E+03  0.44481973742E+03  0.00000000000E+00 0. -1.
<scales pt_clust_3="82.37011" pt_clust_4="14000.00000" pt_clust_5="46.06865" pt_clust_6="111.45006"></scales>
<clustering>
<clus scale="   46.069">  1  5  2 -1</clus>
<clus scale="   82.370">  1  3  2 -1</clus>
<clus scale="  111.450">  1  6  2 -1</clus>
<clus scale="  111.450">  2  3  1 -1</clus>
</clustering>
</event>
<event>
 6    0  0.1631680E+002  0.1331183E+03  0.7546771E-02  0.1222901E+00
         21   -1    0    0  503  502  0.00000000000E+00  0.00000000000E+00  0.13391261498E+03  0.13391261498E+03  0.00000000000E+00 0.  1.
          2   -1    0    0  504    0 -0.00000000000E+00 -0.00000000000E+00 -0.15533455556E+04  0.15533455556E+04  0.00000000000E+00 0.  1.
         21    1    1    2  503  501 -0.14852432298E+01  0.10827395629E+03  0.63919671868E+02  0.12574251472E+03  0.00000000000E+00 0.  1.
         21    1    1    2  504  505  0.59715543681E+02 -0.29429217207E+02 -0.14317891996E+03  0.15789942401E+03  0.00000000000E+00 0.  1.
         21    1    1    2  505  502  0.76214668659E+02  0.73594254265E+01 -0.27645377162E+02  0.81407025126E+02  0.00000000000E+00 0. -1.
          2    1    1    2  501    0 -0.13444496911E+03 -0.86204164505E+02 -0.13125283154E+04  0.13222092068E+04  0.00000000000E+00 0.  1.
<scales pt_clust_3="14000.00000" pt_clust_4="66.57346" pt_clust_5="78.78135" pt_clust_6="133.11833"></scales>
<clustering>
<clus scale="   66.573">  2  4  1 -1</clus>
<clus scale="   78.781">  1  5  2 -1</clus>
<clus scale="  133.118">  2  6  1 -1</clus>
<clus scale="   78.781">  1  3  2 -1</clus>
</clustering>
</event>
<event>
 6    0  0.1631680E+002  0.9799225E+02  0.7546771E-02  0.1284576E+00
         -3   -1    0    0    0  501 -0.00000000000E+00  0.00000000000E+00  0.30347998386E+03  0.30347998386E+03  0.00000000000E+00 0. -1.
         21   -1    0    0  503  502  0.00000000000E+00 -0.00000000000E+00 -0.10446426323E+04  0.10446426323E+04  0.00000000000E+00 0.  1.
         21    1    1    2  503  505  0.12806642275E+02 -0.48284840046E+02  0.12289907731E+03  0.13266355592E+03  0.00000000000E+00 0. -1.
         21    1    1    2  504  502  0.88283200599E+02  0.43923382396E+02 -0.10137032753E+04  0.10184878582E+04  0.00000000000E+00 0.  1.
         21    1    1    2  505  501 -0.29614251186E+02 -0.10210674188E+02  0.93755583506E+00  0.31339124934E+02  0.00000000000E+00 0.  1.
         -3    1    1    2    0  504 -0.71475591687E+02  0.14572131838E+02  0.14870399367E+03  0.16563207711E+03  0.00000000000E+00 0. -1.
<scales pt_clust_3="52.82679" pt_clust_4="97.99225" pt_clust_5="31.32510" pt_clust_6="14000.00000"></scales>
<clustering>
<clus scale="   31.325">  1  5  2 -1</clus>
<clus scale="   52.827">  1  3  2 -1</clus>
<clus scale="   97.992">  2  4  1 -1</clus>
<clus scale="   97.992">  2  3  1 -1</clus>
</clustering>
</event>
<event>
 6    0  0.1631680E+002  0.1001777E+03  0.7546771E-02  0.1279923E+00
         21   -1    0    0  501  502  0.00000000000E+00  0.00000000000E+00  0.14355570943E+04  0.14355570943E+04  0.00000000000E+00 0.  1.
          2   -1    0    0  503    0 -0.00000000000E+00 -0.00000000000E+00 -0.20684021985E+03  0.20684021985E+03  0.00000000000E+00 0. -1.
         21    1    1    2  503  504  0.11647077100E+02  0.48268963946E+02 -0.14726907274E+03  0.15541469387E+03  0.00000000000E+00 0. -1.
         21    1    1    2  504  505 -0.34401615731E+02 -0.12532101286E+03  0.92242591237E+02  0.15936600349E+03  0.00000000000E+00 0. -1.
         21    1    1    2  505  502 -0.64812839769E+02  0.25329311673E+02  0.11810061811E+04  0.11830544696E+04  0.00000000000E+00 0.  1.
          2    1    1    2  501    0  0.87567378400E+02  0.51722737245E+02  0.10273717490E+03  0.14456214724E+03  0.00000000000E+00 0. -1.
<scales pt_clust_3="49.65428" pt_clust_4="14000.00000" pt_clust_5="69.71643" pt_clust_6="100.17774"></scales>
<clustering>
<clus scale="   49.654">  2  3  1 -1</clus>
<clus scale="   69.716">  1  5  2 -1</clus>
<clus scale="  100.178">  1  6  2 -1</clus>
<clus scale="   69.716">  1  3  2 -1</clus>
</clustering>
</event>
<event>
 6    0  0.1631680E+002  0.7291339E+02  0.7546771E-02  0.1350457E+00
         21   -1    0    0  504  502  0.00000000000E+00  0.00000000000E+00  0.10343099555E+03  0.10343099555E+03  0.00000000000E+00 0. -1.
          2   -1    0    0  503    0 -0.00000000000E+00 -0.00000000000E+00 -0.85294684849E+03  0.85294684849E+03  0.00000000000E+00 0. -1.
         21    1    1    2  503  502  0.24071860288E+02 -0.34234590952E+02 -0.48049857647E+02  0.63720094910E+02  0.00000000000E+00 0. -1.
         21    1    1    2  504  505  0.46759458831E+02  0.52781800614E+01  0.32640824609E+02  0.57268923563E+02  0.00000000000E+00 0. -1.
         21    1    1    2  505  501 -0.28637882382E+02  0.89108734964E+02  0.39527924368E+01  0.93680945353E+02  0.00000000000E+00 0. -1.
          2    1    1    2  501    0 -0.42193436737E+02 -0.60152324073E+02 -0.73805961234E+03  0.74170788021E+03  0.00000000000E+00 0. -1.
<scales pt_clust_3="41.85047" pt_clust_4="59.07892" pt_clust_5="14000.00000" pt_clust_6="72.91339"></scales>
<clustering>
<clus scale="   41.850">  1  3  2 -1</clus>
<clus scale="   59.079">  1  4  2 -1</clus>
<clus scale="   72.913">  2  6  1 -1</clus>
<clus scale="   41.850">  1  3  2 -1</clus>
</clustering>
</event>
<event>
 6    0  0.1631680E+002  0.1471284E+03  0.7546771E-02  0.1204047E+00
         21   -1    0    0  505  502  0.00000000000E+00  0.00000000000E+00  0.10235490712E+03  0.10235490712E+03  0.00000000000E+00 0.  1.
          1   -1    0    0  503    0 -0.00000000000E+00 -0.00000000000E+00 -0.72212185160E+03  0.72212185160E+03  0.00000000000E+00 0.  1.
         21    1    1    2  503  504 -0.37622043485E+02  0.19472542901E+02 -0.10681293519E+03  0.11490692410E+03  0.00000000000E+00 0.  1.
         21    1    1    2  504  502  0.16495260306E+03  0.64717436849E+02 -0.56785965871E+02  0.18607083008E+03  0.00000000000E+00 0.  1.
         21    1    1    2  505  501 -0.22048830695E+02 -0.25746197023E+02  0.15086854708E+02  0.37102975367E+02  0.00000000000E+00 0.  1.
          1    1    1    2  501    0 -0.10528172888E+03 -0.58443782726E+02 -0.47125489813E+03  0.48639602916E+03  0.00000000000E+00 0.  1.
<scales pt_clust_3="42.80965" pt_clust_4="147.12844" pt_clust_5="33.89716" pt_clust_6="14000.00000"></scales>
<clustering>
<clus scale="   33.897">  1  5  2 -1</clus>
<clus scale="   42.810">  2  3  1 -1</clus>
<clus scale="  147.128">  1  4  2 -1</clus>
<clus scale="   33.897">  1  3  2 -1</clus>
</clustering>
</event>
