<event>
 6    0  0.1344929E+003  0.1185477E+03  0.7546771E-02  0.1245512E+00
         21   -1    0    0  504  501  0.00000000000E+00  0.00000000000E+00  0.18308084468E+04  0.18308084468E+04  0.00000000000E+00 0. -1.
         21   -1    0    0  506  502 -0.00000000000E+00 -0.00000000000E+00 -0.20547633129E+03  0.20547633129E+03  0.00000000000E+00 0.  1.
         21    1    1    2  503  501  0.34285252171E+02 -0.51579278601E+02  0.49087207137E+03  0.49476387393E+03  0.00000000000E+00 0. -1.
         21    1    1    2  504  505  0.77817951850E+02  0.17143948436E+00  0.12186843824E+04  0.12211663633E+04  0.00000000000E+00 0. -1.
         21    1    1    2  505  502 -0.89777153390E+02  0.96234556130E+02  0.76349915461E+02  0.15215234686E+03  0.00000000000E+00 0.  1.
         21    1    1    2  506  503 -0.22326050632E+02 -0.44826717013E+02 -0.16057425373E+03  0.16820219397E+03  0.00000000000E+00 0.  1.
<scales pt_clust_3="63.15080" pt_clust_4="14000.00000" pt_clust_5="118.54774" pt_clust_6="50.07881"></scales>
<clustering>
<clus scale="   50.079">  2  6  1 -1</clus>
<clus scale="   63.151">  1  3  2 -1</clus>
<clus scale="  118.548">  2  5  1 -1</clus>
<clus scale="   63.151">  1  3  2 -1</clus>
</clustering>
</event>
<event>
 6    0  0.1344929E+003  0.1036817E+03  0.7546771E-02  0.1272739E+00
         21   -1    0    0  506  501  0.00000000000E+00  0.00000000000E+00  0.25521405931E+04  0.25521405931E+04  0.00000000000E+00 0.  1.
         21   -1    0    0  504  502 -0.00000000000E+00 -0.00000000000E+00 -0.42392540365E+02  0.42392540365E+02  0.00000000000E+00 0.  1.
         21    1    1    2  503  502  0.16192794698E+02  0.42447781267E+02  0.14929379099E+03  0.15605337793E+03  0.00000000000E+00 0.  1.
         21    1    1    2  504  505  0.48619185068E+02  0.45327771763E+02 -0.29388153822E+01  0.66536220854E+02  0.00000000000E+00 0.  1.
         21    1    1    2  505  501 -0.66025881751E+02  0.36802927255E+02  0.77838730185E+03  0.78204901649E+03  0.00000000000E+00 0.  1.
         21    1    1    2  506  503  0.12139019844E+01 -0.12457848029E+03  0.15850057753E+04  0.15898945182E+04  0.00000000000E+00 0.  1.
<scales pt_clust_3="45.43149" pt_clust_4="14000.00000" pt_clust_5="75.92560" pt_clust_6="103.68175"></scales>
<clustering>
<clus scale="   45.431">  2  3  1 -1</clus>
<clus scale="   75.926">  1  5  2 -1</clus>
<clus scale="  103.682">  1  6  2 -1</clus>
<clus scale="   75.926">  1  3  2 -1</clus>
</clustering>
</event>
<event>
 6    0  0.1344929E+003  0.1199482E+03  0.7546771E-02  0.1243183E+00
         21   -1    0    0  505  501  0.00000000000E+00  0.00000000000E+00  0.11251302643E+03  0.11251302643E+03  0.00000000000E+00 0.  1.
         21   -1    0    0  504  502 -0.00000000000E+00 -0.00000000000E+00 -0.23329532560E+04  0.23329532560E+04  0.00000000000E+00 0.  1.
         21    1    1    2  503  506  0.65208391183E+02 -0.55245890346E+02 -0.34495838036E+03  0.35538785413E+03  0.00000000000E+00 0.  1.
         21    1    1    2  504  501  0.19801389184E+02 -0.22752075386E+02 -0.12815370701E+04  0.12818919665E+04  0.00000000000E+00 0.  1.
         21    1    1    2  505  503 -0.63083670239E+02  0.10669559182E+03  0.70610131112E+02  0.14265093544E+03  0.00000000000E+00 0.  1.
         21    1    1    2  506  502 -0.21926110128E+02 -0.28697626090E+02 -0.66455491023E+03  0.66553552629E+03  0.00000000000E+00 0.  1.
<scales pt_clust_3="119.94816" pt_clust_4="30.16209" pt_clust_5="14000.00000" pt_clust_6="44.10444"></scales>
<clustering>
<clus scale="   30.162">  2  4  1 -1</clus>
<clus scale="   44.104">  2  6  1 -1</clus>
<clus scale="  119.948">  2  3  1 -1</clus>
<clus scale="  119.948">  1  3  2 -1</clus>
</clustering>
</event>
<event>
 6    0  0.1344929E+003  0.1147278E+03  0.7546771E-02  0.1252057E+00
         21   -1    0    0  506  501  0.00000000000E+00  0.00000000000E+00  0.50810114837E+03  0.50810114837E+03  0.00000000000E+00 0.  1.
         21   -1    0    0  504  502 -0.00000000000E+00 -0.00000000000E+00 -0.12956649873E+03  0.12956649873E+03  0.00000000000E+00 0.  1.
         21    1    1    2  503  502  0.62365131405E+02 -0.26111125780E+02  0.28266825136E+02  0.73281743347E+02  0.00000000000E+00 0.  1.
         21    1    1    2  504  501 -0.12528443585E+02  0.38607377317E+02 -0.70998785174E+02  0.81782143394E+02  0.00000000000E+00 0.  1.
         21    1    1    2  505  503 -0.64515350261E+02 -0.11474124838E+03  0.25200006639E+03  0.28430937016E+03  0.00000000000E+00 0.  1.
         21    1    1    2  506  505  0.14678662441E+02  0.10224499684E+03  0.16926654328E+03  0.19829439020E+03  0.00000000000E+00 0.  1.
<scales pt_clust_3="57.89266" pt_clust_4="40.58930" pt_clust_5="14000.00000" pt_clust_6="114.72779"></scales>
<clustering>
<clus scale="   40.589">  2  4  1 -1</clus>
<clus scale="   57.893">  2  3  1 -1</clus>
<clus scale="  114.728">  1  6  2 -1</clus>
<clus scale="  114.728">  1  3  2 -1</clus>
</clustering>
</event>
<event>
 6    0  0.1707090E+003  0.7992736E+02  0.7546771E-02  0.1329258E+00
         21   -1    0    0  506  501  0.00000000000E+00  0.00000000000E+00  0.11519888342E+04  0.11519888342E+04  0.00000000000E+00 0.  1.
         21   -1    0    0  503  502 -0.00000000000E+00 -0.00000000000E+00 -0.12181730738E+04  0.12181730738E+04  0.00000000000E+00 0.  1.
         21    1    1    2  503  504 -0.99966321732E+02  0.11214796069E+03 -0.62159456759E+03  0.63949217120E+03  0.00000000000E+00 0.  1.
         21    1    1    2  504  501  0.51315419873E+02 -0.61075815964E+02  0.11373221864E+04  0.11401163464E+04  0.00000000000E+00 0.  1.
         21    1    1    2  505  502  0.16145740364E+02 -0.25746889153E+02 -0.47506574241E+03  0.47603681249E+03  0.00000000000E+00 0.  1.
         21    1    1    2  506  505  0.32505161495E+02 -0.25325255571E+02 -0.10684611606E+03  0.11451657788E+03  0.00000000000E+00 0.  1.
<scales pt_clust_3="14000.00000" pt_clust_4="79.92736" pt_clust_5="30.39058" pt_clust_6="45.48927"></scales>
<clustering>
<clus scale="   30.391">  2  5  1 -1</clus>
<clus scale="   45.489">  2  6  1 -1</clus>
<clus scale="   79.927">  1  4  2 -1</clus>
<clus scale="   79.927">  1  3  2 -1</clus>
</clustering>
</event>
<event>
 6    0  0.1344929E+003  0.1157271E+03  0.7546771E-02  0.1250317E+00
         21   -1    0    0  505  501  0.00000000000E+00  0.00000000000E+00  0.17355332800E+03  0.17355332800E+03  0.00000000000E+00 0. -1.
         21   -1    0    0  506  502 -0.00000000000E+00 -0.00000000000E+00 -0.25760566324E+04  0.25760566324E+04  0.00000000000E+00 0. -1.
         21    1    1    2  503  501  0.48032650597E+02 -0.17615489056E+01  0.15228402400E+03  0.15968926872E+03  0.00000000000E+00 0. -1.
         21    1    1    2  504  502 -0.89333732780E+02  0.73356998426E+02 -0.84640419882E+03  0.85426098635E+03  0.00000000000E+00 0. -1.
         21    1    1    2  505  504 -0.19239513363E+02  0.29900756422E+02 -0.15719849398E+02  0.38875799338E+02  0.00000000000E+00 0. -1.
         21    1    1    2  506  503  0.60540595546E+02 -0.10149620594E+03 -0.16926632802E+04  0.16967839060E+04  0.00000000000E+00 0. -1.
<scales pt_clust_3="40.01668" pt_clust_4="115.72709" pt_clust_5="35.55579" pt_clust_6="14000.00000"></scales>
<clustering>
<clus scale="   35.556">  1  5  2 -1</clus>
<clus scale="   40.017">  1  3  2 -1</clus>
<clus scale="  115.727">  1  4  2 -1</clus>
<clus scale="   35.556">  1  3  2 -1</clus>
</clustering>
</event>
<event>
 6    0  0.1344929E+003  0.9555668E+02  0.7546771E-02  0.1289927E+00
         21   -1    0    0  506  501  0.00000000000E+00  0.00000000000E+00  0.13055637461E+03  0.13055637461E+03  0.00000000000E+00 0.  1.
         21   -1    0    0  503  502 -0.00000000000E+00 -0.00000000000E+00 -0.61690464282E+03  0.61690464282E+03  0.00000000000E+00 0.  1.
         21    1    1    2  503  504  0.40108758924E+02  0.27072715591E+01 -0.29547827395E+03  0.29820035586E+03  0.00000000000E+00 0.  1.
         21    1    1    2  504  501  0.52839045530E+02  0.44472813076E+02 -0.22248086294E+03  0.23295392294E+03  0.00000000000E+00 0.  1.
         21    1    1    2  505  502 -0.11414793181E+03 -0.20023615317E+02 -0.51138401215E+02  0.12667214211E+03  0.00000000000E+00 0.  1.
         21    1    1    2  506  505  0.21200127358E+02 -0.27156469318E+02  0.82749269894E+02  0.89634596523E+02  0.00000000000E+00 0.  1.
<scales pt_clust_3="40.80221" pt_clust_4="14000.00000" pt_clust_5="95.55668" pt_clust_6="34.45169"></scales>
<clustering>
<clus scale="   34.452">  1  6  2 -1</clus>
<clus scale="   40.802">  2  3  1 -1</clus>
<clus scale="   95.557">  1  5  2 -1</clus>
<clus scale="   34.452">  1  3  2 -1</clus>
</clustering>
</event>
<event>
 6    0  0.1344929E+003  0.1097568E+03  0.7546771E-02  0.1261021E+00
         21   -1    0    0  504  501  0.00000000000E+00  0.00000000000E+00  0.11859172138E+04  0.11859172138E+04  0.00000000000E+00 0.  1.
         21   -1    0    0  505  502 -0.00000000000E+00 -0.00000000000E+00 -0.58423345532E+02  0.58423345532E+02  0.00000000000E+00 0. -1.
         21    1    1    2  503  506  0.27802055868E+02 -0.20224979924E+02  0.90989633806E+02  0.97268276347E+02  0.00000000000E+00 0.  1.
         21    1    1    2  504  503  0.53178172344E+01  0.32265872949E+02  0.56638488872E+03  0.56732813072E+03  0.00000000000E+00 0.  1.
         21    1    1    2  505  501  0.22513899247E+01 -0.11576564597E+03  0.45453585301E+03  0.46905180441E+03  0.00000000000E+00 0.  1.
         21    1    1    2  506  502 -0.35371263027E+02  0.10372475295E+03  0.15583492695E+02  0.11069234782E+03  0.00000000000E+00 0. -1.
<scales pt_clust_3="32.45362" pt_clust_4="32.70116" pt_clust_5="14000.00000" pt_clust_6="109.75677"></scales>
<clustering>
<clus scale="   32.701">  1  4  2 -1</clus>
<clus scale="   32.454">  1  3  2 -1</clus>
<clus scale="  109.757">  2  6  1 -1</clus>
<clus scale="   32.701">  1  3  2 -1</clus>
</clustering>
</event>
<event>
 6    0  0.1344929E+003  0.1043192E+03  0.7546771E-02  0.1271467E+00
         21   -1    0    0  505  501  0.00000000000E+00  0.00000000000E+00  0.12705767847E+03  0.12705767847E+03  0.00000000000E+00 0. -1.
         21   -1    0    0  504  502 -0.00000000000E+00 -0.00000000000E+00 -0.69226078408E+03  0.69226078408E+03  0.00000000000E+00 0. -1.
         21    1    1    2  503  501 -0.20384078913E+02 -0.33376675159E+02  0.35955980548E+02  0.53125753218E+02  0.00000000000E+00 0. -1.
         21    1    1    2  504  506  0.52849572724E+02 -0.51900786726E+02 -0.51355579099E+03  0.51887023374E+03  0.00000000000E+00 0. -1.
         21    1    1    2  505  502 -0.59512896711E+01  0.15441212662E+03 -0.76580584835E+02  0.17246190498E+03  0.00000000000E+00 0. -1.
         21    1    1    2  506  503 -0.26514204140E+02 -0.69134664739E+02 -0.11022710330E+02  0.74860570615E+02  0.00000000000E+00 0. -1.
<scales pt_clust_3="39.10899" pt_clust_4="74.36759" pt_clust_5="14000.00000" pt_clust_6="104.31924"></scales>
<clustering>
<clus scale="   39.109">  1  3  2 -1</clus>
<clus scale="   74.368">  2  4  1 -1</clus>
<clus scale="  104.319">  1  6  2 -1</clus>
<clus scale="   39.109">  1  3  2 -1</clus>
</clustering>
</event>
<event>
 6    0  0.1344929E+003  0.9466291E+02  0.7546771E-02  0.1291937E+00
         21   -1    0    0  502  501  0.00000000000E+00  0.00000000000E+00  0.98405605551E+03  0.98405605551E+03  0.00000000000E+00 0.  1.
         21   -1    0    0  504  502 -0.00000000000E+00 -0.00000000000E+00 -0.37713209433E+02  0.37713209433E+02  0.00000000000E+00 0.  1.
         21    1    1    2  503  506 -0.76060154611E+02 -0.81892440543E+02  0.21571574602E+03  0.24295020481E+03  0.00000000000E+00 0.  1.
         21    1    1    2  504  503 -0.25714120387E+00  0.39553412182E+02  0.18224198154E+02  0.43550659412E+02  0.00000000000E+00 0.  1.
         21    1    1    2  505  501  0.44090269340E+02 -0.37366385584E+02  0.53519005960E+03  0.53830158695E+03  0.00000000000E+00 0.  1.
         21    1    1    2  506  505  0.32227026476E+02  0.79705413945E+02  0.17721284231E+03  0.19696681377E+03  0.00000000000E+00 0.  1.
<scales pt_clust_3="94.66291" pt_clust_4="39.55425" pt_clust_5="56.22493" pt_clust_6="14000.00000"></scales>
<clustering>
<clus scale="   39.554">  2  4  1 -1</clus>
<clus scale="   56.225">  1  5  2 -1</clus>
<clus scale="   94.663">  2  3  1 -1</clus>
<clus scale="   56.225">  1  3  2 -1</clus>
</clustering>
</event>
<event>
 6    0  0.1344929E+003  0.2471510E+03  0.7546771E-02  0.1115119E+00
         21   -1    0    0  503  501  0.00000000000E+00  0.00000000000E+00  0.39485996664E+03  0.39485996664E+03  0.00000000000E+00 0.  1.
         21   -1    0    0  505  502 -0.00000000000E+00 -0.00000000000E+00 -0.29893962283E+03  0.29893962283E+03  0.00000000000E+00 0. -1.
         21    1    1    2  503  502 -0.27378492122E+03 -0.37782008409E+02  0.17981511477E+03  0.32972585393E+03  0.00000000000E+00 0.  1.
         21    1    1    2  504  501  0.52597607316E+02  0.12555512158E+02  0.64843575038E+02  0.84432448766E+02  0.00000000000E+00 0. -1.
         21    1    1    2  505  506  0.14952696379E+03  0.41753123578E+02 -0.65304985878E+02  0.16842320923E+03  0.00000000000E+00 0. -1.
         21    1    1    2  506  504  0.71660350117E+02 -0.16526627327E+02 -0.83433360127E+02  0.11121807754E+03  0.00000000000E+00 0.  1.
<scales pt_clust_3="233.59720" pt_clust_4="54.07540" pt_clust_5="54.83270" pt_clust_6="54.83270"></scales>
<clustering>
<clus scale="   54.075">  1  4  2 -1</clus>
<clus scale="   54.833">  5  6 -1 -1</clus>
<clus scale="  233.597">  1  3  2 -1</clus>
<clus scale="   54.075">  1  3  2 -1</clus>
</clustering>
</event>
<event>
 6    0  0.1344929E+003  0.9138817E+02  0.7546771E-02  0.1299524E+00
         21   -1    0    0  504  501  0.00000000000E+00  0.00000000000E+00  0.12954382036E+03  0.12954382036E+03  0.00000000000E+00 0. -1.
         21   -1    0    0  506  502 -0.00000000000E+00 -0.00000000000E+00 -0.12055630035E+04  0.12055630035E+04  0.00000000000E+00 0. -1.
         21    1    1    2  503  501 -0.28235050213E+02  0.11096609190E+02 -0.29348578141E+02  0.42210091624E+02  0.00000000000E+00 0. -1.
         21    1    1    2  504  505  0.25453763577E+02  0.87495758143E+02  0.96118814839E+02  0.13244707750E+03  0.00000000000E+00 0. -1.
         21    1    1    2  505  502  0.60971542108E+02 -0.38470966319E+02 -0.91403266383E+03  0.91687144941E+03  0.00000000000E+00 0. -1.
         21    1    1    2  506  503 -0.58190255472E+02 -0.60121401014E+02 -0.22875675596E+03  0.24357820528E+03  0.00000000000E+00 0. -1.
<scales pt_clust_3="30.33732" pt_clust_4="91.38817" pt_clust_5="71.75045" pt_clust_6="14000.00000"></scales>
<clustering>
<clus scale="   30.337">  1  3  2 -1</clus>
<clus scale="   71.750">  2  5  1 -1</clus>
<clus scale="   91.388">  1  4  2 -1</clus>
<clus scale="   30.337">  1  3  2 -1</clus>
</clustering>
</event>
<event>
 6    0  0.2157879E+003  0.1104423E+03  0.7546771E-02  0.1259753E+00
         21   -1    0    0  505  501  0.00000000000E+00  0.00000000000E+00  0.78883444869E+03  0.78883444869E+03  0.00000000000E+00 0.  1.
         21   -1    0    0  503  502 -0.00000000000E+00 -0.00000000000E+00 -0.99860309310E+03  0.99860309310E+03  0.00000000000E+00 0. -1.
         21    1    1    2  503  506 -0.34153693856E+02  0.10600277536E+01 -0.21053899681E+02  0.40135584643E+02  0.00000000000E+00 0. -1.
         21    1    1    2  504  501  0.18890428015E+02 -0.36444357218E+02  0.14170962627E+03  0.14753527585E+03  0.00000000000E+00 0. -1.
         21    1    1    2  505  502  0.39943978042E+02  0.10993810448E+03 -0.95909929988E+03  0.96620565887E+03  0.00000000000E+00 0. -1.
         21    1    1    2  506  504 -0.24680712202E+02 -0.74553775019E+02  0.62867492889E+03  0.63356102243E+03  0.00000000000E+00 0.  1.
<scales pt_clust_3="34.17014" pt_clust_4="40.99920" pt_clust_5="110.44231" pt_clust_6="14000.00000"></scales>
<clustering>
<clus scale="   34.170">  2  3  1 -1</clus>
<clus scale="   40.999">  1  4  2 -1</clus>
<clus scale="  110.442">  2  5  1 -1</clus>
<clus scale="   40.999">  1  3  2 -1</clus>
</clustering>
</event>
<event>
 6    0  0.1344929E+003  0.1623766E+03  0.7546771E-02  0.1186039E+00
         21   -1    0    0  506  501  0.00000000000E+00  0.00000000000E+00  0.47492490399E+03  0.47492490399E+03  0.00000000000E+00 0. -1.
         21   -1    0    0  504  502 -0.00000000000E+00 -0.00000000000E+00 -0.27691347079E+03  0.27691347079E+03  0.00000000000E+00 0.  1.
         21    1    1    2  503  505 -0.62901214712E+01 -0.60641696309E+02  0.43482116275E+02  0.74884413566E+02  0.00000000000E+00 0.  1.
         21    1    1    2  504  501 -0.10390513789E+02  0.12423963565E+03 -0.13399696126E+03  0.18302632453E+03  0.00000000000E+00 0.  1.
         21    1    1    2  505  502 -0.38821369126E+02 -0.15696847818E+03 -0.23627632032E+02  0.16341501411E+03  0.00000000000E+00 0.  1.
         21    1    1    2  506  503  0.55502004386E+02  0.93370538834E+02  0.31215391022E+03  0.33051262257E+03  0.00000000000E+00 0. -1.
<scales pt_clust_3="51.38580" pt_clust_4="139.15089" pt_clust_5="51.38580" pt_clust_6="108.62104"></scales>
<clustering>
<clus scale="   51.386">  3  5 -1 -1</clus>
<clus scale="  108.621">  1  6  2 -1</clus>
<clus scale="  139.151">  2  4  1 -1</clus>
<clus scale="  108.621">  1  3  2 -1</clus>
</clustering>
</event>
<event>
 6    0  0.1344929E+003  0.1741122E+03  0.7546771E-02  0.1173626E+00
         21   -1    0    0  504  501  0.00000000000E+00  0.00000000000E+00  0.37161712219E+03  0.37161712219E+03  0.00000000000E+00 0.  1.
         21   -1    0    0  503  502 -0.00000000000E+00 -0.00000000000E+00 -0.19059821231E+04  0.19059821231E+04  0.00000000000E+00 0.  1.
         21    1    1    2  503  505 -0.33373453739E+02  0.65977671530E+01 -0.88299581251E+03  0.88365090553E+03  0.00000000000E+00 0.  1.
         21    1    1    2  504  506  0.16478754210E+03 -0.45648295660E+02  0.30992077037E+03  0.35396268848E+03  0.00000000000E+00 0.  1.
         21    1    1    2  505  501 -0.22093965152E+03  0.12531294858E+03 -0.48197013543E+03  0.54480535619E+03  0.00000000000E+00 0.  1.
         21    1    1    2  506  502  0.89525563160E+02 -0.86262420077E+02 -0.47931982337E+03  0.49518029509E+03  0.00000000000E+00 0.  1.
<scales pt_clust_3="34.01938" pt_clust_4="174.11220" pt_clust_5="14000.00000" pt_clust_6="111.03755"></scales>
<clustering>
<clus scale="   34.019">  2  3  1 -1</clus>
<clus scale="  111.038">  2  6  1 -1</clus>
<clus scale="  174.112">  1  4  2 -1</clus>
<clus scale="  174.112">  1  3  2 -1</clus>
</clustering>
</event>
<event>
 6    0  0.1344929E+003  0.1363337E+03  0.7546771E-02  0.1218349E+00
         21   -1    0    0  506  501  0.00000000000E+00  0.00000000000E+00  0.42900311931E+03  0.42900311931E+03  0.00000000000E+00 0. -1.
         21   -1    0    0  505  502 -0.00000000000E+00 -0.00000000000E+00 -0.14026422328E+04  0.14026422328E+04  0.00000000000E+00 0. -1.
         21    1    1    2  503  504 -0.15856404356E+02  0.18836355331E+03 -0.66324987803E+03  0.68966126068E+03  0.00000000000E+00 0.  1.
         21    1    1    2  504  502 -0.29788808069E+02 -0.70442101618E+02 -0.63671915433E+03  0.64129614396E+03  0.00000000000E+00 0. -1.
         21    1    1    2  505  501  0.43176617719E+02 -0.14947951067E+03 -0.16442780658E+02  0.15645673352E+03  0.00000000000E+00 0. -1.
         21    1    1    2  506  503  0.24685947058E+01  0.31558058983E+02  0.34277269957E+03  0.34423121389E+03  0.00000000000E+00 0. -1.
<scales pt_clust_3="14000.00000" pt_clust_4="75.67855" pt_clust_5="136.33368" pt_clust_6="31.65446"></scales>
<clustering>
<clus scale="   31.654">  1  6  2 -1</clus>
<clus scale="   75.679">  2  4  1 -1</clus>
<clus scale="  136.334">  1  5  2 -1</clus>
<clus scale="   31.654">  1  3  2 -1</clus>
</clustering>
</event>
<event>
 6    0  0.1344929E+003  0.9899540E+02  0.7546771E-02  0.1282423E+00
         21   -1    0    0  506  501  0.00000000000E+00  0.00000000000E+00  0.24942599173E+03  0.24942599173E+03  0.00000000000E+00 0.  1.
         21   -1    0    0  505  502 -0.00000000000E+00 -0.00000000000E+00 -0.27634766274E+03  0.27634766274E+03  0.00000000000E+00 0. -1.
         21    1    1    2  503  502  0.13274754236E+02  0.36278424946E+02 -0.20571475484E+03  0.20931054339E+03  0.00000000000E+00 0. -1.
         21    1    1    2  504  503  0.65403545344E+02  0.63325279661E+02  0.50488099495E+02  0.10409977415E+03  0.00000000000E+00 0.  1.
         21    1    1    2  505  501 -0.38682712186E+02  0.97928616723E+00 -0.67548678328E+01  0.39280268111E+02  0.00000000000E+00 0.  1.
         21    1    1    2  506  504 -0.39995587395E+02 -0.10058299077E+03  0.13505985216E+03  0.17308306882E+03  0.00000000000E+00 0.  1.
<scales pt_clust_3="38.63086" pt_clust_4="98.99540" pt_clust_5="36.66768" pt_clust_6="14000.00000"></scales>
<clustering>
<clus scale="   38.631">  2  3  1 -1</clus>
<clus scale="   36.668">  2  5  1 -1</clus>
<clus scale="   98.995">  2  4  1 -1</clus>
<clus scale="   98.995">  1  3  2 -1</clus>
</clustering>
</event>
<event>
 6    0  0.1344929E+003  0.9664118E+02  0.7546771E-02  0.1287522E+00
         21   -1    0    0  505  501  0.00000000000E+00  0.00000000000E+00  0.26861512052E+03  0.26861512052E+03  0.00000000000E+00 0. -1.
         21   -1    0    0  504  502 -0.00000000000E+00 -0.00000000000E+00 -0.92752691024E+03  0.92752691024E+03  0.00000000000E+00 0.  1.
         21    1    1    2  503  506  0.12094531666E+03 -0.23749162163E+02 -0.52438888104E+03  0.53867939527E+03  0.00000000000E+00 0.  1.
         21    1    1    2  504  501 -0.25374704676E+02 -0.19007747577E+02  0.17270743617E+02  0.36103305810E+02  0.00000000000E+00 0.  1.
         21    1    1    2  505  503 -0.65435769718E+02  0.50954426641E+02  0.22679578298E+03  0.24148399684E+03  0.00000000000E+00 0. -1.
         21    1    1    2  506  502 -0.30134842267E+02 -0.81975169019E+01 -0.37858943527E+03  0.37987533284E+03  0.00000000000E+00 0.  1.
<scales pt_clust_3="14000.00000" pt_clust_4="32.20363" pt_clust_5="96.64118" pt_clust_6="31.22992"></scales>
<clustering>
<clus scale="   31.230">  2  6  1 -1</clus>
<clus scale="   32.204">  1  4  2 -1</clus>
<clus scale="   96.641">  1  5  2 -1</clus>
<clus scale="   32.204">  1  3  2 -1</clus>
</clustering>
</event>
<event>
 6    0  0.1344929E+003  0.7364901E+02  0.7546771E-02  0.1348106E+00
         21   -1    0    0  504  501  0.00000000000E+00  0.00000000000E+00  0.15918423748E+04  0.15918423748E+04  0.00000000000E+00 0. -1.
         21   -1    0    0  503  502 -0.00000000000E+00 -0.00000000000E+00 -0.33782381269E+02  0.33782381269E+02  0.00000000000E+00 0. -1.
         21    1    1    2  503  506 -0.12886510809E+02  0.64369423478E+02  0.15724743580E+03  0.17040023739E+03  0.00000000000E+00 0. -1.
         21    1    1    2  504  505 -0.77077018779E+02 -0.44207440064E+01  0.20434903185E+03  0.21844664479E+03  0.00000000000E+00 0.  1.
         21    1    1    2  505  502  0.67833932305E+02 -0.31399425808E+02  0.50417141029E+02  0.90162378089E+02  0.00000000000E+00 0. -1.
         21    1    1    2  506  501  0.22129597283E+02 -0.28549253663E+02  0.11460463848E+04  0.11466154958E+04  0.00000000000E+00 0. -1.
<scales pt_clust_3="54.08019" pt_clust_4="73.64901" pt_clust_5="14000.00000" pt_clust_6="36.12172"></scales>
<clustering>
<clus scale="   36.122">  1  6  2 -1</clus>
<clus scale="   54.080">  1  3  2 -1</clus>
<clus scale="   73.649">  1  4  2 -1</clus>
<clus scale="   36.122">  1  3  2 -1</clus>
</clustering>
</event>
<event>
 6    0  0.1344929E+003  0.6267192E+02  0.7546771E-02  0.1386949E+00
         21   -1    0    0  503  501  0.00000000000E+00  0.00000000000E+00  0.42457695192E+02  0.42457695192E+02  0.00000000000E+00 0. -1.
         21   -1    0    0  504  502 -0.00000000000E+00 -0.00000000000E+00 -0.27886556072E+04  0.27886556072E+04  0.00000000000E+00 0. -1.
         21    1    1    2  503  506  0.34336920429E+02  0.47090337315E+02 -0.96350906654E-01  0.58279784287E+02  0.00000000000E+00 0. -1.
         21    1    1    2  504  505 -0.15953706781E+02  0.50970932084E+02 -0.20932303246E+04  0.20939115904E+04  0.00000000000E+00 0. -1.
         21    1    1    2  505  501  0.54136424453E+02  0.10804398021E+02 -0.21022045197E+03  0.21734793741E+03  0.00000000000E+00 0. -1.
         21    1    1    2  506  502 -0.72519638101E+02 -0.10886566742E+03 -0.44265078457E+03  0.46157399031E+03  0.00000000000E+00 0. -1.
<scales pt_clust_3="14000.00000" pt_clust_4="53.40933" pt_clust_5="55.90004" pt_clust_6="62.67192"></scales>
<clustering>
<clus scale="   53.409">  2  4  1 -1</clus>
<clus scale="   55.900">  2  5  1 -1</clus>
<clus scale="   62.672">  2  6  1 -1</clus>
<clus scale="   62.672">  1  3  2 -1</clus>
</clustering>
</event>
<event>
 6    0  0.1344929E+003  0.1005196E+03  0.7546771E-02  0.1279207E+00
         21   -1    0    0  505  501  0.00000000000E+00  0.00000000000E+00  0.86327860224E+02  0.86327860224E+02  0.00000000000E+00 0. -1.
         21   -1    0    0  503  502 -0.00000000000E+00 -0.00000000000E+00 -0.16075512441E+04  0.16075512441E+04  0.00000000000E+00 0. -1.
         21    1    1    2  503  504  0.51813283836E+02 -0.59081809007E+02 -0.13840683142E+04  0.13862973617E+04  0.00000000000E+00 0. -1.
         21    1    1    2  504  506 -0.83032678864E+02 -0.42948808484E+02 -0.47327942123E+02  0.10478053261E+03  0.00000000000E+00 0. -1.
         21    1    1    2  505  502  0.61976572705E+02  0.93492794768E+02 -0.11611797477E+03  0.16144776958E+03  0.00000000000E+00 0.  1.
         21    1    1    2  506  501 -0.30757177678E+02  0.85378227227E+01  0.26290847192E+02  0.41353440506E+02  0.00000000000E+00 0.  1.
<scales pt_clust_3="78.01709" pt_clust_4="100.51962" pt_clust_5="14000.00000" pt_clust_6="31.92019"></scales>
<clustering>
<clus scale="   31.920">  1  6  2 -1</clus>
<clus scale="   78.017">  2  3  1 -1</clus>
<clus scale="  100.520">  1  4  2 -1</clus>
<clus scale="   31.920">  1  3  2 -1</clus>
</clustering>
</event>
<event>
 6    0  0.1344929E+003  0.7048986E+02  0.7546771E-02  0.1358435E+00
         21   -1    0    0  506  501  0.00000000000E+00  0.00000000000E+00  0.26777316562E+03  0.26777316562E+03  0.00000000000E+00 0.  1.
         21   -1    0    0  504  502 -0.00000000000E+00 -0.00000000000E+00 -0.39711202451E+03  0.39711202451E+03  0.00000000000E+00 0.  1.
         21    1    1    2  503  501  0.69006719082E+02  0.87350913074E+01  0.21099304175E+03  0.22216276188E+03  0.00000000000E+00 0.  1.
         21    1    1    2  504  505 -0.44631859521E+02  0.12490667677E+02 -0.22754092087E+03  0.23221302792E+03  0.00000000000E+00 0.  1.
         21    1    1    2  505  503 -0.72197969174E+02 -0.70743495385E+02 -0.35806680949E+02  0.10723482314E+03  0.00000000000E+00 0.  1.
         21    1    1    2  506  502  0.47823109614E+02  0.49517736401E+02 -0.76984298823E+02  0.10327457720E+03  0.00000000000E+00 0.  1.
<scales pt_clust_3="70.48986" pt_clust_4="46.34673" pt_clust_5="14000.00000" pt_clust_6="61.06536"></scales>
<clustering>
<clus scale="   46.347">  2  4  1 -1</clus>
<clus scale="   61.065">  2  6  1 -1</clus>
<clus scale="   70.490">  1  3  2 -1</clus>
<clus scale="   70.490">  1  3  2 -1</clus>
</clustering>
</event>
<event>
 6    0  0.1344929E+003  0.5960559E+02  0.7546771E-02  0.1399494E+00
         21   -1    0    0  506  501  0.00000000000E+00  0.00000000000E+00  0.36340207866E+03  0.36340207866E+03  0.00000000000E+00 0.  1.
         21   -1    0    0  504  502 -0.00000000000E+00 -0.00000000000E+00 -0.10909794532E+03  0.10909794532E+03  0.00000000000E+00 0.  1.
         21    1    1    2  503  501 -0.74531148174E+02 -0.38912644075E+02  0.16702512263E+03  0.18699325524E+03  0.00000000000E+00 0.  1.
         21    1    1    2  504  505 -0.11203011158E+02 -0.64858513377E+02  0.54003035366E+01  0.66040120342E+02  0.00000000000E+00 0.  1.
         21    1    1    2  505  503  0.63135783153E+02  0.51733147683E+02 -0.35566848738E+02  0.89036208436E+02  0.00000000000E+00 0.  1.
         21    1    1    2  506  502  0.22598376178E+02  0.52038009769E+02  0.11744555591E+03  0.13043043996E+03  0.00000000000E+00 0. -1.
<scales pt_clust_3="14000.00000" pt_clust_4="57.63082" pt_clust_5="59.60559" pt_clust_6="56.73307"></scales>
<clustering>
<clus scale="   56.733">  1  6  2 -1</clus>
<clus scale="   57.631">  2  4  1 -1</clus>
<clus scale="   59.606">  2  5  1 -1</clus>
<clus scale="   56.733">  1  3  2 -1</clus>
</clustering>
</event>
<event>
 6    0  0.1344929E+003  0.7225253E+02  0.7546771E-02  0.1352597E+00
         21   -1    0    0  506  501  0.00000000000E+00  0.00000000000E+00  0.21834789568E+03  0.21834789568E+03  0.00000000000E+00 0. -1.
         21   -1    0    0  504  502 -0.00000000000E+00 -0.00000000000E+00 -0.18365973701E+03  0.18365973701E+03  0.00000000000E+00 0. -1.
         21    1    1    2  503  502  0.23321976301E+02  0.39829565079E+02 -0.15877265573E+02  0.48809798146E+02  0.00000000000E+00 0. -1.
         21    1    1    2  504  505  0.33725766033E+02 -0.50051721712E+02 -0.58433069713E+02  0.84006105593E+02  0.00000000000E+00 0. -1.
         21    1    1    2  505  501 -0.10288994648E+03  0.30269443026E+02 -0.38100253265E+02  0.11381656104E+03  0.00000000000E+00 0. -1.
         21    1    1    2  506  503  0.45842204145E+02 -0.20047286393E+02  0.14709874721E+03  0.15537516791E+03  0.00000000000E+00 0. -1.
<scales pt_clust_3="46.15527" pt_clust_4="72.25253" pt_clust_5="14000.00000" pt_clust_6="50.19759"></scales>
<clustering>
<clus scale="   46.155">  2  3  1 -1</clus>
<clus scale="   50.198">  1  6  2 -1</clus>
<clus scale="   72.253">  2  4  1 -1</clus>
<clus scale="   50.198">  1  3  2 -1</clus>
</clustering>
</event>
<event>
 6    0  0.1344929E+003  0.1266227E+03  0.7546771E-02  0.1232555E+00
         21   -1    0    0  505  501  0.00000000000E+00  0.00000000000E+00  0.17542712462E+03  0.17542712462E+03  0.00000000000E+00 0.  1.
         21   -1    0    0  504  502 -0.00000000000E+00 -0.00000000000E+00 -0.35663511596E+03  0.35663511596E+03  0.00000000000E+00 0.  1.
         21    1    1    2  503  502  0.69882994148E+02 -0.63310861346E+00  0.11106600031E+02  0.70762915866E+02  0.00000000000E+00 0.  1.
         21    1    1    2  504  506 -0.11315433572E+03  0.22891950477E+02 -0.28674844350E+03  0.30911586005E+03  0.00000000000E+00 0.  1.
         21    1    1    2  505  503  0.35017158274E+02  0.40822150619E+02  0.29777912024E+02  0.61476608554E+02  0.00000000000E+00 0.  1.
         21    1    1    2  506  501  0.82541832970E+01 -0.63080992483E+02  0.64655940096E+02  0.90706856104E+02  0.00000000000E+00 0.  1.
<scales pt_clust_3="49.59865" pt_clust_4="113.29940" pt_clust_5="49.59865" pt_clust_6="63.61873"></scales>
<clustering>
<clus scale="   49.599">  3  5 -1 -1</clus>
<clus scale="   63.619">  1  6  2 -1</clus>
<clus scale="  113.299">  2  4  1 -1</clus>
<clus scale="   63.619">  1  3  2 -1</clus>
</clustering>
</event>
<event>
 6    0  0.1344929E+003  0.1107329E+03  0.7546771E-02  0.1259219E+00
         21   -1    0    0  506  501  0.00000000000E+00  0.00000000000E+00  0.77948845549E+03  0.77948845549E+03  0.00000000000E+00 0. -1.
         21   -1    0    0  505  502 -0.00000000000E+00 -0.00000000000E+00 -0.67959804081E+03  0.67959804081E+03  0.00000000000E+00 0. -1.
         21    1    1    2  503  501  0.53755008185E+02 -0.59704115996E+02  0.55914417298E+03  0.56488617309E+03  0.00000000000E+00 0. -1.
         21    1    1    2  504  503  0.27794884102E+02  0.10247762162E+03 -0.26146289036E+03  0.28220039254E+03  0.00000000000E+00 0. -1.
         21    1    1    2  505  504 -0.73324739217E+02 -0.93320034316E+02 -0.39282127225E+03  0.41035801213E+03  0.00000000000E+00 0. -1.
         21    1    1    2  506  502 -0.82251530699E+01  0.50546528694E+02  0.19503040432E+03  0.20164191854E+03  0.00000000000E+00 0. -1.
<scales pt_clust_3="47.06189" pt_clust_4="110.73293" pt_clust_5="14000.00000" pt_clust_6="51.21137"></scales>
<clustering>
<clus scale="   51.211">  1  6  2 -1</clus>
<clus scale="   47.062">  1  3  2 -1</clus>
<clus scale="  110.733">  1  4  2 -1</clus>
<clus scale="   51.211">  1  3  2 -1</clus>
</clustering>
</event>
<event>
 6    0  0.1344929E+003  0.8446039E+02  0.7546771E-02  0.1316850E+00
         21   -1    0    0  503  501  0.00000000000E+00  0.00000000000E+00  0.13065823621E+04  0.13065823621E+04  0.00000000000E+00 0. -1.
         21   -1    0    0  505  502 -0.00000000000E+00 -0.00000000000E+00 -0.70132154634E+02  0.70132154634E+02  0.00000000000E+00 0. -1.
         21    1    1    2  503  504  0.37231115983E+02  0.28162670166E+02  0.86230348631E+03  0.86356620735E+03  0.00000000000E+00 0. -1.
         21    1    1    2  504  502 -0.23786105688E+02  0.25654385839E+02 -0.41584509470E+02  0.54343332290E+02  0.00000000000E+00 0. -1.
         21    1    1    2  505  506  0.72795920486E+02 -0.72440985741E+02  0.18200272591E+03  0.20897831154E+03  0.00000000000E+00 0.  1.
         21    1    1    2  506  501 -0.86240930781E+02  0.18623929736E+02  0.23372850467E+03  0.24982666551E+03  0.00000000000E+00 0.  1.
<scales pt_clust_3="46.59394" pt_clust_4="34.98466" pt_clust_5="14000.00000" pt_clust_6="84.46039"></scales>
<clustering>
<clus scale="   34.985">  2  4  1 -1</clus>
<clus scale="   46.594">  1  3  2 -1</clus>
<clus scale="   84.460">  1  6  2 -1</clus>
<clus scale="   46.594">  1  3  2 -1</clus>
</clustering>
</event>
<event>
 6    0  0.1344929E+003  0.8790057E+02  0.7546771E-02  0.1308017E+00
         21   -1    0    0  504  501  0.00000000000E+00  0.00000000000E+00  0.46979268770E+03  0.46979268770E+03  0.00000000000E+00 0.  1.
         21   -1    0    0  503  502 -0.00000000000E+00 -0.00000000000E+00 -0.12709620475E+04  0.12709620475E+04  0.00000000000E+00 0.  1.
         21    1    1    2  503  506 -0.27707948347E+02  0.25222874136E+02 -0.10864855673E+04  0.10871314602E+04  0.00000000000E+00 0.  1.
         21    1    1    2  504  505 -0.95965248537E+02  0.13280090328E+02  0.33747769995E+03  0.35110808548E+03  0.00000000000E+00 0.  1.
         21    1    1    2  505  502  0.53403491009E+02 -0.78585313009E+02 -0.14876160778E+03  0.17651515579E+03  0.00000000000E+00 0. -1.
         21    1    1    2  506  501  0.70269705875E+02  0.40082348544E+02  0.96600115320E+02  0.12600003376E+03  0.00000000000E+00 0.  1.
<scales pt_clust_3="37.46897" pt_clust_4="87.90057" pt_clust_5="63.30750" pt_clust_6="14000.00000"></scales>
<clustering>
<clus scale="   37.469">  2  3  1 -1</clus>
<clus scale="   63.308">  2  5  1 -1</clus>
<clus scale="   87.901">  1  4  2 -1</clus>
<clus scale="   87.901">  1  3  2 -1</clus>
</clustering>
</event>
<event>
 6    0  0.1344929E+003  0.6252879E+02  0.7546771E-02  0.1387516E+00
         21   -1    0    0  506  501  0.00000000000E+00  0.00000000000E+00  0.45101044410E+03  0.45101044410E+03  0.00000000000E+00 0.  1.
         21   -1    0    0  503  502 -0.00000000000E+00 -0.00000000000E+00 -0.49212714437E+03  0.49212714437E+03  0.00000000000E+00 0. -1.
         21    1    1    2  503  501 -0.37433262421E+01 -0.50270944371E+02 -0.22502346909E+03  0.23060082823E+03  0.00000000000E+00 0.  1.
         21    1    1    2  504  502 -0.50014190778E+02  0.81323335145E+02 -0.24557824434E+03  0.26348354448E+03  0.00000000000E+00 0. -1.
         21    1    1    2  505  504  0.66552926526E+02  0.18219392318E+02  0.33180865302E+03  0.33890739223E+03  0.00000000000E+00 0.  1.
         21    1    1    2  506  505 -0.12795409506E+02 -0.49271783093E+02  0.97676360138E+02  0.11014582354E+03  0.00000000000E+00 0.  1.
<scales pt_clust_3="50.41012" pt_clust_4="14000.00000" pt_clust_5="62.52879" pt_clust_6="52.07646"></scales>
<clustering>
<clus scale="   50.410">  2  3  1 -1</clus>
<clus scale="   52.076">  1  6  2 -1</clus>
<clus scale="   62.529">  1  5  2 -1</clus>
<clus scale="   52.076">  1  3  2 -1</clus>
</clustering>
</event>
<event>
 6    0  0.1344929E+003  0.1739517E+03  0.7546771E-02  0.1173788E+00
         21   -1    0    0  503  501  0.00000000000E+00  0.00000000000E+00  0.46094887342E+03  0.46094887342E+03  0.00000000000E+00 0. -1.
         21   -1    0    0  506  502 -0.00000000000E+00 -0.00000000000E+00 -0.16884084945E+03  0.16884084945E+03  0.00000000000E+00 0.  1.
         21    1    1    2  503  505  0.43611782437E+02 -0.19009887431E+02  0.18502627964E+03  0.19104472656E+03  0.00000000000E+00 0. -1.
         21    1    1    2  504  502 -0.11007255010E+03  0.78123636252E+02 -0.37251858156E+02  0.14002488980E+03  0.00000000000E+00 0.  1.
         21    1    1    2  505  504  0.94065321408E+02 -0.76161838149E+02  0.20030094823E+03  0.23402858831E+03  0.00000000000E+00 0. -1.
         21    1    1    2  506  501 -0.27604553740E+02  0.17048089329E+02 -0.55967345755E+02  0.64691518206E+02  0.00000000000E+00 0. -1.
<scales pt_clust_3="41.09563" pt_clust_4="161.43600" pt_clust_5="41.09563" pt_clust_6="32.44455"></scales>
<clustering>
<clus scale="   32.445">  2  6  1 -1</clus>
<clus scale="   41.096">  3  5 -1 -1</clus>
<clus scale="  161.436">  2  4  1 -1</clus>
<clus scale="  173.952">  1  3  2 -1</clus>
</clustering>
</event>
<event>
 6    0  0.1344929E+003  0.1442073E+03  0.7546771E-02  0.1207777E+00
         21   -1    0    0  503  501  0.00000000000E+00  0.00000000000E+00  0.54476450529E+03  0.54476450529E+03  0.00000000000E+00 0. -1.
         21   -1    0    0  504  502 -0.00000000000E+00 -0.00000000000E+00 -0.32385547159E+03  0.32385547159E+03  0.00000000000E+00 0.  1.
         21    1    1    2  503  506  0.19150148032E+02 -0.50829058309E+02  0.27455157152E+02  0.60861375211E+02  0.00000000000E+00 0.  1.
         21    1    1    2  504  505 -0.10320689992E+03 -0.48438865555E+02  0.54269156954E+02  0.12626610504E+03  0.00000000000E+00 0.  1.
         21    1    1    2  505  501 -0.33210300997E+02  0.24297302743E+01  0.38824493059E+03  0.38967031425E+03  0.00000000000E+00 0. -1.
         21    1    1    2  506  502  0.11726705288E+03  0.96838193590E+02 -0.24906021099E+03  0.29182218238E+03  0.00000000000E+00 0.  1.
<scales pt_clust_3="51.07727" pt_clust_4="14000.00000" pt_clust_5="33.29906" pt_clust_6="144.20732"></scales>
<clustering>
<clus scale="   33.299">  1  5  2 -1</clus>
<clus scale="   51.077">  1  3  2 -1</clus>
<clus scale="  144.207">  2  6  1 -1</clus>
<clus scale="   33.299">  1  3  2 -1</clus>
</clustering>
</event>
<event>
 6    0  0.1344929E+003  0.7132956E+02  0.7546771E-02  0.1355629E+00
         21   -1    0    0  503  501  0.00000000000E+00  0.00000000000E+00  0.74438969972E+03  0.74438969972E+03  0.00000000000E+00 0.  1.
         21   -1    0    0  505  502 -0.00000000000E+00 -0.00000000000E+00 -0.17141105377E+03  0.17141105377E+03  0.00000000000E+00 0.  1.
         21    1    1    2  503  504 -0.50588843751E+02  0.33703439075E+02  0.29270222795E+03  0.29894773316E+03  0.00000000000E+00 0.  1.
         21    1    1    2  504  506 -0.75079617092E+01 -0.10265065910E+03  0.10739876776E+03  0.14875490789E+03  0.00000000000E+00 0.  1.
         21    1    1    2  505  501  0.35684213250E+02  0.37839031184E+02  0.31583479243E+03  0.32008869313E+03  0.00000000000E+00 0.  1.
         21    1    1    2  506  502  0.22412592210E+02  0.31108188844E+02 -0.14295714219E+03  0.14800941932E+03  0.00000000000E+00 0.  1.
<scales pt_clust_3="14000.00000" pt_clust_4="71.32956" pt_clust_5="55.13066" pt_clust_6="38.34115"></scales>
<clustering>
<clus scale="   38.341">  2  6  1 -1</clus>
<clus scale="   55.131">  1  5  2 -1</clus>
<clus scale="   71.330">  2  4  1 -1</clus>
<clus scale="   55.131">  1  3  2 -1</clus>
</clustering>
</event>
<event>
 6    0  0.1344929E+003  0.6143589E+02  0.7546771E-02  0.1391903E+00
         21   -1    0    0  506  501  0.00000000000E+00  0.00000000000E+00  0.73693667540E+03  0.73693667540E+03  0.00000000000E+00 0.  1.
         21   -1    0    0  503  502 -0.00000000000E+00 -0.00000000000E+00 -0.13923252264E+03  0.13923252264E+03  0.00000000000E+00 0.  1.
         21    1    1    2  503  504 -0.95313370452E+02  0.15790942293E+02 -0.87364697839E+02  0.13025583624E+03  0.00000000000E+00 0.  1.
         21    1    1    2  504  501  0.54883899550E+02 -0.70967465000E+02  0.56312543374E+03  0.57022704044E+03  0.00000000000E+00 0.  1.
         21    1    1    2  505  502  0.47921577229E+02  0.17720967175E+02  0.34738978806E+01  0.51211114108E+02  0.00000000000E+00 0.  1.
         21    1    1    2  506  505 -0.74921063268E+01  0.37455555532E+02  0.11846951897E+03  0.12447520726E+03  0.00000000000E+00 0.  1.
<scales pt_clust_3="14000.00000" pt_clust_4="61.43589" pt_clust_5="51.38545" pt_clust_6="38.19752"></scales>
<clustering>
<clus scale="   38.198">  1  6  2 -1</clus>
<clus scale="   51.385">  2  5  1 -1</clus>
<clus scale="   61.436">  1  4  2 -1</clus>
<clus scale="   38.198">  1  3  2 -1</clus>
</clustering>
</event>
<event>
 6    0  0.1344929E+003  0.7342383E+02  0.7546771E-02  0.1348823E+00
         21   -1    0    0  505  501  0.00000000000E+00  0.00000000000E+00  0.13489185302E+03  0.13489185302E+03  0.00000000000E+00 0. -1.
         21   -1    0    0  506  502 -0.00000000000E+00 -0.00000000000E+00 -0.26687889779E+03  0.26687889779E+03  0.00000000000E+00 0. -1.
         21    1    1    2  503  502  0.53743966909E+01  0.66285330060E+02 -0.10323930531E+03  0.12280465497E+03  0.00000000000E+00 0. -1.
         21    1    1    2  504  501  0.69236745461E+02  0.10535822145E+01 -0.47690555072E+02  0.84078689336E+02  0.00000000000E+00 0. -1.
         21    1    1    2  505  503 -0.49507018994E+02  0.24162975334E+02  0.68450363338E+02  0.87864933550E+02  0.00000000000E+00 0. -1.
         21    1    1    2  506  504 -0.25104123158E+02 -0.91501887609E+02 -0.49507547730E+02  0.10702247296E+03  0.00000000000E+00 0. -1.
<scales pt_clust_3="73.42383" pt_clust_4="54.08152" pt_clust_5="55.08897" pt_clust_6="14000.00000"></scales>
<clustering>
<clus scale="   55.089">  1  5  2 -1</clus>
<clus scale="   54.082">  1  4  2 -1</clus>
<clus scale="   73.424">  2  3  1 -1</clus>
<clus scale="   55.089">  1  3  2 -1</clus>
</clustering>
</event>
<event>
 6    0  0.1344929E+003  0.1383878E+03  0.7546771E-02  0.1215515E+00
         21   -1    0    0  506  501  0.00000000000E+00  0.00000000000E+00  0.35707775781E+03  0.35707775781E+03  0.00000000000E+00 0. -1.
         21   -1    0    0  504  502 -0.00000000000E+00 -0.00000000000E+00 -0.25455691431E+03  0.25455691431E+03  0.00000000000E+00 0. -1.
         21    1    1    2  503  502  0.42814112790E+02 -0.32237251229E+02  0.41076488140E+01  0.53750919988E+02  0.00000000000E+00 0. -1.
         21    1    1    2  504  505  0.28321231695E+02  0.30618194768E+02 -0.15460186728E+03  0.16012902105E+03  0.00000000000E+00 0. -1.
         21    1    1    2  505  501 -0.12987777963E+03  0.10689202361E+01  0.29713835774E+03  0.32428472655E+03  0.00000000000E+00 0. -1.
         21    1    1    2  506  503  0.58742435141E+02  0.55013622494E+00 -0.44123295775E+02  0.73470004534E+02  0.00000000000E+00 0. -1.
<scales pt_clust_3="48.21529" pt_clust_4="41.70810" pt_clust_5="126.03599" pt_clust_6="48.21529"></scales>
<clustering>
<clus scale="   41.708">  2  4  1 -1</clus>
<clus scale="   48.215">  3  6 -1 -1</clus>
<clus scale="  126.036">  1  5  2 -1</clus>
<clus scale="  126.036">  1  3  2 -1</clus>
</clustering>
</event>
<event>
 6    0  0.1344929E+003  0.1346458E+03  0.7546771E-02  0.1220721E+00
         21   -1    0    0  506  501  0.00000000000E+00  0.00000000000E+00  0.77790593442E+03  0.77790593442E+03  0.00000000000E+00 0.  1.
         21   -1    0    0  503  502 -0.00000000000E+00 -0.00000000000E+00 -0.23284679181E+03  0.23284679181E+03  0.00000000000E+00 0.  1.
         21    1    1    2  503  505  0.82501174684E+01 -0.40742735763E+02 -0.15734975936E+02  0.44447996843E+02  0.00000000000E+00 0.  1.
         21    1    1    2  504  502  0.69728775978E+02  0.15078281768E+03 -0.14559573661E+03  0.22089743960E+03  0.00000000000E+00 0.  1.
         21    1    1    2  505  501 -0.67971280912E+02 -0.14523921350E+02  0.59699761894E+02  0.91624783168E+02  0.00000000000E+00 0.  1.
         21    1    1    2  506  504 -0.10007612533E+02 -0.95516160562E+02  0.64669009326E+03  0.65378250661E+03  0.00000000000E+00 0.  1.
<scales pt_clust_3="41.56964" pt_clust_4="14000.00000" pt_clust_5="69.61772" pt_clust_6="134.64583"></scales>
<clustering>
<clus scale="   41.570">  2  3  1 -1</clus>
<clus scale="   69.618">  1  5  2 -1</clus>
<clus scale="  134.646">  1  6  2 -1</clus>
<clus scale="   69.618">  1  3  2 -1</clus>
</clustering>
</event>
<event>
 6    0  0.1344929E+003  0.7633219E+02  0.7546771E-02  0.1339795E+00
         21   -1    0    0  503  501  0.00000000000E+00  0.00000000000E+00  0.86914127639E+03  0.86914127639E+03  0.00000000000E+00 0. -1.
         21   -1    0    0  506  502 -0.00000000000E+00 -0.00000000000E+00 -0.46149990115E+03  0.46149990115E+03  0.00000000000E+00 0.  1.
         21    1    1    2  503  502 -0.33304340124E+02  0.63793247868E+02  0.16366088935E+03  0.17878379190E+03  0.00000000000E+00 0. -1.
         21    1    1    2  504  505 -0.45674854219E+02 -0.12389439688E+03  0.38835528956E+03  0.41019001063E+03  0.00000000000E+00 0. -1.
         21    1    1    2  505  501  0.37857628757E+02 -0.36973201864E+01  0.29416161370E+03  0.29661073009E+03  0.00000000000E+00 0. -1.
         21    1    1    2  506  504  0.41121565586E+02  0.63798469199E+02 -0.43853641737E+03  0.44505664492E+03  0.00000000000E+00 0.  1.
<scales pt_clust_3="66.44032" pt_clust_4="76.33219" pt_clust_5="38.03775" pt_clust_6="14000.00000"></scales>
<clustering>
<clus scale="   38.038">  1  5  2 -1</clus>
<clus scale="   66.440">  1  3  2 -1</clus>
<clus scale="   76.332">  1  4  2 -1</clus>
<clus scale="   38.038">  1  3  2 -1</clus>
</clustering>
</event>
<event>
 6    0  0.1344929E+003  0.1372944E+03  0.7546771E-02  0.1217017E+00
         21   -1    0    0  503  501  0.00000000000E+00  0.00000000000E+00  0.14893197291E+03  0.14893197291E+03  0.00000000000E+00 0.  1.
         21   -1    0    0  505  502 -0.00000000000E+00 -0.00000000000E+00 -0.38285287390E+03  0.38285287390E+03  0.00000000000E+00 0. -1.
         21    1    1    2  503  504 -0.93582916118E+02 -0.62493235155E+02  0.42822477215E+01  0.11261218529E+03  0.00000000000E+00 0.  1.
         21    1    1    2  504  502  0.86346313509E+01 -0.44766090075E+02 -0.65302968635E+02  0.79643187981E+02  0.00000000000E+00 0. -1.
         21    1    1    2  505  506  0.10325338355E+03  0.13308084813E+03 -0.22348862103E+03  0.27985520735E+03  0.00000000000E+00 0. -1.
         21    1    1    2  506  501 -0.18305098784E+02 -0.25821522903E+02  0.50588440961E+02  0.59674266190E+02  0.00000000000E+00 0.  1.
<scales pt_clust_3="137.29437" pt_clust_4="47.29659" pt_clust_5="14000.00000" pt_clust_6="31.65166"></scales>
<clustering>
<clus scale="   31.652">  1  6  2 -1</clus>
<clus scale="   47.297">  2  4  1 -1</clus>
<clus scale="  137.294">  1  3  2 -1</clus>
<clus scale="   31.652">  1  3  2 -1</clus>
</clustering>
</event>
<event>
 6    0  0.1344929E+003  0.1171396E+03  0.7546771E-02  0.1247892E+00
         21   -1    0    0  503  501  0.00000000000E+00  0.00000000000E+00  0.34596179496E+02  0.34596179496E+02  0.00000000000E+00 0. -1.
         21   -1    0    0  504  502 -0.00000000000E+00 -0.00000000000E+00 -0.59172027185E+03  0.59172027185E+03  0.00000000000E+00 0. -1.
         21    1    1    2  503  506 -0.72372788327E+02  0.29883382221E+02 -0.78787944672E+02  0.11107824832E+03  0.00000000000E+00 0. -1.
         21    1    1    2  504  501 -0.13520767325E+02  0.52661233617E+02 -0.95625264021E+02  0.11000094452E+03  0.00000000000E+00 0. -1.
         21    1    1    2  505  502  0.56756624924E+02 -0.15474701258E+02 -0.14322650203E+03  0.15483737190E+03  0.00000000000E+00 0. -1.
         21    1    1    2  506  505  0.29136930728E+02 -0.67069914580E+02 -0.23948438163E+03  0.25039988661E+03  0.00000000000E+00 0.  1.
<scales pt_clust_3="100.81361" pt_clust_4="54.36926" pt_clust_5="53.50328" pt_clust_6="53.50328"></scales>
<clustering>
<clus scale="   53.503">  5  6 -1 -1</clus>
<clus scale="   54.369">  1  4  2 -1</clus>
<clus scale="  100.814">  1  3  2 -1</clus>
<clus scale="   54.369">  1  3  2 -1</clus>
</clustering>
</event>
<event>
 6    0  0.1344929E+003  0.8411188E+02  0.7546771E-02  0.1317772E+00
         21   -1    0    0  506  501  0.00000000000E+00  0.00000000000E+00  0.47135036286E+03  0.47135036286E+03  0.00000000000E+00 0.  1.
         21   -1    0    0  503  502 -0.00000000000E+00 -0.00000000000E+00 -0.24430556311E+03  0.24430556311E+03  0.00000000000E+00 0.  1.
         21    1    1    2  503  504  0.55084569735E+02 -0.91094272490E+01 -0.38763570483E+02  0.67969889542E+02  0.00000000000E+00 0.  1.
         21    1    1    2  504  501  0.16862560131E+02  0.81747627906E+02  0.41643519134E+03  0.42471789365E+03  0.00000000000E+00 0.  1.
         21    1    1    2  505  502 -0.37399792089E+02  0.17385888906E+02 -0.11154162182E+03  0.11892244103E+03  0.00000000000E+00 0.  1.
         21    1    1    2  506  505 -0.34547337778E+02 -0.90024089563E+02 -0.39085199282E+02  0.10404570175E+03  0.00000000000E+00 0.  1.
<scales pt_clust_3="39.66780" pt_clust_4="14000.00000" pt_clust_5="41.24335" pt_clust_6="84.11188"></scales>
<clustering>
<clus scale="   41.243">  2  5  1 -1</clus>
<clus scale="   39.668">  2  3  1 -1</clus>
<clus scale="   84.112">  2  6  1 -1</clus>
<clus scale="   84.112">  1  3  2 -1</clus>
</clustering>
</event>
<event>
 6    0  0.1344929E+003  0.1020350E+03  0.7546771E-02  0.1276074E+00
         21   -1    0    0  505  501  0.00000000000E+00  0.00000000000E+00  0.16787433584E+04  0.16787433584E+04  0.00000000000E+00 0.  1.
         21   -1    0    0  504  502 -0.00000000000E+00 -0.00000000000E+00 -0.61963516571E+02  0.61963516571E+02  0.00000000000E+00 0. -1.
         21    1    1    2  503  506  0.40819136216E+02 -0.14186399964E+02  0.24251958084E+03  0.24633960891E+03  0.00000000000E+00 0. -1.
         21    1    1    2  504  503  0.46751112360E+02  0.87146679012E+02  0.10438549410E+03  0.14379339883E+03  0.00000000000E+00 0. -1.
         21    1    1    2  505  502 -0.10269442346E+03 -0.46206347125E+02  0.38788151610E+02  0.11910370200E+03  0.00000000000E+00 0. -1.
         21    1    1    2  506  501  0.15124174884E+02 -0.26753931924E+02  0.12310866153E+04  0.12314701653E+04  0.00000000000E+00 0.  1.
<scales pt_clust_3="56.90704" pt_clust_4="102.03504" pt_clust_5="14000.00000" pt_clust_6="30.73294"></scales>
<clustering>
<clus scale="   30.733">  1  6  2 -1</clus>
<clus scale="   56.907">  1  3  2 -1</clus>
<clus scale="  102.035">  1  4  2 -1</clus>
<clus scale="   30.733">  1  3  2 -1</clus>
</clustering>
</event>
<event>
 6    0  0.1344929E+003  0.7732636E+02  0.7546771E-02  0.1336815E+00
         21   -1    0    0  506  501  0.00000000000E+00  0.00000000000E+00  0.79686984208E+02  0.79686984208E+02  0.00000000000E+00 0.  1.
         21   -1    0    0  505  502 -0.00000000000E+00 -0.00000000000E+00 -0.60881349476E+03  0.60881349476E+03  0.00000000000E+00 0.  1.
         21    1    1    2  503  504  0.37252922778E+02 -0.41527990428E+02 -0.49851737241E+02  0.74816775862E+02  0.00000000000E+00 0.  1.
         21    1    1    2  504  501 -0.17891219858E+02  0.26750765403E+02  0.34806544650E+02  0.47404585728E+02  0.00000000000E+00 0.  1.
         21    1    1    2  505  503  0.74350767072E+02  0.11516056801E+02 -0.44106089086E+03  0.44743196754E+03  0.00000000000E+00 0.  1.
         21    1    1    2  506  502 -0.93712469992E+02  0.32611682240E+01 -0.73020427094E+02  0.11884714983E+03  0.00000000000E+00 0. -1.
<scales pt_clust_3="45.50444" pt_clust_4="32.18228" pt_clust_5="77.32636" pt_clust_6="14000.00000"></scales>
<clustering>
<clus scale="   32.182">  1  4  2 -1</clus>
<clus scale="   45.504">  1  3  2 -1</clus>
<clus scale="   77.326">  2  5  1 -1</clus>
<clus scale="   32.182">  1  3  2 -1</clus>
</clustering>
</event>
<event>
 6    0  0.1344929E+003  0.1158116E+03  0.7546771E-02  0.1250171E+00
         21   -1    0    0  506  501  0.00000000000E+00  0.00000000000E+00  0.22329897758E+03  0.22329897758E+03  0.00000000000E+00 0. -1.
         21   -1    0    0  503  502 -0.00000000000E+00 -0.00000000000E+00 -0.14086259266E+04  0.14086259266E+04  0.00000000000E+00 0. -1.
         21    1    1    2  503  501 -0.89719334681E+02 -0.24276467078E+02  0.16201322802E+03  0.18678113375E+03  0.00000000000E+00 0. -1.
         21    1    1    2  504  502  0.63538712886E+02  0.32227270715E+01 -0.73550758620E+03  0.73825399651E+03  0.00000000000E+00 0. -1.
         21    1    1    2  505  504  0.32810071904E+02 -0.40998762932E+02 -0.63732031491E+03  0.63947993180E+03  0.00000000000E+00 0. -1.
         21    1    1    2  506  505 -0.66294501099E+01  0.62052502939E+02  0.25487724110E+02  0.67409842086E+02  0.00000000000E+00 0. -1.
<scales pt_clust_3="103.09277" pt_clust_4="47.93780" pt_clust_5="47.93780" pt_clust_6="62.40563"></scales>
<clustering>
<clus scale="   47.938">  4  5 -1 -1</clus>
<clus scale="   62.406">  1  6  2 -1</clus>
<clus scale="  103.093">  1  3  2 -1</clus>
<clus scale="   62.406">  1  3  2 -1</clus>
</clustering>
</event>
<event>
 6    0  0.1344929E+003  0.6654242E+03  0.7546771E-02  0.9778260E-01
         21   -1    0    0  503  501  0.00000000000E+00  0.00000000000E+00  0.88955887827E+03  0.88955887827E+03  0.00000000000E+00 0. -1.
         21   -1    0    0  505  502 -0.00000000000E+00 -0.00000000000E+00 -0.11839354018E+04  0.11839354018E+04  0.00000000000E+00 0. -1.
         21    1    1    2  503  504 -0.68801598552E+03  0.23234469657E+02  0.43256020425E+03  0.81302777764E+03  0.00000000000E+00 0. -1.
         21    1    1    2  504  506  0.11058412644E+03  0.11419232487E+03 -0.50420058413E+03  0.52866526755E+03  0.00000000000E+00 0. -1.
         21    1    1    2  505  501  0.61125864385E+03 -0.13181589058E+03 -0.13795253304E+03  0.64034635945E+03  0.00000000000E+00 0. -1.
         21    1    1    2  506  502 -0.33826784768E+02 -0.56109039503E+01 -0.84783610623E+02  0.91454875436E+02  0.00000000000E+00 0. -1.
<scales pt_clust_3="14000.00000" pt_clust_4="146.28786" pt_clust_5="665.42424" pt_clust_6="34.28897"></scales>
<clustering>
<clus scale="   34.289">  2  6  1 -1</clus>
<clus scale="  146.288">  2  4  1 -1</clus>
<clus scale="  665.424">  2  5  1 -1</clus>
<clus scale="  665.424">  1  3  2 -1</clus>
</clustering>
</event>
<event>
 6    0  0.1344929E+003  0.6915935E+02  0.7546771E-02  0.1362975E+00
         21   -1    0    0  505  501  0.00000000000E+00  0.00000000000E+00  0.35470457527E+03  0.35470457527E+03  0.00000000000E+00 0.  1.
         21   -1    0    0  503  502 -0.00000000000E+00 -0.00000000000E+00 -0.71454522668E+02  0.71454522668E+02  0.00000000000E+00 0. -1.
         21    1    1    2  503  504 -0.53253892173E+02 -0.34626688342E+01 -0.81539315445E+01  0.53985680571E+02  0.00000000000E+00 0. -1.
         21    1    1    2  504  506  0.54826029492E+02  0.31020944849E+02  0.26629233217E+02  0.68390851661E+02  0.00000000000E+00 0.  1.
         21    1    1    2  505  502 -0.68103051323E+02 -0.13695201403E+01  0.76728143128E+02  0.10260170141E+03  0.00000000000E+00 0.  1.
         21    1    1    2  506  501  0.66530914004E+02 -0.26188755874E+02  0.18804660780E+03  0.20118086429E+03  0.00000000000E+00 0.  1.
<scales pt_clust_3="53.36635" pt_clust_4="39.99049" pt_clust_5="69.15935" pt_clust_6="14000.00000"></scales>
<clustering>
<clus scale="   53.366">  2  3  1 -1</clus>
<clus scale="   39.990">  2  4  1 -1</clus>
<clus scale="   69.159">  2  5  1 -1</clus>
<clus scale="   69.159">  1  3  2 -1</clus>
</clustering>
</event>
<event>
 6    0  0.1344929E+003  0.1189701E+03  0.7546771E-02  0.1244806E+00
         21   -1    0    0  505  501  0.00000000000E+00  0.00000000000E+00  0.93285339509E+03  0.93285339509E+03  0.00000000000E+00 0.  1.
         21   -1    0    0  503  502 -0.00000000000E+00 -0.00000000000E+00 -0.21927933927E+03  0.21927933927E+03  0.00000000000E+00 0. -1.
         21    1    1    2  503  504  0.13542946215E+02  0.87868066324E+02 -0.53808310393E+02  0.10392084843E+03  0.00000000000E+00 0. -1.
         21    1    1    2  504  501  0.55799822968E+02 -0.69009906141E+02  0.83822979733E+03  0.84291469350E+03  0.00000000000E+00 0.  1.
         21    1    1    2  505  506  0.30466274176E+02 -0.21496733903E+02  0.40965682797E+02  0.55393958134E+02  0.00000000000E+00 0. -1.
         21    1    1    2  506  502 -0.99809043360E+02  0.26385737199E+01 -0.11181311392E+03  0.14990323429E+03  0.00000000000E+00 0. -1.
<scales pt_clust_3="88.44037" pt_clust_4="14000.00000" pt_clust_5="37.28677" pt_clust_6="118.97010"></scales>
<clustering>
<clus scale="   37.287">  1  5  2 -1</clus>
<clus scale="   88.440">  2  3  1 -1</clus>
<clus scale="  118.970">  2  6  1 -1</clus>
<clus scale="   37.287">  1  3  2 -1</clus>
</clustering>
</event>
<event>
 6    0  0.1344929E+003  0.1248890E+03  0.7546771E-02  0.1235243E+00
         21   -1    0    0  506  501  0.00000000000E+00  0.00000000000E+00  0.45759184456E+04  0.45759184456E+04  0.00000000000E+00 0.  1.
         21   -1    0    0  503  502 -0.00000000000E+00 -0.00000000000E+00 -0.12673939134E+02  0.12673939134E+02  0.00000000000E+00 0.  1.
         21    1    1    2  503  505 -0.37525435162E+01 -0.99277020638E+02  0.17620116731E+04  0.17648102291E+04  0.00000000000E+00 0.  1.
         21    1    1    2  504  502  0.33842842286E+02 -0.10910964944E+02  0.56999214629E+02  0.67181080657E+02  0.00000000000E+00 0.  1.
         21    1    1    2  505  501 -0.46932981909E+01 -0.33911930164E+02  0.18620910441E+04  0.18624057298E+04  0.00000000000E+00 0.  1.
         21    1    1    2  506  504 -0.25397000579E+02  0.14409991575E+03  0.88214257467E+03  0.89419534521E+03  0.00000000000E+00 0.  1.
<scales pt_clust_3="124.88900" pt_clust_4="35.70244" pt_clust_5="34.23516" pt_clust_6="14000.00000"></scales>
<clustering>
<clus scale="   34.235">  1  5  2 -1</clus>
<clus scale="   35.702">  2  4  1 -1</clus>
<clus scale="  124.889">  1  3  2 -1</clus>
<clus scale="   34.235">  1  3  2 -1</clus>
</clustering>
</event>
<event>
 6    0  0.1344929E+003  0.9338467E+02  0.7546771E-02  0.1294856E+00
         21   -1    0    0  503  501  0.00000000000E+00  0.00000000000E+00  0.16479951122E+03  0.16479951122E+03  0.00000000000E+00 0. -1.
         21   -1    0    0  505  502 -0.00000000000E+00 -0.00000000000E+00 -0.56910950849E+03  0.56910950849E+03  0.00000000000E+00 0. -1.
         21    1    1    2  503  506  0.64962871576E+02 -0.23297692529E+02  0.27231299959E+02  0.74192323444E+02  0.00000000000E+00 0. -1.
         21    1    1    2  504  501 -0.12858362754E+03  0.78826841653E+02  0.51992784092E+02  0.15953266071E+03  0.00000000000E+00 0. -1.
         21    1    1    2  505  504  0.44724688242E+02 -0.20015334706E+02 -0.74454675906E+02  0.89131420532E+02  0.00000000000E+00 0. -1.
         21    1    1    2  506  502  0.18896067722E+02 -0.35513814419E+02 -0.40907940541E+03  0.41105261503E+03  0.00000000000E+00 0. -1.
<scales pt_clust_3="14000.00000" pt_clust_4="93.38467" pt_clust_5="66.55304" pt_clust_6="40.22801"></scales>
<clustering>
<clus scale="   40.228">  2  6  1 -1</clus>
<clus scale="   66.553">  2  5  1 -1</clus>
<clus scale="   93.385">  2  4  1 -1</clus>
<clus scale="   93.385">  1  3  2 -1</clus>
</clustering>
</event>
<event>
 6    0  0.1344929E+003  0.1382757E+03  0.7546771E-02  0.1215668E+00
         21   -1    0    0  503  501  0.00000000000E+00  0.00000000000E+00  0.23598691467E+03  0.23598691467E+03  0.00000000000E+00 0.  1.
         21   -1    0    0  504  502 -0.00000000000E+00 -0.00000000000E+00 -0.25550761751E+03  0.25550761751E+03  0.00000000000E+00 0.  1.
         21    1    1    2  503  506 -0.25184918900E+02 -0.57068096934E+02  0.12765905817E+03  0.14208407004E+03  0.00000000000E+00 0.  1.
         21    1    1    2  504  505  0.71858882974E+02  0.30874853417E+02 -0.14975868975E+02  0.79631854728E+02  0.00000000000E+00 0.  1.
         21    1    1    2  505  501  0.80778742931E+02  0.48874826165E+01  0.52807476167E+01  0.81098576383E+02  0.00000000000E+00 0.  1.
         21    1    1    2  506  502 -0.12745270701E+03  0.21305760900E+02 -0.13748463965E+03  0.18868003103E+03  0.00000000000E+00 0.  1.
<scales pt_clust_3="62.37826" pt_clust_4="33.52699" pt_clust_5="33.52699" pt_clust_6="134.00400"></scales>
<clustering>
<clus scale="   33.527">  4  5 -1 -1</clus>
<clus scale="   62.378">  1  3  2 -1</clus>
<clus scale="  134.004">  2  6  1 -1</clus>
<clus scale="   62.378">  1  3  2 -1</clus>
</clustering>
</event>
<event>
 6    0  0.1344929E+003  0.1075893E+03  0.7546771E-02  0.1265100E+00
         21   -1    0    0  503  501  0.00000000000E+00  0.00000000000E+00  0.10004827521E+04  0.10004827521E+04  0.00000000000E+00 0.  1.
         21   -1    0    0  506  502 -0.00000000000E+00 -0.00000000000E+00 -0.45003417637E+02  0.45003417637E+02  0.00000000000E+00 0.  1.
         21    1    1    2  503  505 -0.35464550366E+02  0.12391816406E+03  0.29010900582E+03  0.31745343119E+03  0.00000000000E+00 0.  1.
         21    1    1    2  504  501  0.36491852942E+00 -0.54154536207E+02  0.42497655341E+03  0.42841325598E+03  0.00000000000E+00 0.  1.
         21    1    1    2  505  502  0.23775178807E+02  0.23949559452E+02 -0.73185708799E+01  0.34531174393E+02  0.00000000000E+00 0.  1.
         21    1    1    2  506  504  0.11324453029E+02 -0.93713187302E+02  0.24771234612E+03  0.26508830817E+03  0.00000000000E+00 0.  1.
<scales pt_clust_3="107.58929" pt_clust_4="52.48590" pt_clust_5="33.74671" pt_clust_6="14000.00000"></scales>
<clustering>
<clus scale="   33.747">  2  5  1 -1</clus>
<clus scale="   52.486">  1  4  2 -1</clus>
<clus scale="  107.589">  1  3  2 -1</clus>
<clus scale="   52.486">  1  3  2 -1</clus>
</clustering>
</event>
<event>
 6    0  0.1344929E+003  0.9433830E+02  0.7546771E-02  0.1292673E+00
         21   -1    0    0  503  501  0.00000000000E+00  0.00000000000E+00  0.73722965946E+03  0.73722965946E+03  0.00000000000E+00 0.  1.
         21   -1    0    0  505  502 -0.00000000000E+00 -0.00000000000E+00 -0.86818584183E+02  0.86818584183E+02  0.00000000000E+00 0. -1.
         21    1    1    2  503  506  0.69519705690E+02 -0.26663232175E+02  0.24813402652E+03  0.25906449496E+03  0.00000000000E+00 0.  1.
         21    1    1    2  504  502 -0.71348514843E+02  0.15465712173E+02 -0.55159295972E+02  0.91500528716E+02  0.00000000000E+00 0. -1.
         21    1    1    2  505  501 -0.12359748566E+02  0.62538271881E+02  0.31562645279E+03  0.32199977722E+03  0.00000000000E+00 0.  1.
         21    1    1    2  506  504  0.14188557719E+02 -0.51340751878E+02  0.14180989194E+03  0.15148344275E+03  0.00000000000E+00 0. -1.
<scales pt_clust_3="49.33021" pt_clust_4="74.14891" pt_clust_5="63.74793" pt_clust_6="49.33021"></scales>
<clustering>
<clus scale="   49.330">  3  6 -1 -1</clus>
<clus scale="   63.748">  1  5  2 -1</clus>
<clus scale="   74.149">  2  4  1 -1</clus>
<clus scale="   63.748">  1  3  2 -1</clus>
</clustering>
</event>
<event>
 6    0  0.1344929E+003  0.1623428E+03  0.7546771E-02  0.1186077E+00
         21   -1    0    0  503  501  0.00000000000E+00  0.00000000000E+00  0.12250333793E+03  0.12250333793E+03  0.00000000000E+00 0. -1.
         21   -1    0    0  504  502 -0.00000000000E+00 -0.00000000000E+00 -0.72856712233E+03  0.72856712233E+03  0.00000000000E+00 0.  1.
         21    1    1    2  503  505 -0.44328821381E+02  0.11510474057E+02 -0.52288732701E+01  0.46096383087E+02  0.00000000000E+00 0. -1.
         21    1    1    2  504  501  0.43225480675E+02 -0.12325702898E+03 -0.34184972231E+03  0.36595350800E+03  0.00000000000E+00 0.  1.
         21    1    1    2  505  506 -0.82265858589E+02  0.88395267477E+02  0.40427969269E+02  0.12734133461E+03  0.00000000000E+00 0. -1.
         21    1    1    2  506  502  0.83369199295E+02  0.23351287445E+02 -0.29941315809E+03  0.31167923455E+03  0.00000000000E+00 0.  1.
<scales pt_clust_3="32.78688" pt_clust_4="153.36525" pt_clust_5="32.78688" pt_clust_6="86.57775"></scales>
<clustering>
<clus scale="   32.787">  3  5 -1 -1</clus>
<clus scale="   86.578">  2  6  1 -1</clus>
<clus scale="  153.365">  2  4  1 -1</clus>
<clus scale="  162.343">  1  3  2 -1</clus>
</clustering>
</event>
<event>
 6    0  0.1344929E+003  0.6879802E+02  0.7546771E-02  0.1364229E+00
         21   -1    0    0  504  501  0.00000000000E+00  0.00000000000E+00  0.27438920462E+03  0.27438920462E+03  0.00000000000E+00 0. -1.
         21   -1    0    0  503  502 -0.00000000000E+00 -0.00000000000E+00 -0.10908087762E+03  0.10908087762E+03  0.00000000000E+00 0. -1.
         21    1    1    2  503  506  0.88329506846E+02 -0.10691077238E+01 -0.13085252205E+02  0.89299880158E+02  0.00000000000E+00 0. -1.
         21    1    1    2  504  502 -0.31925266962E+02  0.33427454901E+02  0.34556538700E+01  0.46352550690E+02  0.00000000000E+00 0. -1.
         21    1    1    2  505  501 -0.23475854870E+02  0.37857861083E+02  0.16345753712E+03  0.16941871163E+03  0.00000000000E+00 0. -1.
         21    1    1    2  506  505 -0.32928385014E+02 -0.70216208260E+02  0.11480388214E+02  0.78398939761E+02  0.00000000000E+00 0. -1.
<scales pt_clust_3="68.79802" pt_clust_4="56.31983" pt_clust_5="44.54586" pt_clust_6="14000.00000"></scales>
<clustering>
<clus scale="   44.546">  1  5  2 -1</clus>
<clus scale="   56.320">  2  4  1 -1</clus>
<clus scale="   68.798">  2  3  1 -1</clus>
<clus scale="   44.546">  1  3  2 -1</clus>
</clustering>
</event>
<event>
 6    0  0.1344929E+003  0.9269474E+02  0.7546771E-02  0.1296454E+00
         21   -1    0    0  505  501  0.00000000000E+00  0.00000000000E+00  0.11317453550E+03  0.11317453550E+03  0.00000000000E+00 0. -1.
         21   -1    0    0  504  502 -0.00000000000E+00 -0.00000000000E+00 -0.10683007358E+04  0.10683007358E+04  0.00000000000E+00 0. -1.
         21    1    1    2  503  501  0.54915807898E+02 -0.31725975144E+02 -0.24659040365E+02  0.68046687852E+02  0.00000000000E+00 0. -1.
         21    1    1    2  504  503 -0.72578072111E+01 -0.31496101994E+02 -0.91054647209E+02  0.96621058702E+02  0.00000000000E+00 0. -1.
         21    1    1    2  505  506 -0.13050414374E+02 -0.59806427261E+02  0.73124641622E+02  0.95364224263E+02  0.00000000000E+00 0. -1.
         21    1    1    2  506  502 -0.34607586313E+02  0.12302850440E+03 -0.91253715436E+03  0.92144330049E+03  0.00000000000E+00 0. -1.
<scales pt_clust_3="14000.00000" pt_clust_4="32.32151" pt_clust_5="61.58254" pt_clust_6="92.69474"></scales>
<clustering>
<clus scale="   32.322">  2  4  1 -1</clus>
<clus scale="   61.583">  1  5  2 -1</clus>
<clus scale="   92.695">  2  6  1 -1</clus>
<clus scale="   61.583">  1  3  2 -1</clus>
</clustering>
</event>
<event>
 6    0  0.1344929E+003  0.7217904E+02  0.7546771E-02  0.1352836E+00
         21   -1    0    0  504  501  0.00000000000E+00  0.00000000000E+00  0.21067358513E+03  0.21067358513E+03  0.00000000000E+00 0. -1.
         21   -1    0    0  505  502 -0.00000000000E+00 -0.00000000000E+00 -0.59986146919E+03  0.59986146919E+03  0.00000000000E+00 0.  1.
         21    1    1    2  503  501 -0.60178904613E+02  0.85620304504E+02  0.12632065355E+03  0.16404037496E+03  0.00000000000E+00 0. -1.
         21    1    1    2  504  506 -0.58579033765E+01 -0.53771241246E+02  0.48709086419E+02  0.72788986233E+02  0.00000000000E+00 0. -1.
         21    1    1    2  505  503  0.41237322632E+02  0.17155064375E+02 -0.17394516462E+03  0.17958767582E+03  0.00000000000E+00 0.  1.
         21    1    1    2  506  502  0.24799485357E+02 -0.49004127634E+02 -0.39027245940E+03  0.39411801731E+03  0.00000000000E+00 0.  1.
<scales pt_clust_3="72.17904" pt_clust_4="53.48858" pt_clust_5="44.66333" pt_clust_6="14000.00000"></scales>
<clustering>
<clus scale="   44.663">  2  5  1 -1</clus>
<clus scale="   53.489">  1  4  2 -1</clus>
<clus scale="   72.179">  1  3  2 -1</clus>
<clus scale="   53.489">  1  3  2 -1</clus>
</clustering>
</event>
<event>
 6    0  0.1344929E+003  0.8033952E+02  0.7546771E-02  0.1328091E+00
         21   -1    0    0  503  501  0.00000000000E+00  0.00000000000E+00  0.36720640289E+04  0.36720640289E+04  0.00000000000E+00 0. -1.
         21   -1    0    0  506  502 -0.00000000000E+00 -0.00000000000E+00 -0.21882047561E+02  0.21882047561E+02  0.00000000000E+00 0. -1.
         21    1    1    2  503  505  0.50601857503E+02 -0.59607991285E+02  0.29876468872E+04  0.29886698686E+04  0.00000000000E+00 0. -1.
         21    1    1    2  504  501 -0.90163824236E+02  0.10626978214E+03  0.33168093506E+03  0.35977079436E+03  0.00000000000E+00 0. -1.
         21    1    1    2  505  502 -0.14633834674E+02 -0.41619096692E+02  0.12417005431E+03  0.13177443118E+03  0.00000000000E+00 0. -1.
         21    1    1    2  506  504  0.54195801406E+02 -0.50426941665E+01  0.20668410479E+03  0.21373098238E+03  0.00000000000E+00 0. -1.
<scales pt_clust_3="80.33952" pt_clust_4="14000.00000" pt_clust_5="44.11687" pt_clust_6="53.00202"></scales>
<clustering>
<clus scale="   44.117">  2  5  1 -1</clus>
<clus scale="   53.002">  2  6  1 -1</clus>
<clus scale="   80.340">  1  3  2 -1</clus>
<clus scale="   80.340">  1  3  2 -1</clus>
</clustering>
</event>
<event>
 6    0  0.1344929E+003  0.1037984E+03  0.7546771E-02  0.1272505E+00
         21   -1    0    0  505  501  0.00000000000E+00  0.00000000000E+00  0.15251359521E+04  0.15251359521E+04  0.00000000000E+00 0. -1.
         21   -1    0    0  503  502 -0.00000000000E+00 -0.00000000000E+00 -0.51118949016E+02  0.51118949016E+02  0.00000000000E+00 0.  1.
         21    1    1    2  503  501 -0.37054673270E+02  0.96671976788E+02  0.36479814477E+03  0.37920470242E+03  0.00000000000E+00 0.  1.
         21    1    1    2  504  506 -0.31700984073E+02 -0.41157173619E+02  0.74877482395E+01  0.52487443310E+02  0.00000000000E+00 0.  1.
         21    1    1    2  505  504  0.68186607764E+02 -0.16022418758E+01  0.10863598492E+04  0.10884988299E+04  0.00000000000E+00 0. -1.
         21    1    1    2  506  502  0.56904957928E+00 -0.53912561293E+02  0.15371260849E+02  0.56063925502E+02  0.00000000000E+00 0.  1.
<scales pt_clust_3="97.57407" pt_clust_4="34.75245" pt_clust_5="68.20543" pt_clust_6="34.75245"></scales>
<clustering>
<clus scale="   34.752">  4  6 -1 -1</clus>
<clus scale="   68.205">  1  5  2 -1</clus>
<clus scale="   97.574">  1  3  2 -1</clus>
<clus scale="   68.205">  1  3  2 -1</clus>
</clustering>
</event>
<event>
 6    0  0.1344929E+003  0.1008472E+03  0.7546771E-02  0.1278524E+00
         21   -1    0    0  503  501  0.00000000000E+00  0.00000000000E+00  0.16874050666E+03  0.16874050666E+03  0.00000000000E+00 0. -1.
         21   -1    0    0  504  502 -0.00000000000E+00 -0.00000000000E+00 -0.10148032099E+04  0.10148032099E+04  0.00000000000E+00 0. -1.
         21    1    1    2  503  505 -0.57039483332E+02  0.11003261881E+02 -0.33626956766E+02  0.67121879087E+02  0.00000000000E+00 0. -1.
         21    1    1    2  504  506  0.15616345239E+03  0.28361967046E+02 -0.21967552802E+03  0.27101432185E+03  0.00000000000E+00 0. -1.
         21    1    1    2  505  502 -0.92182222825E+02  0.23649524322E+02 -0.70773938746E+03  0.71410916726E+03  0.00000000000E+00 0. -1.
         21    1    1    2  506  501 -0.69417462339E+01 -0.63014753249E+02  0.11497916903E+03  0.13129834835E+03  0.00000000000E+00 0. -1.
<scales pt_clust_3="58.09109" pt_clust_4="100.84722" pt_clust_5="14000.00000" pt_clust_6="75.84244"></scales>
<clustering>
<clus scale="   58.091">  1  3  2 -1</clus>
<clus scale="   75.842">  1  6  2 -1</clus>
<clus scale="  100.847">  1  4  2 -1</clus>
<clus scale="   58.091">  1  3  2 -1</clus>
</clustering>
</event>
<event>
 6    0  0.1344929E+003  0.8646159E+02  0.7546771E-02  0.1311654E+00
         21   -1    0    0  504  501  0.00000000000E+00  0.00000000000E+00  0.11920098649E+04  0.11920098649E+04  0.00000000000E+00 0. -1.
         21   -1    0    0  503  502 -0.00000000000E+00 -0.00000000000E+00 -0.81942241105E+02  0.81942241105E+02  0.00000000000E+00 0. -1.
         21    1    1    2  503  506 -0.36842903428E+01  0.62804470715E+02  0.25791572593E+02  0.67993975865E+02  0.00000000000E+00 0.  1.
         21    1    1    2  504  505 -0.12309939272E+03 -0.12121316826E+02  0.92394991070E+03  0.93219301880E+03  0.00000000000E+00 0. -1.
         21    1    1    2  505  502  0.82745730186E+02 -0.30807893089E+02 -0.17050372383E+02  0.89926065959E+02  0.00000000000E+00 0. -1.
         21    1    1    2  506  501  0.44037952874E+02 -0.19875260799E+02  0.17737651290E+03  0.18383904540E+03  0.00000000000E+00 0.  1.
<scales pt_clust_3="61.90477" pt_clust_4="14000.00000" pt_clust_5="86.46159" pt_clust_6="48.31529"></scales>
<clustering>
<clus scale="   48.315">  1  6  2 -1</clus>
<clus scale="   61.905">  2  3  1 -1</clus>
<clus scale="   86.462">  2  5  1 -1</clus>
<clus scale="   48.315">  1  3  2 -1</clus>
</clustering>
</event>
<event>
 6    0  0.1344929E+003  0.1906711E+03  0.7546771E-02  0.1157857E+00
         21   -1    0    0  504  501  0.00000000000E+00  0.00000000000E+00  0.35742052939E+03  0.35742052939E+03  0.00000000000E+00 0.  1.
         21   -1    0    0  505  502 -0.00000000000E+00 -0.00000000000E+00 -0.38888453663E+03  0.38888453663E+03  0.00000000000E+00 0. -1.
         21    1    1    2  503  506  0.16699887658E+01  0.34853530456E+02 -0.25365193620E+02  0.43138735437E+02  0.00000000000E+00 0. -1.
         21    1    1    2  504  503  0.95160101902E+02 -0.98621406444E+01  0.23468326656E+03  0.25343429605E+03  0.00000000000E+00 0.  1.
         21    1    1    2  505  501  0.23484041655E+02 -0.14443172832E+03  0.10392571688E+02  0.14669706849E+03  0.00000000000E+00 0.  1.
         21    1    1    2  506  502 -0.12031413232E+03  0.11944033851E+03 -0.25117465187E+03  0.30303496604E+03  0.00000000000E+00 0. -1.
<scales pt_clust_3="33.58090" pt_clust_4="95.66978" pt_clust_5="175.71727" pt_clust_6="33.58090"></scales>
<clustering>
<clus scale="   33.581">  3  6 -1 -1</clus>
<clus scale="   95.670">  1  4  2 -1</clus>
<clus scale="  175.717">  1  5  2 -1</clus>
<clus scale="   95.670">  1  3  2 -1</clus>
</clustering>
</event>
<event>
 6    0  0.1344929E+003  0.8495631E+02  0.7546771E-02  0.1315547E+00
         21   -1    0    0  504  501  0.00000000000E+00  0.00000000000E+00  0.62906201601E+03  0.62906201601E+03  0.00000000000E+00 0. -1.
         21   -1    0    0  506  502 -0.00000000000E+00 -0.00000000000E+00 -0.26495916675E+03  0.26495916675E+03  0.00000000000E+00 0. -1.
         21    1    1    2  503  502 -0.37099792960E+02  0.65188710197E+02 -0.14059617312E+03  0.15935258539E+03  0.00000000000E+00 0. -1.
         21    1    1    2  504  505 -0.37931937873E+02 -0.21071693068E+02  0.54805468698E+03  0.54976975916E+03  0.00000000000E+00 0. -1.
         21    1    1    2  505  503  0.11603803789E+03 -0.29971438037E+02 -0.65089653733E+02  0.13638099706E+03  0.00000000000E+00 0. -1.
         21    1    1    2  506  501 -0.41006307061E+02 -0.14145579091E+02  0.21733989125E+02  0.48517841150E+02  0.00000000000E+00 0.  1.
<scales pt_clust_3="75.13557" pt_clust_4="14000.00000" pt_clust_5="84.95631" pt_clust_6="43.37758"></scales>
<clustering>
<clus scale="   43.378">  1  6  2 -1</clus>
<clus scale="   75.136">  2  3  1 -1</clus>
<clus scale="   84.956">  2  5  1 -1</clus>
<clus scale="   43.378">  1  3  2 -1</clus>
</clustering>
</event>
<event>
 6    0  0.1344929E+003  0.9460201E+02  0.7546771E-02  0.1292075E+00
         21   -1    0    0  503  501  0.00000000000E+00  0.00000000000E+00  0.21880329543E+03  0.21880329543E+03  0.00000000000E+00 0.  1.
         21   -1    0    0  505  502 -0.00000000000E+00 -0.00000000000E+00 -0.17172230128E+03  0.17172230128E+03  0.00000000000E+00 0.  1.
         21    1    1    2  503  506  0.28102509387E+02  0.25278417831E+02  0.39042456408E+02  0.54342090908E+02  0.00000000000E+00 0.  1.
         21    1    1    2  504  501 -0.29543860567E+02  0.61546359042E+02  0.37438483005E+02  0.77861633802E+02  0.00000000000E+00 0.  1.
         21    1    1    2  505  504 -0.15280351270E+02  0.76882082989E+02 -0.49244682695E+02  0.92570959774E+02  0.00000000000E+00 0.  1.
         21    1    1    2  506  502  0.16721702450E+02 -0.16370685986E+03  0.19844737433E+02  0.16575091222E+03  0.00000000000E+00 0.  1.
<scales pt_clust_3="37.79880" pt_clust_4="72.85016" pt_clust_5="94.60201" pt_clust_6="14000.00000"></scales>
<clustering>
<clus scale="   37.799">  1  3  2 -1</clus>
<clus scale="   72.850">  1  4  2 -1</clus>
<clus scale="   94.602">  2  5  1 -1</clus>
<clus scale="   37.799">  1  3  2 -1</clus>
</clustering>
</event>
<event>
 6    0  0.1344929E+003  0.1292519E+03  0.7546771E-02  0.1228570E+00
         21   -1    0    0  506  501  0.00000000000E+00  0.00000000000E+00  0.33490727443E+03  0.33490727443E+03  0.00000000000E+00 0. -1.
         21   -1    0    0  503  502 -0.00000000000E+00 -0.00000000000E+00 -0.43922384422E+03  0.43922384422E+03  0.00000000000E+00 0.  1.
         21    1    1    2  503  501 -0.14339877684E+03 -0.77237849392E+01  0.15989831556E+02  0.14449408558E+03  0.00000000000E+00 0. -1.
         21    1    1    2  504  505  0.70493681496E+02  0.14955831249E+02  0.95334155092E+02  0.11950580382E+03  0.00000000000E+00 0. -1.
         21    1    1    2  505  502  0.31102494619E+02 -0.17820572291E+02 -0.35881631620E+03  0.36060239425E+03  0.00000000000E+00 0.  1.
         21    1    1    2  506  504  0.41802600729E+02  0.10588525980E+02  0.14317575977E+03  0.14952883499E+03  0.00000000000E+00 0. -1.
<scales pt_clust_3="120.31776" pt_clust_4="35.94546" pt_clust_5="35.84603" pt_clust_6="35.94546"></scales>
<clustering>
<clus scale="   35.846">  2  5  1 -1</clus>
<clus scale="   35.945">  4  6 -1 -1</clus>
<clus scale="  120.318">  2  3  1 -1</clus>
<clus scale="  129.252">  1  3  2 -1</clus>
</clustering>
</event>
<event>
 6    0  0.1344929E+003  0.8530460E+02  0.7546771E-02  0.1314638E+00
         21   -1    0    0  503  501  0.00000000000E+00  0.00000000000E+00  0.19314569439E+03  0.19314569439E+03  0.00000000000E+00 0.  1.
         21   -1    0    0  506  502 -0.00000000000E+00 -0.00000000000E+00 -0.17778020692E+04  0.17778020692E+04  0.00000000000E+00 0.  1.
         21    1    1    2  503  504  0.15162158045E+02  0.27655564086E+02  0.13987877970E+03  0.14339035627E+03  0.00000000000E+00 0.  1.
         21    1    1    2  504  502 -0.37031003860E+02  0.13088347347E+02  0.36897335179E+02  0.53888898917E+02  0.00000000000E+00 0.  1.
         21    1    1    2  505  501  0.98282628115E+02 -0.56771176988E+02 -0.67874386995E+03  0.68816835332E+03  0.00000000000E+00 0. -1.
         21    1    1    2  506  505 -0.76413782300E+02  0.16027265555E+02 -0.10826886198E+04  0.10855001551E+04  0.00000000000E+00 0.  1.
<scales pt_clust_3="31.53920" pt_clust_4="44.31081" pt_clust_5="14000.00000" pt_clust_6="85.30460"></scales>
<clustering>
<clus scale="   31.539">  1  3  2 -1</clus>
<clus scale="   44.311">  1  4  2 -1</clus>
<clus scale="   85.305">  2  6  1 -1</clus>
<clus scale="   31.539">  1  3  2 -1</clus>
</clustering>
</event>
<event>
 6    0  0.1344929E+003  0.1191407E+03  0.7546771E-02  0.1244521E+00
         21   -1    0    0  502  501  0.00000000000E+00  0.00000000000E+00  0.37373749853E+02  0.37373749853E+02  0.00000000000E+00 0. -1.
         21   -1    0    0  504  502 -0.00000000000E+00 -0.00000000000E+00 -0.21280641232E+04  0.21280641232E+04  0.00000000000E+00 0. -1.
         21    1    1    2  503  501 -0.39745010553E+02  0.59708440601E+02 -0.35711194423E+02  0.80125234165E+02  0.00000000000E+00 0. -1.
         21    1    1    2  504  505 -0.80939795574E+02  0.47240371219E+02 -0.15181651179E+04  0.15210549722E+04  0.00000000000E+00 0. -1.
         21    1    1    2  505  506  0.11533093051E+03 -0.66771564225E+02 -0.40686822731E+03  0.42813715059E+03  0.00000000000E+00 0. -1.
         21    1    1    2  506  503  0.53538756210E+01 -0.40177247594E+02 -0.12994583367E+03  0.13612051607E+03  0.00000000000E+00 0. -1.
<scales pt_clust_3="71.72701" pt_clust_4="99.89994" pt_clust_5="35.80271" pt_clust_6="35.80271"></scales>
<clustering>
<clus scale="   35.803">  5  6 -1 -1</clus>
<clus scale="   71.727">  1  3  2 -1</clus>
<clus scale="   99.900">  2  4  1 -1</clus>
<clus scale="   71.727">  1  3  2 -1</clus>
</clustering>
</event>
<event>
 6    0  0.1344929E+003  0.1330976E+03  0.7546771E-02  0.1222930E+00
         21   -1    0    0  503  501  0.00000000000E+00  0.00000000000E+00  0.10929886510E+03  0.10929886510E+03  0.00000000000E+00 0. -1.
         21   -1    0    0  506  502 -0.00000000000E+00 -0.00000000000E+00 -0.61336849513E+03  0.61336849513E+03  0.00000000000E+00 0. -1.
         21    1    1    2  503  504 -0.73184142651E+02 -0.17513888750E+03 -0.76922056125E+02  0.20480857250E+03  0.00000000000E+00 0. -1.
         21    1    1    2  504  505  0.24400391256E+02  0.97605350620E+02 -0.34182663571E+03  0.35632517796E+03  0.00000000000E+00 0. -1.
         21    1    1    2  505  502  0.40794395607E+02  0.17188729401E+02 -0.90189527587E+02  0.10046783574E+03  0.00000000000E+00 0. -1.
         21    1    1    2  506  501  0.79893557873E+01  0.60344807482E+02  0.48685893908E+01  0.61065774036E+02  0.00000000000E+00 0. -1.
<scales pt_clust_3="14000.00000" pt_clust_4="133.09763" pt_clust_5="44.26777" pt_clust_6="62.12059"></scales>
<clustering>
<clus scale="   44.268">  2  5  1 -1</clus>
<clus scale="   62.121">  1  6  2 -1</clus>
<clus scale="  133.098">  2  4  1 -1</clus>
<clus scale="   62.121">  1  3  2 -1</clus>
</clustering>
</event>
<event>
 6    0  0.1344929E+003  0.6840024E+02  0.7546771E-02  0.1365619E+00
         21   -1    0    0  506  501  0.00000000000E+00  0.00000000000E+00  0.44044116066E+03  0.44044116066E+03  0.00000000000E+00 0.  1.
         21   -1    0    0  504  502 -0.00000000000E+00 -0.00000000000E+00 -0.92745930013E+03  0.92745930013E+03  0.00000000000E+00 0.  1.
         21    1    1    2  503  502 -0.49234467912E+02  0.93144998510E+01 -0.54206630313E+03  0.54437732293E+03  0.00000000000E+00 0.  1.
         21    1    1    2  504  501  0.11597726241E+03 -0.37478546939E+02 -0.35082393213E+03  0.37139305087E+03  0.00000000000E+00 0.  1.
         21    1    1    2  505  503 -0.26097048466E+02  0.35360258561E+02 -0.21721495087E+00  0.43948276491E+02  0.00000000000E+00 0.  1.
         21    1    1    2  506  505 -0.40645746029E+02 -0.71962114731E+01  0.40608931073E+03  0.40818181050E+03  0.00000000000E+00 0.  1.
<scales pt_clust_3="51.44950" pt_clust_4="14000.00000" pt_clust_5="68.40024" pt_clust_6="41.27786"></scales>
<clustering>
<clus scale="   41.278">  1  6  2 -1</clus>
<clus scale="   51.449">  2  3  1 -1</clus>
<clus scale="   68.400">  1  5  2 -1</clus>
<clus scale="   41.278">  1  3  2 -1</clus>
</clustering>
</event>
<event>
 6    0  0.1344929E+003  0.6478971E+02  0.7546771E-02  0.1378764E+00
         21   -1    0    0  503  501  0.00000000000E+00  0.00000000000E+00  0.72510930621E+03  0.72510930621E+03  0.00000000000E+00 0. -1.
         21   -1    0    0  504  502 -0.00000000000E+00 -0.00000000000E+00 -0.82919466406E+02  0.82919466406E+02  0.00000000000E+00 0.  1.
         21    1    1    2  503  506 -0.44428058658E+02 -0.16661656058E+02  0.58383472805E+02  0.75233590075E+02  0.00000000000E+00 0. -1.
         21    1    1    2  504  505 -0.63156063293E+02  0.54121300129E+01 -0.47348653728E+02  0.79119368626E+02  0.00000000000E+00 0.  1.
         21    1    1    2  505  501 -0.24468996208E+01  0.45301570236E+02  0.94845007612E+02  0.10513702988E+03  0.00000000000E+00 0. -1.
         21    1    1    2  506  502  0.11003102157E+03 -0.34052044191E+02  0.53631001312E+03  0.54853878403E+03  0.00000000000E+00 0. -1.
<scales pt_clust_3="46.22632" pt_clust_4="64.78971" pt_clust_5="45.36761" pt_clust_6="14000.00000"></scales>
<clustering>
<clus scale="   45.368">  1  5  2 -1</clus>
<clus scale="   46.226">  1  3  2 -1</clus>
<clus scale="   64.790">  2  4  1 -1</clus>
<clus scale="   45.368">  1  3  2 -1</clus>
</clustering>
</event>
<event>
 6    0  0.1344929E+003  0.9876900E+02  0.7546771E-02  0.1282906E+00
         21   -1    0    0  504  501  0.00000000000E+00  0.00000000000E+00  0.10408660608E+04  0.10408660608E+04  0.00000000000E+00 0. -1.
         21   -1    0    0  506  502 -0.00000000000E+00 -0.00000000000E+00 -0.25522775794E+02  0.25522775794E+02  0.00000000000E+00 0. -1.
         21    1    1    2  503  505 -0.23479334017E+02 -0.25061281063E+02  0.96681902041E+02  0.10259988848E+03  0.00000000000E+00 0. -1.
         21    1    1    2  504  503 -0.14333323016E+02 -0.35354004686E+02  0.26693881909E+03  0.26965103919E+03  0.00000000000E+00 0. -1.
         21    1    1    2  505  502 -0.79509096502E+02  0.58008080705E+02  0.15395913451E+03  0.18272944194E+03  0.00000000000E+00 0. -1.
         21    1    1    2  506  501  0.11732175354E+03  0.24072050438E+01  0.49776342931E+03  0.51140846693E+03  0.00000000000E+00 0. -1.
<scales pt_clust_3="33.82422" pt_clust_4="79.69143" pt_clust_5="98.76900" pt_clust_6="14000.00000"></scales>
<clustering>
<clus scale="   33.824">  3  4 -1 -1</clus>
<clus scale="   79.691">  1  3  2 -1</clus>
<clus scale="   98.769">  2  5  1 -1</clus>
<clus scale="   79.691">  1  3  2 -1</clus>
</clustering>
</event>
<event>
 6    0  0.1344929E+003  0.1433979E+03  0.7546771E-02  0.1208829E+00
         21   -1    0    0  503  501  0.00000000000E+00  0.00000000000E+00  0.48921278319E+03  0.48921278319E+03  0.00000000000E+00 0.  1.
         21   -1    0    0  504  502 -0.00000000000E+00 -0.00000000000E+00 -0.40135318224E+03  0.40135318224E+03  0.00000000000E+00 0. -1.
         21    1    1    2  503  502 -0.88867046883E+02 -0.44864428871E+02  0.14719054037E+03  0.17769418722E+03  0.00000000000E+00 0.  1.
         21    1    1    2  504  506 -0.25018474851E+02  0.40300515309E+02 -0.85006902899E+02  0.97345925228E+02  0.00000000000E+00 0. -1.
         21    1    1    2  505  501 -0.16622723324E+02 -0.64564268825E+02  0.29819753806E+03  0.30555953829E+03  0.00000000000E+00 0.  1.
         21    1    1    2  506  505  0.13050824506E+03  0.69128182388E+02 -0.27252157458E+03  0.30996631468E+03  0.00000000000E+00 0. -1.
<scales pt_clust_3="14000.00000" pt_clust_4="47.43475" pt_clust_5="66.28190" pt_clust_6="143.39792"></scales>
<clustering>
<clus scale="   47.435">  2  4  1 -1</clus>
<clus scale="   66.282">  1  5  2 -1</clus>
<clus scale="  143.398">  2  6  1 -1</clus>
<clus scale="   66.282">  1  3  2 -1</clus>
</clustering>
</event>
<event>
 6    0  0.1344929E+003  0.1491063E+03  0.7546771E-02  0.1201575E+00
         21   -1    0    0  504  501  0.00000000000E+00  0.00000000000E+00  0.86622007244E+02  0.86622007244E+02  0.00000000000E+00 0.  1.
         21   -1    0    0  503  502 -0.00000000000E+00 -0.00000000000E+00 -0.21153800056E+04  0.21153800056E+04  0.00000000000E+00 0. -1.
         21    1    1    2  503  506 -0.18296724325E+03 -0.26761283889E+01 -0.34510952438E+03  0.39062098969E+03  0.00000000000E+00 0. -1.
         21    1    1    2  504  505  0.86425057777E+02 -0.54943842843E+01 -0.19468290876E+03  0.21307490193E+03  0.00000000000E+00 0. -1.
         21    1    1    2  505  502  0.11802727374E+03  0.90215857278E+02 -0.15047266691E+04  0.15120422239E+04  0.00000000000E+00 0. -1.
         21    1    1    2  506  501 -0.21485088267E+02 -0.82045344605E+02  0.15761103844E+02  0.86263897335E+02  0.00000000000E+00 0.  1.
<scales pt_clust_3="14000.00000" pt_clust_4="85.16437" pt_clust_5="149.10633" pt_clust_6="84.81184"></scales>
<clustering>
<clus scale="   84.812">  1  6  2 -1</clus>
<clus scale="   85.164">  1  4  2 -1</clus>
<clus scale="  149.106">  2  5  1 -1</clus>
<clus scale="   84.812">  1  3  2 -1</clus>
</clustering>
</event>
<event>
 6    0  0.1344929E+003  0.7672519E+02  0.7546771E-02  0.1338610E+00
         21   -1    0    0  503  501  0.00000000000E+00  0.00000000000E+00  0.18133138812E+03  0.18133138812E+03  0.00000000000E+00 0. -1.
         21   -1    0    0  506  502 -0.00000000000E+00 -0.00000000000E+00 -0.48641537799E+03  0.48641537799E+03  0.00000000000E+00 0.  1.
         21    1    1    2  503  505 -0.35916180518E+02 -0.83206686560E+02 -0.74218057752E+01  0.90930786383E+02  0.00000000000E+00 0. -1.
         21    1    1    2  504  501 -0.57861872640E+02  0.40959875423E+02  0.11867386594E+03  0.13823600890E+03  0.00000000000E+00 0. -1.
         21    1    1    2  505  502  0.39705031164E+02  0.39785167952E+02 -0.79154712887E+02  0.97081500097E+02  0.00000000000E+00 0. -1.
         21    1    1    2  506  504  0.54073021994E+02  0.24616431841E+01 -0.33718133714E+03  0.34149847073E+03  0.00000000000E+00 0.  1.
<scales pt_clust_3="14000.00000" pt_clust_4="68.08765" pt_clust_5="76.72519" pt_clust_6="54.12903"></scales>
<clustering>
<clus scale="   54.129">  2  6  1 -1</clus>
<clus scale="   68.088">  1  4  2 -1</clus>
<clus scale="   76.725">  2  5  1 -1</clus>
<clus scale="   68.088">  1  3  2 -1</clus>
</clustering>
</event>
<event>
 6    0  0.1344929E+003  0.2153308E+03  0.7546771E-02  0.1137413E+00
         21   -1    0    0  503  501  0.00000000000E+00  0.00000000000E+00  0.36833418153E+04  0.36833418153E+04  0.00000000000E+00 0. -1.
         21   -1    0    0  506  502 -0.00000000000E+00 -0.00000000000E+00 -0.57706551205E+02  0.57706551205E+02  0.00000000000E+00 0. -1.
         21    1    1    2  503  505  0.27358968925E+02  0.17610134499E+02  0.19607433218E+03  0.19875556283E+03  0.00000000000E+00 0.  1.
         21    1    1    2  504  502  0.42271590356E+02  0.21298033536E+02 -0.11211995771E+02  0.48643626847E+02  0.00000000000E+00 0. -1.
         21    1    1    2  505  504 -0.11614720582E+03  0.18085035553E+03  0.49910972770E+03  0.54342206874E+03  0.00000000000E+00 0. -1.
         21    1    1    2  506  501  0.46516646537E+02 -0.21975852356E+03  0.29416632000E+04  0.29502271081E+04  0.00000000000E+00 0. -1.
<scales pt_clust_3="32.53660" pt_clust_4="47.50758" pt_clust_5="215.33084" pt_clust_6="14000.00000"></scales>
<clustering>
<clus scale="   32.537">  1  3  2 -1</clus>
<clus scale="   47.508">  2  4  1 -1</clus>
<clus scale="  215.331">  2  5  1 -1</clus>
<clus scale="   32.537">  1  3  2 -1</clus>
</clustering>
</event>
<event>
 6    0  0.1344929E+003  0.1412757E+03  0.7546771E-02  0.1211623E+00
         21   -1    0    0  503  501  0.00000000000E+00  0.00000000000E+00  0.15474409821E+03  0.15474409821E+03  0.00000000000E+00 0.  1.
         21   -1    0    0  505  502 -0.00000000000E+00 -0.00000000000E+00 -0.29418752373E+03  0.29418752373E+03  0.00000000000E+00 0.  1.
         21    1    1    2  503  506 -0.74436598942E+02  0.38907447337E+01  0.63695398737E+02  0.98046157380E+02  0.00000000000E+00 0.  1.
         21    1    1    2  504  502 -0.41173546241E+02  0.12371961274E+02 -0.36268526773E+02  0.56247065436E+02  0.00000000000E+00 0.  1.
         21    1    1    2  505  501  0.17207376659E+03 -0.68391831066E+01 -0.16323251309E+03  0.23727833635E+03  0.00000000000E+00 0.  1.
         21    1    1    2  506  504 -0.56463621405E+02 -0.94235229015E+01 -0.36377844009E+01  0.57360062773E+02  0.00000000000E+00 0.  1.
<scales pt_clust_3="74.53821" pt_clust_4="36.48404" pt_clust_5="134.85722" pt_clust_6="36.48404"></scales>
<clustering>
<clus scale="   36.484">  4  6 -1 -1</clus>
<clus scale="   74.538">  1  3  2 -1</clus>
<clus scale="  134.857">  1  5  2 -1</clus>
<clus scale="   74.538">  1  3  2 -1</clus>
</clustering>
</event>
<event>
 6    0  0.1344929E+003  0.1126686E+03  0.7546771E-02  0.1255706E+00
         21   -1    0    0  505  501  0.00000000000E+00  0.00000000000E+00  0.25428456979E+04  0.25428456979E+04  0.00000000000E+00 0. -1.
         21   -1    0    0  503  502 -0.00000000000E+00 -0.00000000000E+00 -0.86376724289E+02  0.86376724289E+02  0.00000000000E+00 0. -1.
         21    1    1    2  503  504 -0.11691071048E+03  0.13766745777E+02  0.56123356918E+03  0.57344638519E+03  0.00000000000E+00 0. -1.
         21    1    1    2  504  501 -0.35630312357E+02  0.11077862025E+02  0.16353280498E+04  0.16357536699E+04  0.00000000000E+00 0.  1.
         21    1    1    2  505  506  0.42625283188E+02 -0.50032706754E+02  0.29475600520E+03  0.30199551174E+03  0.00000000000E+00 0. -1.
         21    1    1    2  506  502  0.10991573965E+03  0.25188098952E+02 -0.34848650513E+02  0.11802685539E+03  0.00000000000E+00 0. -1.
<scales pt_clust_3="14000.00000" pt_clust_4="37.31271" pt_clust_5="55.74315" pt_clust_6="112.66859"></scales>
<clustering>
<clus scale="   37.313">  1  4  2 -1</clus>
<clus scale="   55.743">  1  5  2 -1</clus>
<clus scale="  112.669">  2  6  1 -1</clus>
<clus scale="   37.313">  1  3  2 -1</clus>
</clustering>
</event>
<event>
 6    0  0.1344929E+003  0.6340901E+02  0.7546771E-02  0.1384058E+00
         21   -1    0    0  503  501  0.00000000000E+00  0.00000000000E+00  0.68528465437E+03  0.68528465437E+03  0.00000000000E+00 0.  1.
         21   -1    0    0  504  502 -0.00000000000E+00 -0.00000000000E+00 -0.42165192414E+03  0.42165192414E+03  0.00000000000E+00 0. -1.
         21    1    1    2  503  502 -0.42069739126E+02 -0.12794038782E+02  0.13373420492E+03  0.14077779635E+03  0.00000000000E+00 0.  1.
         21    1    1    2  504  505  0.43501459306E+02 -0.28250383616E+02 -0.27909142603E+03  0.28387054307E+03  0.00000000000E+00 0. -1.
         21    1    1    2  505  506 -0.59820672997E+02 -0.33198641601E+02 -0.12366253034E+03  0.14132616224E+03  0.00000000000E+00 0. -1.
         21    1    1    2  506  501  0.58388952818E+02  0.74243063999E+02  0.53265248168E+03  0.54096207686E+03  0.00000000000E+00 0.  1.
<scales pt_clust_3="43.97215" pt_clust_4="51.74640" pt_clust_5="63.40901" pt_clust_6="14000.00000"></scales>
<clustering>
<clus scale="   43.972">  1  3  2 -1</clus>
<clus scale="   51.746">  2  4  1 -1</clus>
<clus scale="   63.409">  2  5  1 -1</clus>
<clus scale="   43.972">  1  3  2 -1</clus>
</clustering>
</event>
<event>
 6    0  0.1344929E+003  0.1953042E+03  0.7546771E-02  0.1153762E+00
         21   -1    0    0  503  501  0.00000000000E+00  0.00000000000E+00  0.36002366927E+03  0.36002366927E+03  0.00000000000E+00 0.  1.
         21   -1    0    0  506  502 -0.00000000000E+00 -0.00000000000E+00 -0.66462429753E+03  0.66462429753E+03  0.00000000000E+00 0. -1.
         21    1    1    2  503  502 -0.47820719274E+02  0.27749103548E+02  0.22019383400E+03  0.22702898156E+03  0.00000000000E+00 0.  1.
         21    1    1    2  504  505  0.17127709299E+03 -0.80678706758E+02 -0.44872994205E+03  0.48703537571E+03  0.00000000000E+00 0. -1.
         21    1    1    2  505  501 -0.15046916807E+03  0.31702177619E+02  0.63858261115E+02  0.16650488317E+03  0.00000000000E+00 0.  1.
         21    1    1    2  506  504  0.27012794357E+02  0.21227425592E+02 -0.13992278132E+03  0.14407872635E+03  0.00000000000E+00 0. -1.
<scales pt_clust_3="55.20592" pt_clust_4="195.30418" pt_clust_5="14000.00000" pt_clust_6="34.35542"></scales>
<clustering>
<clus scale="   34.355">  2  6  1 -1</clus>
<clus scale="   55.206">  1  3  2 -1</clus>
<clus scale="  195.304">  2  4  1 -1</clus>
<clus scale="   55.206">  1  3  2 -1</clus>
</clustering>
</event>
<event>
 6    0  0.1344929E+003  0.1623191E+03  0.7546771E-02  0.1186103E+00
         21   -1    0    0  505  501  0.00000000000E+00  0.00000000000E+00  0.53502811378E+03  0.53502811378E+03  0.00000000000E+00 0. -1.
         21   -1    0    0  504  502 -0.00000000000E+00 -0.00000000000E+00 -0.76300137397E+03  0.76300137397E+03  0.00000000000E+00 0.  1.
         21    1    1    2  503  506 -0.93537763303E+02  0.13148971426E+03 -0.27219153198E+03  0.31642864630E+03  0.00000000000E+00 0.  1.
         21    1    1    2  504  503  0.16594711784E+02 -0.45316885224E+02 -0.18034621080E+03  0.18669161817E+03  0.00000000000E+00 0.  1.
         21    1    1    2  505  502  0.11619784443E+03 -0.15804416057E+03 -0.24749084117E+03  0.31580312254E+03  0.00000000000E+00 0.  1.
         21    1    1    2  506  501 -0.39254792913E+02  0.71871331534E+02  0.47205532377E+03  0.47910610074E+03  0.00000000000E+00 0. -1.
<scales pt_clust_3="162.31906" pt_clust_4="48.25976" pt_clust_5="14000.00000" pt_clust_6="81.60244"></scales>
<clustering>
<clus scale="   48.260">  2  4  1 -1</clus>
<clus scale="   81.602">  1  6  2 -1</clus>
<clus scale="  162.319">  2  3  1 -1</clus>
<clus scale="   81.602">  1  3  2 -1</clus>
</clustering>
</event>
<event>
 6    0  0.1344929E+003  0.5925363E+02  0.7546771E-02  0.1400991E+00
         21   -1    0    0  505  501  0.00000000000E+00  0.00000000000E+00  0.10366378808E+04  0.10366378808E+04  0.00000000000E+00 0.  1.
         21   -1    0    0  506  502 -0.00000000000E+00 -0.00000000000E+00 -0.12455781272E+03  0.12455781272E+03  0.00000000000E+00 0. -1.
         21    1    1    2  503  501  0.35608394978E+02 -0.10579963192E+01  0.60840939317E+02  0.70503170469E+02  0.00000000000E+00 0. -1.
         21    1    1    2  504  502 -0.37099518377E+02  0.39588849049E+02  0.20103296893E+02  0.57860122526E+02  0.00000000000E+00 0. -1.
         21    1    1    2  505  504 -0.87238630022E+02  0.18129329270E+02  0.90170142830E+03  0.90609310611E+03  0.00000000000E+00 0.  1.
         21    1    1    2  506  503  0.88729753420E+02 -0.56660182000E+02 -0.70565596388E+02  0.12673929446E+03  0.00000000000E+00 0. -1.
<scales pt_clust_3="35.62411" pt_clust_4="53.25655" pt_clust_5="59.25363" pt_clust_6="14000.00000"></scales>
<clustering>
<clus scale="   35.624">  1  3  2 -1</clus>
<clus scale="   53.257">  2  4  1 -1</clus>
<clus scale="   59.254">  1  5  2 -1</clus>
<clus scale="   35.624">  1  3  2 -1</clus>
</clustering>
</event>
<event>
 6    0  0.1344929E+003  0.9334929E+02  0.7546771E-02  0.1294938E+00
         21   -1    0    0  505  501  0.00000000000E+00  0.00000000000E+00  0.85264451031E+03  0.85264451031E+03  0.00000000000E+00 0.  1.
         21   -1    0    0  506  502 -0.00000000000E+00 -0.00000000000E+00 -0.35393894466E+03  0.35393894466E+03  0.00000000000E+00 0. -1.
         21    1    1    2  503  502 -0.56135065099E+01  0.94452819090E+02 -0.31611361395E+03  0.32997070085E+03  0.00000000000E+00 0. -1.
         21    1    1    2  504  503 -0.64238044175E+02 -0.21311208835E+02  0.15353266440E+03  0.16778847690E+03  0.00000000000E+00 0.  1.
         21    1    1    2  505  504 -0.29009587196E+02 -0.13933440495E+02  0.54204693495E+03  0.54300145175E+03  0.00000000000E+00 0.  1.
         21    1    1    2  506  501  0.98861137880E+02 -0.59208169760E+02  0.11923958027E+03  0.16582282548E+03  0.00000000000E+00 0.  1.
<scales pt_clust_3="14000.00000" pt_clust_4="84.24457" pt_clust_5="32.18225" pt_clust_6="93.34929"></scales>
<clustering>
<clus scale="   32.182">  1  5  2 -1</clus>
<clus scale="   84.245">  1  4  2 -1</clus>
<clus scale="   93.349">  1  6  2 -1</clus>
<clus scale="   32.182">  1  3  2 -1</clus>
</clustering>
</event>
<event>
 6    0  0.1344929E+003  0.8517659E+02  0.7546771E-02  0.1314971E+00
         21   -1    0    0  505  501  0.00000000000E+00  0.00000000000E+00  0.14469843616E+04  0.14469843616E+04  0.00000000000E+00 0. -1.
         21   -1    0    0  506  502 -0.00000000000E+00 -0.00000000000E+00 -0.10400816399E+03  0.10400816399E+03  0.00000000000E+00 0.  1.
         21    1    1    2  503  504  0.73047827095E+02 -0.25769000886E+02  0.62147495849E+02  0.99309303141E+02  0.00000000000E+00 0. -1.
         21    1    1    2  504  502 -0.35098948578E+02  0.19128176170E+02  0.18181243104E+02  0.43913334144E+02  0.00000000000E+00 0. -1.
         21    1    1    2  505  503 -0.16590250317E+01 -0.60025534400E+02  0.13144839622E+04  0.13158548188E+04  0.00000000000E+00 0. -1.
         21    1    1    2  506  501 -0.36289853486E+02  0.66666359115E+02 -0.51836503569E+02  0.91915069526E+02  0.00000000000E+00 0.  1.
<scales pt_clust_3="85.17659" pt_clust_4="39.97278" pt_clust_5="59.91255" pt_clust_6="14000.00000"></scales>
<clustering>
<clus scale="   39.973">  2  4  1 -1</clus>
<clus scale="   59.913">  1  5  2 -1</clus>
<clus scale="   85.177">  1  3  2 -1</clus>
<clus scale="   59.913">  1  3  2 -1</clus>
</clustering>
</event>
<event>
 6    0  0.1344929E+003  0.1041812E+03  0.7546771E-02  0.1271741E+00
         21   -1    0    0  503  501  0.00000000000E+00  0.00000000000E+00  0.10009926974E+04  0.10009926974E+04  0.00000000000E+00 0. -1.
         21   -1    0    0  504  502 -0.00000000000E+00 -0.00000000000E+00 -0.74199077299E+02  0.74199077299E+02  0.00000000000E+00 0. -1.
         21    1    1    2  503  505  0.17263850301E+02 -0.24750395057E+02  0.19066043513E+03  0.19303373826E+03  0.00000000000E+00 0. -1.
         21    1    1    2  504  506  0.21146071509E+02 -0.99347243152E+02 -0.20717716380E+02  0.10366414440E+03  0.00000000000E+00 0. -1.
         21    1    1    2  505  502 -0.22196700275E+02 -0.22529672433E+02  0.86443331717E+02  0.92047429304E+02  0.00000000000E+00 0.  1.
         21    1    1    2  506  501 -0.16213221535E+02  0.14662731064E+03  0.67040756966E+03  0.68644646276E+03  0.00000000000E+00 0. -1.
<scales pt_clust_3="30.17652" pt_clust_4="14000.00000" pt_clust_5="32.40112" pt_clust_6="104.18116"></scales>
<clustering>
<clus scale="   30.177">  1  3  2 -1</clus>
<clus scale="   32.401">  1  5  2 -1</clus>
<clus scale="  104.181">  1  6  2 -1</clus>
<clus scale="   30.177">  1  3  2 -1</clus>
</clustering>
</event>
<event>
 6    0  0.1344929E+003  0.1362755E+03  0.7546771E-02  0.1218430E+00
         21   -1    0    0  504  501  0.00000000000E+00  0.00000000000E+00  0.20071350230E+04  0.20071350230E+04  0.00000000000E+00 0.  1.
         21   -1    0    0  503  502 -0.00000000000E+00 -0.00000000000E+00 -0.83473781292E+02  0.83473781292E+02  0.00000000000E+00 0. -1.
         21    1    1    2  503  501  0.10189020900E+01 -0.47557640945E+02 -0.40222497150E+02  0.62294595678E+02  0.00000000000E+00 0. -1.
         21    1    1    2  504  505 -0.90852296999E+02 -0.10125534143E+03  0.16474539982E+04  0.16530612391E+04  0.00000000000E+00 0.  1.
         21    1    1    2  505  506  0.94625765573E+02  0.10110093440E+03  0.15981762432E+03  0.21146419907E+03  0.00000000000E+00 0. -1.
         21    1    1    2  506  502 -0.47923706635E+01  0.47712047974E+02  0.15661211642E+03  0.16378877051E+03  0.00000000000E+00 0. -1.
<scales pt_clust_3="47.56855" pt_clust_4="136.27549" pt_clust_5="14000.00000" pt_clust_6="42.67208"></scales>
<clustering>
<clus scale="   47.569">  2  3  1 -1</clus>
<clus scale="   42.672">  2  6  1 -1</clus>
<clus scale="  136.275">  1  4  2 -1</clus>
<clus scale="  136.275">  1  3  2 -1</clus>
</clustering>
</event>
<event>
 6    0  0.1344929E+003  0.1248124E+03  0.7546771E-02  0.1235363E+00
         21   -1    0    0  503  501  0.00000000000E+00  0.00000000000E+00  0.15211745842E+03  0.15211745842E+03  0.00000000000E+00 0. -1.
         21   -1    0    0  505  502 -0.00000000000E+00 -0.00000000000E+00 -0.30808662019E+04  0.30808662019E+04  0.00000000000E+00 0. -1.
         21    1    1    2  503  506  0.52575562504E+02 -0.10572716739E+03  0.80817860816E+02  0.14308721230E+03  0.00000000000E+00 0. -1.
         21    1    1    2  504  502  0.78085774259E+02 -0.49760629841E+02 -0.87654396357E+03  0.88142091449E+03  0.00000000000E+00 0. -1.
         21    1    1    2  505  501 -0.49708240878E+02  0.13062042943E+02 -0.19909908582E+04  0.19916541175E+04  0.00000000000E+00 0. -1.
         21    1    1    2  506  504 -0.80953095885E+02  0.14242575429E+03 -0.14203178256E+03  0.21682141609E+03  0.00000000000E+00 0. -1.
<scales pt_clust_3="124.81242" pt_clust_4="54.60054" pt_clust_5="51.39578" pt_clust_6="14000.00000"></scales>
<clustering>
<clus scale="   51.396">  2  5  1 -1</clus>
<clus scale="   54.601">  2  4  1 -1</clus>
<clus scale="  124.812">  1  3  2 -1</clus>
<clus scale="  124.812">  1  3  2 -1</clus>
</clustering>
</event>
<event>
 6    0  0.1344929E+003  0.1462728E+03  0.7546771E-02  0.1205129E+00
         21   -1    0    0  504  501  0.00000000000E+00  0.00000000000E+00  0.14582690184E+04  0.14582690184E+04  0.00000000000E+00 0.  1.
         21   -1    0    0  503  502 -0.00000000000E+00 -0.00000000000E+00 -0.14675740374E+03  0.14675740374E+03  0.00000000000E+00 0. -1.
         21    1    1    2  503  506  0.45070276436E+02  0.18206962323E+02  0.34584902683E+02  0.59656841927E+02  0.00000000000E+00 0. -1.
         21    1    1    2  504  505  0.11201792059E+03 -0.90703858355E+02  0.12344737854E+04  0.12428599001E+04  0.00000000000E+00 0.  1.
         21    1    1    2  505  502 -0.27440870852E+02 -0.33918638730E+02 -0.82519234439E+02  0.93342913490E+02  0.00000000000E+00 0. -1.
         21    1    1    2  506  501 -0.12964732617E+03  0.10641553476E+03  0.12497216098E+03  0.20916676658E+03  0.00000000000E+00 0. -1.
<scales pt_clust_3="40.73017" pt_clust_4="14000.00000" pt_clust_5="43.62884" pt_clust_6="146.27276"></scales>
<clustering>
<clus scale="   43.629">  2  5  1 -1</clus>
<clus scale="   40.730">  2  3  1 -1</clus>
<clus scale="  146.273">  2  6  1 -1</clus>
<clus scale="  146.273">  1  3  2 -1</clus>
</clustering>
</event>
<event>
 6    0  0.1344929E+003  0.2007474E+03  0.7546771E-02  0.1149110E+00
         21   -1    0    0  505  501  0.00000000000E+00  0.00000000000E+00  0.43225004679E+02  0.43225004679E+02  0.00000000000E+00 0. -1.
         21   -1    0    0  506  502 -0.00000000000E+00 -0.00000000000E+00 -0.36432748738E+04  0.36432748738E+04  0.00000000000E+00 0. -1.
         21    1    1    2  503  501  0.14942119245E+02 -0.17743742491E+03 -0.53276291859E+03  0.56173270699E+03  0.00000000000E+00 0. -1.
         21    1    1    2  504  502 -0.14754881131E+03  0.12608153760E+03 -0.25556879459E+04  0.25630466408E+04  0.00000000000E+00 0. -1.
         21    1    1    2  505  504  0.13430670991E+03  0.88749219646E+02 -0.24925825164E+03  0.29672275330E+03  0.00000000000E+00 0. -1.
         21    1    1    2  506  503 -0.17000178451E+01 -0.37393332342E+02 -0.26234075302E+03  0.26499777746E+03  0.00000000000E+00 0. -1.
<scales pt_clust_3="32.30931" pt_clust_4="187.97253" pt_clust_5="160.98048" pt_clust_6="32.30931"></scales>
<clustering>
<clus scale="   32.309">  3  6 -1 -1</clus>
<clus scale="  160.980">  1  5  2 -1</clus>
<clus scale="  187.973">  2  4  1 -1</clus>
<clus scale="  160.980">  1  3  2 -1</clus>
</clustering>
</event>
<event>
 6    0  0.1344929E+003  0.8515919E+02  0.7546771E-02  0.1315017E+00
         21   -1    0    0  503  501  0.00000000000E+00  0.00000000000E+00  0.33293098713E+03  0.33293098713E+03  0.00000000000E+00 0. -1.
         21   -1    0    0  505  502 -0.00000000000E+00 -0.00000000000E+00 -0.14157959952E+03  0.14157959952E+03  0.00000000000E+00 0. -1.
         21    1    1    2  503  506 -0.34469443205E+02 -0.61540690012E+02  0.14941862394E+03  0.16523112365E+03  0.00000000000E+00 0. -1.
         21    1    1    2  504  501  0.75954715047E+02  0.25688752787E+02  0.35605731307E+02  0.87731401787E+02  0.00000000000E+00 0. -1.
         21    1    1    2  505  504  0.64556401651E+02 -0.27279839793E+02 -0.49797259174E+02  0.85973749915E+02  0.00000000000E+00 0. -1.
         21    1    1    2  506  502 -0.10604167349E+03  0.63131777018E+02  0.56124291540E+02  0.13557431131E+03  0.00000000000E+00 0. -1.
<scales pt_clust_3="70.10486" pt_clust_4="85.15919" pt_clust_5="70.08365" pt_clust_6="14000.00000"></scales>
<clustering>
<clus scale="   70.084">  2  5  1 -1</clus>
<clus scale="   70.105">  1  3  2 -1</clus>
<clus scale="   85.159">  1  4  2 -1</clus>
<clus scale="   70.105">  1  3  2 -1</clus>
</clustering>
</event>
<event>
 6    0  0.1344929E+003  0.9598639E+02  0.7546771E-02  0.1288970E+00
         21   -1    0    0  504  501  0.00000000000E+00  0.00000000000E+00  0.91463833097E+03  0.91463833097E+03  0.00000000000E+00 0.  1.
         21   -1    0    0  503  502 -0.00000000000E+00 -0.00000000000E+00 -0.26530756220E+03  0.26530756220E+03  0.00000000000E+00 0.  1.
         21    1    1    2  503  501 -0.51788575365E+02  0.49520617323E+02 -0.42996701368E+02  0.83564731836E+02  0.00000000000E+00 0.  1.
         21    1    1    2  504  506 -0.38192727646E+02  0.15357441554E+02  0.44650732910E+03  0.44840085905E+03  0.00000000000E+00 0.  1.
         21    1    1    2  505  502  0.12004774153E+03 -0.33326341112E+02 -0.18056363147E+03  0.21937486244E+03  0.00000000000E+00 0.  1.
         21    1    1    2  506  505 -0.30066438522E+02 -0.31551717765E+02  0.42638377250E+03  0.42860543985E+03  0.00000000000E+00 0.  1.
<scales pt_clust_3="14000.00000" pt_clust_4="41.16474" pt_clust_5="95.98639" pt_clust_6="67.32830"></scales>
<clustering>
<clus scale="   41.165">  1  4  2 -1</clus>
<clus scale="   67.328">  1  6  2 -1</clus>
<clus scale="   95.986">  2  5  1 -1</clus>
<clus scale="   41.165">  1  3  2 -1</clus>
</clustering>
</event>
<event>
 6    0  0.1344929E+003  0.7284733E+02  0.7546771E-02  0.1350670E+00
         21   -1    0    0  506  501  0.00000000000E+00  0.00000000000E+00  0.38292903806E+03  0.38292903806E+03  0.00000000000E+00 0.  1.
         21   -1    0    0  505  502 -0.00000000000E+00 -0.00000000000E+00 -0.72324895442E+02  0.72324895442E+02  0.00000000000E+00 0.  1.
         21    1    1    2  503  504 -0.51524022363E+02  0.50964395696E+02  0.79577460465E+02  0.10763208965E+03  0.00000000000E+00 0.  1.
         21    1    1    2  504  501  0.30199777821E+02 -0.31041458398E+02  0.18183261885E+03  0.18691896639E+03  0.00000000000E+00 0.  1.
         21    1    1    2  505  503 -0.20555888511E+02 -0.74530032111E+02  0.21511683617E+01  0.77342729227E+02  0.00000000000E+00 0.  1.
         21    1    1    2  506  502  0.41880133053E+02  0.54607094813E+02  0.47042894948E+02  0.83360148233E+02  0.00000000000E+00 0.  1.
<scales pt_clust_3="52.05962" pt_clust_4="43.30818" pt_clust_5="72.84733" pt_clust_6="14000.00000"></scales>
<clustering>
<clus scale="   43.308">  1  4  2 -1</clus>
<clus scale="   52.060">  1  3  2 -1</clus>
<clus scale="   72.847">  2  5  1 -1</clus>
<clus scale="   43.308">  1  3  2 -1</clus>
</clustering>
</event>
<event>
 6    0  0.1344929E+003  0.1093911E+03  0.7546771E-02  0.1261702E+00
         21   -1    0    0  503  501  0.00000000000E+00  0.00000000000E+00  0.58465594222E+02  0.58465594222E+02  0.00000000000E+00 0.  1.
         21   -1    0    0  505  502 -0.00000000000E+00 -0.00000000000E+00 -0.13517495844E+04  0.13517495844E+04  0.00000000000E+00 0. -1.
         21    1    1    2  503  506  0.26687435651E+02 -0.21151738230E+02  0.29879086831E+02  0.45303146487E+02  0.00000000000E+00 0.  1.
         21    1    1    2  504  501  0.33675922474E+02 -0.93327821945E+02 -0.14737773911E+03  0.17766358121E+03  0.00000000000E+00 0.  1.
         21    1    1    2  505  504  0.14664252537E+02  0.66762486615E+02 -0.34408889496E+03  0.35081253905E+03  0.00000000000E+00 0. -1.
         21    1    1    2  506  502 -0.75027610662E+02  0.47717073560E+02 -0.83169644294E+03  0.83643591187E+03  0.00000000000E+00 0. -1.
<scales pt_clust_3="34.05312" pt_clust_4="109.39114" pt_clust_5="66.13283" pt_clust_6="14000.00000"></scales>
<clustering>
<clus scale="   34.053">  1  3  2 -1</clus>
<clus scale="   66.133">  2  5  1 -1</clus>
<clus scale="  109.391">  1  4  2 -1</clus>
<clus scale="   34.053">  1  3  2 -1</clus>
</clustering>
</event>
<event>
 6    0  0.1344929E+003  0.1135523E+03  0.7546771E-02  0.1254129E+00
         21   -1    0    0  506  501  0.00000000000E+00  0.00000000000E+00  0.63150650300E+03  0.63150650300E+03  0.00000000000E+00 0.  1.
         21   -1    0    0  505  502 -0.00000000000E+00 -0.00000000000E+00 -0.83385009075E+02  0.83385009075E+02  0.00000000000E+00 0.  1.
         21    1    1    2  503  502 -0.13791753546E+03  0.75707917127E+01  0.16842042414E+03  0.21781644277E+03  0.00000000000E+00 0.  1.
         21    1    1    2  504  501  0.46955541463E+02  0.76511190931E+02  0.11394379043E+03  0.14505851437E+03  0.00000000000E+00 0.  1.
         21    1    1    2  505  504  0.95632594032E+02 -0.49688118863E+02  0.27472513171E+02  0.11121709031E+03  0.00000000000E+00 0.  1.
         21    1    1    2  506  503 -0.46706000367E+01 -0.34393863781E+02  0.23828476618E+03  0.24079946463E+03  0.00000000000E+00 0.  1.
<scales pt_clust_3="113.55231" pt_clust_4="79.41362" pt_clust_5="14000.00000" pt_clust_6="34.70954"></scales>
<clustering>
<clus scale="   34.710">  1  6  2 -1</clus>
<clus scale="   79.414">  1  4  2 -1</clus>
<clus scale="  113.552">  1  3  2 -1</clus>
<clus scale="   34.710">  1  3  2 -1</clus>
</clustering>
</event>
<event>
 6    0  0.1344929E+003  0.8091503E+02  0.7546771E-02  0.1326475E+00
         21   -1    0    0  503  501  0.00000000000E+00  0.00000000000E+00  0.22843924766E+03  0.22843924766E+03  0.00000000000E+00 0. -1.
         21   -1    0    0  504  502 -0.00000000000E+00 -0.00000000000E+00 -0.19715753054E+03  0.19715753054E+03  0.00000000000E+00 0. -1.
         21    1    1    2  503  502 -0.10749575069E+03 -0.68004587002E+02  0.12075089460E+03  0.17538739640E+03  0.00000000000E+00 0. -1.
         21    1    1    2  504  506 -0.39449103065E+02  0.51015425430E+00 -0.28132468079E+02  0.48455420236E+02  0.00000000000E+00 0. -1.
         21    1    1    2  505  501  0.60381164837E+02  0.23653040821E+02  0.27272626520E+02  0.70350178141E+02  0.00000000000E+00 0. -1.
         21    1    1    2  506  505  0.86563688914E+02  0.43841391926E+02 -0.88609335921E+02  0.13140378342E+03  0.00000000000E+00 0. -1.
<scales pt_clust_3="80.91503" pt_clust_4="39.45240" pt_clust_5="59.92775" pt_clust_6="14000.00000"></scales>
<clustering>
<clus scale="   39.452">  2  4  1 -1</clus>
<clus scale="   59.928">  1  5  2 -1</clus>
<clus scale="   80.915">  1  3  2 -1</clus>
<clus scale="   59.928">  1  3  2 -1</clus>
</clustering>
</event>
<event>
 6    0  0.1344929E+003  0.1090635E+03  0.7546771E-02  0.1262314E+00
         21   -1    0    0  504  501  0.00000000000E+00  0.00000000000E+00  0.16149823295E+03  0.16149823295E+03  0.00000000000E+00 0.  1.
         21   -1    0    0  505  502 -0.00000000000E+00 -0.00000000000E+00 -0.99024371138E+03  0.99024371138E+03  0.00000000000E+00 0. -1.
         21    1    1    2  503  506 -0.62021055946E+02  0.33948939197E+01  0.26725564848E+02  0.67619468364E+02  0.00000000000E+00 0.  1.
         21    1    1    2  504  503 -0.41262350144E+02  0.59260275602E+01  0.66614244272E+02  0.78582166437E+02  0.00000000000E+00 0.  1.
         21    1    1    2  505  501  0.78910289773E+02  0.96984341726E+02 -0.63827682541E+02  0.14038080150E+03  0.00000000000E+00 0.  1.
         21    1    1    2  506  502  0.24373116317E+02 -0.10630526321E+03 -0.85825760501E+03  0.86515950803E+03  0.00000000000E+00 0. -1.
<scales pt_clust_3="35.78637" pt_clust_4="35.78637" pt_clust_5="99.06823" pt_clust_6="109.06355"></scales>
<clustering>
<clus scale="   35.786">  3  4 -1 -1</clus>
<clus scale="  109.064">  2  6  1 -1</clus>
<clus scale="   99.068">  2  5  1 -1</clus>
<clus scale="  109.064">  1  3  2 -1</clus>
</clustering>
</event>
<event>
 6    0  0.1344929E+003  0.9294377E+02  0.7546771E-02  0.1295876E+00
         21   -1    0    0  505  501  0.00000000000E+00  0.00000000000E+00  0.69775125251E+03  0.69775125251E+03  0.00000000000E+00 0. -1.
         21   -1    0    0  506  502 -0.00000000000E+00 -0.00000000000E+00 -0.89602509531E+03  0.89602509531E+03  0.00000000000E+00 0.  1.
         21    1    1    2  503  501 -0.71658935669E+02 -0.20216851948E+02  0.34534788152E+03  0.35328300756E+03  0.00000000000E+00 0. -1.
         21    1    1    2  504  502  0.15766501267E+03 -0.11237304864E+02 -0.16185516371E+03  0.22623356794E+03  0.00000000000E+00 0.  1.
         21    1    1    2  505  504 -0.20055257193E+02  0.31577845182E+02  0.31357457587E+03  0.31579801817E+03  0.00000000000E+00 0. -1.
         21    1    1    2  506  503 -0.65950819807E+02 -0.12368836968E+00 -0.69534113647E+03  0.69846175415E+03  0.00000000000E+00 0.  1.
<scales pt_clust_3="14000.00000" pt_clust_4="92.94377" pt_clust_5="37.40820" pt_clust_6="66.03251"></scales>
<clustering>
<clus scale="   37.408">  1  5  2 -1</clus>
<clus scale="   66.033">  2  6  1 -1</clus>
<clus scale="   92.944">  2  4  1 -1</clus>
<clus scale="   37.408">  1  3  2 -1</clus>
</clustering>
</event>
<event>
 6    0  0.1344929E+003  0.1002144E+03  0.7546771E-02  0.1279846E+00
         21   -1    0    0  506  501  0.00000000000E+00  0.00000000000E+00  0.40717135298E+03  0.40717135298E+03  0.00000000000E+00 0. -1.
         21   -1    0    0  504  502 -0.00000000000E+00 -0.00000000000E+00 -0.12579339329E+03  0.12579339329E+03  0.00000000000E+00 0.  1.
         21    1    1    2  503  501  0.88231652420E+01  0.92602027632E+02  0.33862936520E+03  0.35117350518E+03  0.00000000000E+00 0. -1.
         21    1    1    2  504  503 -0.65951855698E+02 -0.31061964368E+02 -0.30742878027E+01  0.72965362645E+02  0.00000000000E+00 0. -1.
         21    1    1    2  505  502  0.43569774428E+02 -0.27436660287E+02 -0.50200766607E+02  0.71911143360E+02  0.00000000000E+00 0.  1.
         21    1    1    2  506  505  0.13558916029E+02 -0.34103402977E+02 -0.39763510935E+01  0.36914735086E+02  0.00000000000E+00 0.  1.
<scales pt_clust_3="90.47584" pt_clust_4="72.90057" pt_clust_5="36.38209" pt_clust_6="36.38209"></scales>
<clustering>
<clus scale="   36.382">  5  6 -1 -1</clus>
<clus scale="   72.901">  2  4  1 -1</clus>
<clus scale="   90.476">  1  3  2 -1</clus>
<clus scale="   90.476">  1  3  2 -1</clus>
</clustering>
</event>
<event>
 6    0  0.1344929E+003  0.9454986E+02  0.7546771E-02  0.1292193E+00
         21   -1    0    0  504  501  0.00000000000E+00  0.00000000000E+00  0.21363742369E+04  0.21363742369E+04  0.00000000000E+00 0.  1.
         21   -1    0    0  506  502 -0.00000000000E+00 -0.00000000000E+00 -0.12280728730E+04  0.12280728730E+04  0.00000000000E+00 0.  1.
         21    1    1    2  503  505 -0.45683384281E+02  0.93752620789E+02 -0.50580076944E+03  0.51644064893E+03  0.00000000000E+00 0.  1.
         21    1    1    2  504  503 -0.49620104521E+02 -0.15421419142E+02  0.79575865861E+03  0.79745333261E+03  0.00000000000E+00 0.  1.
         21    1    1    2  505  502  0.75292694691E+02 -0.36642962679E+01 -0.71299676822E+03  0.71697057710E+03  0.00000000000E+00 0.  1.
         21    1    1    2  506  501  0.20010794112E+02 -0.74666905379E+02  0.13313402429E+04  0.13335825513E+04  0.00000000000E+00 0.  1.
<scales pt_clust_3="94.54986" pt_clust_4="51.96128" pt_clust_5="75.30942" pt_clust_6="14000.00000"></scales>
<clustering>
<clus scale="   51.961">  1  4  2 -1</clus>
<clus scale="   75.309">  2  5  1 -1</clus>
<clus scale="   94.550">  2  3  1 -1</clus>
<clus scale="   51.961">  1  3  2 -1</clus>
</clustering>
</event>
<event>
 6    0  0.1344929E+003  0.8326543E+02  0.7546771E-02  0.1320032E+00
         21   -1    0    0  506  501  0.00000000000E+00  0.00000000000E+00  0.22295382962E+03  0.22295382962E+03  0.00000000000E+00 0.  1.
         21   -1    0    0  503  502 -0.00000000000E+00 -0.00000000000E+00 -0.52444267682E+03  0.52444267682E+03  0.00000000000E+00 0. -1.
         21    1    1    2  503  504  0.22714350526E+02 -0.39107780730E+02 -0.12176175636E+03  0.12988951284E+03  0.00000000000E+00 0.  1.
         21    1    1    2  504  501  0.40486244805E+02 -0.74699840777E+02  0.19559997740E+03  0.21325701252E+03  0.00000000000E+00 0.  1.
         21    1    1    2  505  502 -0.25100745340E+02  0.61326929973E+02 -0.28771207350E+03  0.29524443601E+03  0.00000000000E+00 0. -1.
         21    1    1    2  506  505 -0.38099849990E+02  0.52480691533E+02 -0.87614994743E+02  0.10900554507E+03  0.00000000000E+00 0.  1.
<scales pt_clust_3="45.22566" pt_clust_4="14000.00000" pt_clust_5="33.81396" pt_clust_6="83.26543"></scales>
<clustering>
<clus scale="   45.226">  2  3  1 -1</clus>
<clus scale="   33.814">  2  5  1 -1</clus>
<clus scale="   83.265">  2  6  1 -1</clus>
<clus scale="   83.265">  1  3  2 -1</clus>
</clustering>
</event>
<event>
 6    0  0.1344929E+003  0.9813895E+02  0.7546771E-02  0.1284259E+00
         21   -1    0    0  506  501  0.00000000000E+00  0.00000000000E+00  0.11493847904E+03  0.11493847904E+03  0.00000000000E+00 0. -1.
         21   -1    0    0  505  502 -0.00000000000E+00 -0.00000000000E+00 -0.11179138085E+04  0.11179138085E+04  0.00000000000E+00 0. -1.
         21    1    1    2  503  502 -0.17914899581E+02 -0.25058052008E+02 -0.17578425038E+03  0.17846274759E+03  0.00000000000E+00 0. -1.
         21    1    1    2  504  503  0.47855261648E+02  0.10322845566E+03 -0.51571053815E+02  0.12492323129E+03  0.00000000000E+00 0. -1.
         21    1    1    2  505  501  0.65652282312E+02 -0.43905644426E+02 -0.81627153353E+03  0.82008362027E+03  0.00000000000E+00 0. -1.
         21    1    1    2  506  504 -0.95592644379E+02 -0.34264759222E+02  0.40651508298E+02  0.10938268835E+03  0.00000000000E+00 0. -1.
<scales pt_clust_3="30.80340" pt_clust_4="98.13895" pt_clust_5="82.60412" pt_clust_6="14000.00000"></scales>
<clustering>
<clus scale="   30.803">  2  3  1 -1</clus>
<clus scale="   82.604">  2  5  1 -1</clus>
<clus scale="   98.139">  2  4  1 -1</clus>
<clus scale="   98.139">  1  3  2 -1</clus>
</clustering>
</event>
<event>
 6    0  0.1344929E+003  0.8271102E+02  0.7546771E-02  0.1321529E+00
         21   -1    0    0  506  501  0.00000000000E+00  0.00000000000E+00  0.10253788564E+03  0.10253788564E+03  0.00000000000E+00 0.  1.
         21   -1    0    0  505  502 -0.00000000000E+00 -0.00000000000E+00 -0.78620152341E+03  0.78620152341E+03  0.00000000000E+00 0.  1.
         21    1    1    2  503  504  0.90954767940E+02 -0.73846605299E+02 -0.22036388529E+03  0.24957229988E+03  0.00000000000E+00 0.  1.
         21    1    1    2  504  502 -0.43229741403E+01 -0.46584580690E+02 -0.57265947460E+02  0.73947278530E+02  0.00000000000E+00 0. -1.
         21    1    1    2  505  501 -0.46601023740E+02  0.50865111504E+02 -0.46216039612E+03  0.46728058672E+03  0.00000000000E+00 0.  1.
         21    1    1    2  506  503 -0.40030770059E+02  0.69566074486E+02  0.56126591105E+02  0.97939243922E+02  0.00000000000E+00 0.  1.
<scales pt_clust_3="82.71102" pt_clust_4="46.78473" pt_clust_5="53.59880" pt_clust_6="14000.00000"></scales>
<clustering>
<clus scale="   46.785">  2  4  1 -1</clus>
<clus scale="   53.599">  2  5  1 -1</clus>
<clus scale="   82.711">  2  3  1 -1</clus>
<clus scale="   82.711">  1  3  2 -1</clus>
</clustering>
</event>
<event>
 6    0  0.1344929E+003  0.1847384E+03  0.7546771E-02  0.1163294E+00
         21   -1    0    0  503  501  0.00000000000E+00  0.00000000000E+00  0.13366281565E+04  0.13366281565E+04  0.00000000000E+00 0.  1.
         21   -1    0    0  506  502 -0.00000000000E+00 -0.00000000000E+00 -0.37812380060E+03  0.37812380060E+03  0.00000000000E+00 0.  1.
         21    1    1    2  503  502 -0.86580926584E+02  0.15622673554E+03  0.12588614029E+04  0.12714696541E+04  0.00000000000E+00 0.  1.
         21    1    1    2  504  505  0.88869680986E+02 -0.89949633767E+02 -0.29584793362E+03  0.32173709242E+03  0.00000000000E+00 0.  1.
         21    1    1    2  505  501 -0.23774210996E+02 -0.22512770296E+02  0.42614064429E+02  0.53740082080E+02  0.00000000000E+00 0. -1.
         21    1    1    2  506  504  0.21485456593E+02 -0.43764331474E+02 -0.47123177821E+02  0.67805128437E+02  0.00000000000E+00 0.  1.
<scales pt_clust_3="173.41282" pt_clust_4="39.58006" pt_clust_5="32.74199" pt_clust_6="39.58006"></scales>
<clustering>
<clus scale="   32.742">  1  5  2 -1</clus>
<clus scale="   39.580">  4  6 -1 -1</clus>
<clus scale="  173.413">  1  3  2 -1</clus>
<clus scale="   32.742">  1  3  2 -1</clus>
</clustering>
</event>
<event>
 6    0  0.1344929E+003  0.1650789E+03  0.7546771E-02  0.1183079E+00
         21   -1    0    0  505  501  0.00000000000E+00  0.00000000000E+00  0.13780555473E+03  0.13780555473E+03  0.00000000000E+00 0. -1.
         21   -1    0    0  503  502 -0.00000000000E+00 -0.00000000000E+00 -0.75908071946E+03  0.75908071946E+03  0.00000000000E+00 0.  1.
         21    1    1    2  503  504  0.53534923864E+02 -0.23096109475E+02 -0.52801775940E+03  0.53122704430E+03  0.00000000000E+00 0.  1.
         21    1    1    2  504  501  0.11982930472E+03  0.37082412710E+02 -0.13068966085E+03  0.18114622562E+03  0.00000000000E+00 0. -1.
         21    1    1    2  505  506 -0.68938877372E+02 -0.23535777391E+02  0.31847706149E+02  0.79503320796E+02  0.00000000000E+00 0. -1.
         21    1    1    2  506  502 -0.10442535121E+03  0.95494741567E+01  0.55845493827E+01  0.10500968348E+03  0.00000000000E+00 0. -1.
<scales pt_clust_3="58.30453" pt_clust_4="157.66403" pt_clust_5="40.77327" pt_clust_6="40.77327"></scales>
<clustering>
<clus scale="   40.773">  5  6 -1 -1</clus>
<clus scale="   58.305">  2  3  1 -1</clus>
<clus scale="  157.664">  2  4  1 -1</clus>
<clus scale="  165.079">  1  3  2 -1</clus>
</clustering>
</event>
<event>
 6    0  0.1344929E+003  0.1263149E+03  0.7546771E-02  0.1233029E+00
         21   -1    0    0  503  501  0.00000000000E+00  0.00000000000E+00  0.17164411761E+04  0.17164411761E+04  0.00000000000E+00 0.  1.
         21   -1    0    0  504  502 -0.00000000000E+00 -0.00000000000E+00 -0.74823042933E+03  0.74823042933E+03  0.00000000000E+00 0.  1.
         21    1    1    2  503  505 -0.46758797469E+02 -0.93509883066E+02  0.59088438133E+03  0.60006235965E+03  0.00000000000E+00 0.  1.
         21    1    1    2  504  506  0.18952923603E+02 -0.28189133421E+02 -0.10885103682E+02  0.35669679538E+02  0.00000000000E+00 0.  1.
         21    1    1    2  505  502 -0.33176790087E+02 -0.16094649533E+02 -0.71476604952E+03  0.71571659383E+03  0.00000000000E+00 0.  1.
         21    1    1    2  506  501  0.60982663952E+02  0.13779366602E+03  0.11029775186E+04  0.11132229724E+04  0.00000000000E+00 0.  1.
<scales pt_clust_3="14000.00000" pt_clust_4="33.96823" pt_clust_5="46.23155" pt_clust_6="126.31485"></scales>
<clustering>
<clus scale="   33.968">  2  4  1 -1</clus>
<clus scale="   46.232">  2  5  1 -1</clus>
<clus scale="  126.315">  2  6  1 -1</clus>
<clus scale="  126.315">  1  3  2 -1</clus>
</clustering>
</event>
<event>
 6    0  0.1344929E+003  0.8516687E+02  0.7546771E-02  0.1314997E+00
         21   -1    0    0  506  501  0.00000000000E+00  0.00000000000E+00  0.38130908817E+03  0.38130908817E+03  0.00000000000E+00 0.  1.
         21   -1    0    0  501  502 -0.00000000000E+00 -0.00000000000E+00 -0.30356919605E+03  0.30356919605E+03  0.00000000000E+00 0. -1.
         21    1    1    2  503  504 -0.18044386682E+02  0.66664583465E+02  0.10248340106E+03  0.12358241813E+03  0.00000000000E+00 0.  1.
         21    1    1    2  504  505 -0.62617246527E+02 -0.39000371688E+02  0.36704349057E+02  0.82396345757E+02  0.00000000000E+00 0.  1.
         21    1    1    2  505  502  0.85650889158E+02  0.15705194358E+02 -0.26073246914E+03  0.27488933847E+03  0.00000000000E+00 0. -1.
         21    1    1    2  506  503 -0.49892559488E+01 -0.43369406135E+02  0.19928461114E+03  0.20401018186E+03  0.00000000000E+00 0.  1.
<scales pt_clust_3="44.71511" pt_clust_4="85.16687" pt_clust_5="14000.00000" pt_clust_6="43.65545"></scales>
<clustering>
<clus scale="   43.655">  1  6  2 -1</clus>
<clus scale="   44.715">  1  3  2 -1</clus>
<clus scale="   85.167">  1  4  2 -1</clus>
<clus scale="   43.655">  1  3  2 -1</clus>
</clustering>
</event>
<event>
 6    0  0.1344929E+003  0.8783942E+02  0.7546771E-02  0.1308170E+00
         21   -1    0    0  503  501  0.00000000000E+00  0.00000000000E+00  0.22500232804E+03  0.22500232804E+03  0.00000000000E+00 0. -1.
         21   -1    0    0  504  502 -0.00000000000E+00 -0.00000000000E+00 -0.78102422360E+03  0.78102422360E+03  0.00000000000E+00 0. -1.
         21    1    1    2  503  502 -0.78472980890E+02 -0.61607920752E+01  0.80558005872E+02  0.11263017535E+03  0.00000000000E+00 0. -1.
         21    1    1    2  504  506  0.25598046254E+02  0.34162504527E+02 -0.69604331231E+03  0.69735115208E+03  0.00000000000E+00 0. -1.
         21    1    1    2  505  501  0.10812448433E+03  0.24006787183E+02  0.39440100294E+02  0.11757019798E+03  0.00000000000E+00 0. -1.
         21    1    1    2  506  505 -0.55249549694E+02 -0.52008499636E+02  0.20023310588E+02  0.78475026236E+02  0.00000000000E+00 0. -1.
<scales pt_clust_3="87.83942" pt_clust_4="42.68884" pt_clust_5="14000.00000" pt_clust_6="61.35483"></scales>
<clustering>
<clus scale="   42.689">  2  4  1 -1</clus>
<clus scale="   61.355">  2  6  1 -1</clus>
<clus scale="   87.839">  1  3  2 -1</clus>
<clus scale="   87.839">  1  3  2 -1</clus>
</clustering>
</event>
<event>
 6    0  0.1344929E+003  0.1041428E+03  0.7546771E-02  0.1271818E+00
         21   -1    0    0  503  501  0.00000000000E+00  0.00000000000E+00  0.27633989160E+03  0.27633989160E+03  0.00000000000E+00 0.  1.
         21   -1    0    0  504  502 -0.00000000000E+00 -0.00000000000E+00 -0.13296727397E+03  0.13296727397E+03  0.00000000000E+00 0.  1.
         21    1    1    2  503  506  0.82014074722E+02  0.58346212051E+02  0.11562585480E+03  0.15329685976E+03  0.00000000000E+00 0.  1.
         21    1    1    2  504  501 -0.47570737756E+02 -0.28245300054E+02  0.87042068709E+02  0.10313628746E+03  0.00000000000E+00 0.  1.
         21    1    1    2  505  502 -0.57981430655E+02 -0.62771799381E+02 -0.70826043974E+02  0.11098861925E+03  0.00000000000E+00 0.  1.
         21    1    1    2  506  505  0.23538093690E+02  0.32670887384E+02  0.11530738088E+02  0.41885399102E+02  0.00000000000E+00 0.  1.
<scales pt_clust_3="31.63767" pt_clust_4="55.32424" pt_clust_5="91.34425" pt_clust_6="31.63767"></scales>
<clustering>
<clus scale="   31.638">  3  6 -1 -1</clus>
<clus scale="   55.324">  1  4  2 -1</clus>
<clus scale="   91.344">  2  5  1 -1</clus>
<clus scale="   55.324">  1  3  2 -1</clus>
</clustering>
</event>
<event>
 6    0  0.1344929E+003  0.9689242E+02  0.7546771E-02  0.1286970E+00
         21   -1    0    0  504  501  0.00000000000E+00  0.00000000000E+00  0.20886499420E+03  0.20886499420E+03  0.00000000000E+00 0. -1.
         21   -1    0    0  505  502 -0.00000000000E+00 -0.00000000000E+00 -0.15700838284E+03  0.15700838284E+03  0.00000000000E+00 0. -1.
         21    1    1    2  503  501  0.92938432454E+02  0.63813461003E+02  0.21751574558E+02  0.11481655381E+03  0.00000000000E+00 0. -1.
         21    1    1    2  504  506 -0.47286342316E+02 -0.74431287993E+01  0.18075360098E+02  0.51167538328E+02  0.00000000000E+00 0. -1.
         21    1    1    2  505  503  0.10869352072E+02 -0.11343238263E+03  0.29469942906E+02  0.11770100160E+03  0.00000000000E+00 0. -1.
         21    1    1    2  506  502 -0.56521442210E+02  0.57062050422E+02 -0.17440266198E+02  0.82188283307E+02  0.00000000000E+00 0. -1.
<scales pt_clust_3="96.89242" pt_clust_4="47.86855" pt_clust_5="14000.00000" pt_clust_6="85.82067"></scales>
<clustering>
<clus scale="   47.869">  1  4  2 -1</clus>
<clus scale="   85.821">  2  6  1 -1</clus>
<clus scale="   96.892">  1  3  2 -1</clus>
<clus scale="   47.869">  1  3  2 -1</clus>
</clustering>
</event>
<event>
 6    0  0.1344929E+003  0.9616196E+02  0.7546771E-02  0.1288580E+00
         21   -1    0    0  506  501  0.00000000000E+00  0.00000000000E+00  0.60983178844E+03  0.60983178844E+03  0.00000000000E+00 0. -1.
         21   -1    0    0  504  502 -0.00000000000E+00 -0.00000000000E+00 -0.15656671014E+03  0.15656671014E+03  0.00000000000E+00 0. -1.
         21    1    1    2  503  502 -0.14000358531E+02  0.30047904677E+02 -0.63487360758E+02  0.71620748324E+02  0.00000000000E+00 0. -1.
         21    1    1    2  504  505  0.14348987227E+03 -0.33124582183E+01  0.75723851990E+02  0.16227882667E+03  0.00000000000E+00 0. -1.
         21    1    1    2  505  501 -0.57788815403E+02 -0.37107177247E+02  0.45377213320E+03  0.45893968957E+03  0.00000000000E+00 0. -1.
         21    1    1    2  506  503 -0.71700698337E+02  0.10371730788E+02 -0.12743546133E+02  0.73559234020E+02  0.00000000000E+00 0. -1.
<scales pt_clust_3="33.14946" pt_clust_4="14000.00000" pt_clust_5="68.55403" pt_clust_6="96.16196"></scales>
<clustering>
<clus scale="   33.149">  2  3  1 -1</clus>
<clus scale="   68.554">  1  5  2 -1</clus>
<clus scale="   96.162">  2  6  1 -1</clus>
<clus scale="   68.554">  1  3  2 -1</clus>
</clustering>
</event>
<event>
 6    0  0.1344929E+003  0.1015596E+03  0.7546771E-02  0.1277050E+00
         21   -1    0    0  506  501  0.00000000000E+00  0.00000000000E+00  0.15164823045E+03  0.15164823045E+03  0.00000000000E+00 0. -1.
         21   -1    0    0  504  502 -0.00000000000E+00 -0.00000000000E+00 -0.34415685840E+03  0.34415685840E+03  0.00000000000E+00 0. -1.
         21    1    1    2  503  505 -0.64499015453E+02  0.76398441961E+02 -0.16880922238E+03  0.19619734578E+03  0.00000000000E+00 0. -1.
         21    1    1    2  504  501 -0.10359712854E+02 -0.11897419784E+03  0.84977708067E+02  0.14657214698E+03  0.00000000000E+00 0. -1.
         21    1    1    2  505  502  0.40425567387E+02  0.23474803429E+02 -0.10318219280E+03  0.11327779043E+03  0.00000000000E+00 0. -1.
         21    1    1    2  506  503  0.34433160920E+02  0.19100952455E+02 -0.54949208388E+01  0.39757805657E+02  0.00000000000E+00 0. -1.
<scales pt_clust_3="14000.00000" pt_clust_4="101.55957" pt_clust_5="48.22445" pt_clust_6="39.37625"></scales>
<clustering>
<clus scale="   39.376">  1  6  2 -1</clus>
<clus scale="   48.224">  2  5  1 -1</clus>
<clus scale="  101.560">  1  4  2 -1</clus>
<clus scale="   39.376">  1  3  2 -1</clus>
</clustering>
</event>
<event>
 6    0  0.1344929E+003  0.7105799E+02  0.7546771E-02  0.1356532E+00
         21   -1    0    0  506  501  0.00000000000E+00  0.00000000000E+00  0.17148027373E+03  0.17148027373E+03  0.00000000000E+00 0. -1.
         21   -1    0    0  503  502 -0.00000000000E+00 -0.00000000000E+00 -0.41384086876E+03  0.41384086876E+03  0.00000000000E+00 0.  1.
         21    1    1    2  503  504  0.79675770093E+02 -0.17792247803E+02 -0.29650866655E+03  0.30754216258E+03  0.00000000000E+00 0.  1.
         21    1    1    2  504  501 -0.72803833738E+02  0.91727242266E+02  0.98871366740E+02  0.15326393033E+03  0.00000000000E+00 0. -1.
         21    1    1    2  505  502 -0.33246368444E+02 -0.29489537089E+02 -0.56126606465E+02  0.71590151318E+02  0.00000000000E+00 0. -1.
         21    1    1    2  506  505  0.26374432089E+02 -0.44445457374E+02  0.11403311243E+02  0.52924898266E+02  0.00000000000E+00 0. -1.
<scales pt_clust_3="71.05799" pt_clust_4="14000.00000" pt_clust_5="44.44045" pt_clust_6="52.24392"></scales>
<clustering>
<clus scale="   44.440">  2  5  1 -1</clus>
<clus scale="   52.244">  1  6  2 -1</clus>
<clus scale="   71.058">  2  3  1 -1</clus>
<clus scale="   52.244">  1  3  2 -1</clus>
</clustering>
</event>
<event>
 6    0  0.1344929E+003  0.1104579E+03  0.7546771E-02  0.1259724E+00
         21   -1    0    0  506  501  0.00000000000E+00  0.00000000000E+00  0.16108341759E+04  0.16108341759E+04  0.00000000000E+00 0.  1.
         21   -1    0    0  505  502 -0.00000000000E+00 -0.00000000000E+00 -0.32370024283E+02  0.32370024283E+02  0.00000000000E+00 0.  1.
         21    1    1    2  503  504  0.86924972139E+01  0.70170811172E+02  0.25682679924E+03  0.26638225740E+03  0.00000000000E+00 0.  1.
         21    1    1    2  504  502  0.52104477343E+02 -0.46559719433E+02  0.36819792187E+02  0.78983423132E+02  0.00000000000E+00 0.  1.
         21    1    1    2  505  501 -0.91404949832E+02 -0.53767231537E+02  0.11771014346E+04  0.11818686761E+04  0.00000000000E+00 0.  1.
         21    1    1    2  506  503  0.30607975275E+02  0.30156139798E+02  0.10771612556E+03  0.11596984360E+03  0.00000000000E+00 0.  1.
<scales pt_clust_3="32.06153" pt_clust_4="69.87621" pt_clust_5="102.51526" pt_clust_6="32.06153"></scales>
<clustering>
<clus scale="   32.062">  3  6 -1 -1</clus>
<clus scale="   69.876">  2  4  1 -1</clus>
<clus scale="  102.515">  1  5  2 -1</clus>
<clus scale="  102.515">  1  3  2 -1</clus>
</clustering>
</event>
<event>
 6    0  0.1344929E+003  0.9705143E+02  0.7546771E-02  0.1286621E+00
         21   -1    0    0  505  501  0.00000000000E+00  0.00000000000E+00  0.46935446524E+03  0.46935446524E+03  0.00000000000E+00 0. -1.
         21   -1    0    0  503  502 -0.00000000000E+00 -0.00000000000E+00 -0.71138473021E+02  0.71138473021E+02  0.00000000000E+00 0. -1.
         21    1    1    2  503  506  0.89667798539E+02  0.42791617305E+02  0.54645259173E+02  0.11339109734E+03  0.00000000000E+00 0. -1.
         21    1    1    2  504  502  0.12076821095E+02 -0.42820710825E+02 -0.13883235304E+02  0.46606942678E+02  0.00000000000E+00 0. -1.
         21    1    1    2  505  504 -0.88277238494E+02 -0.28018823910E+02  0.31166456278E+03  0.32513493356E+03  0.00000000000E+00 0. -1.
         21    1    1    2  506  501 -0.13467381141E+02  0.28047917430E+02  0.45789405571E+02  0.55359964681E+02  0.00000000000E+00 0.  1.
<scales pt_clust_3="97.05143" pt_clust_4="43.29414" pt_clust_5="14000.00000" pt_clust_6="31.11360"></scales>
<clustering>
<clus scale="   31.114">  1  6  2 -1</clus>
<clus scale="   43.294">  2  4  1 -1</clus>
<clus scale="   97.051">  2  3  1 -1</clus>
<clus scale="   31.114">  1  3  2 -1</clus>
</clustering>
</event>
<event>
 6    0  0.1344929E+003  0.9133444E+02  0.7546771E-02  0.1299652E+00
         21   -1    0    0  506  501  0.00000000000E+00  0.00000000000E+00  0.80448094018E+03  0.80448094018E+03  0.00000000000E+00 0. -1.
         21   -1    0    0  503  502 -0.00000000000E+00 -0.00000000000E+00 -0.27861438033E+03  0.27861438033E+03  0.00000000000E+00 0. -1.
         21    1    1    2  503  501 -0.17055346881E+02 -0.51670010026E+02 -0.24009249226E+03  0.24618098959E+03  0.00000000000E+00 0. -1.
         21    1    1    2  504  505  0.10005124901E+03  0.49734522795E+02  0.51458680313E+03  0.52657701539E+03  0.00000000000E+00 0. -1.
         21    1    1    2  505  502 -0.44630012376E+02 -0.16480696440E+02 -0.73484186906E+01  0.48139906700E+02  0.00000000000E+00 0. -1.
         21    1    1    2  506  504 -0.38365889752E+02  0.18416183671E+02  0.25872066767E+03  0.26219740883E+03  0.00000000000E+00 0. -1.
<scales pt_clust_3="91.33444" pt_clust_4="14000.00000" pt_clust_5="48.69936" pt_clust_6="42.55699"></scales>
<clustering>
<clus scale="   42.557">  1  6  2 -1</clus>
<clus scale="   48.699">  2  5  1 -1</clus>
<clus scale="   91.334">  2  3  1 -1</clus>
<clus scale="   42.557">  1  3  2 -1</clus>
</clustering>
</event>
<event>
 6    0  0.1344929E+003  0.8550908E+02  0.7546771E-02  0.1314107E+00
         21   -1    0    0  505  501  0.00000000000E+00  0.00000000000E+00  0.17642732657E+03  0.17642732657E+03  0.00000000000E+00 0.  1.
         21   -1    0    0  506  502 -0.00000000000E+00 -0.00000000000E+00 -0.46016789058E+03  0.46016789058E+03  0.00000000000E+00 0.  1.
         21    1    1    2  503  504  0.75264494848E+02  0.42708627284E+02 -0.28407815387E+03  0.29696661182E+03  0.00000000000E+00 0.  1.
         21    1    1    2  504  502 -0.26232828674E+02 -0.21026782729E+02 -0.10116054499E+03  0.10660085719E+03  0.00000000000E+00 0.  1.
         21    1    1    2  505  503 -0.23148410422E+02  0.67596077152E+02 -0.25309162362E+02  0.75799948884E+02  0.00000000000E+00 0.  1.
         21    1    1    2  506  501 -0.25883255752E+02 -0.89277921707E+02  0.12680729721E+03  0.15722779925E+03  0.00000000000E+00 0.  1.
<scales pt_clust_3="59.63101" pt_clust_4="33.61974" pt_clust_5="14000.00000" pt_clust_6="85.50908"></scales>
<clustering>
<clus scale="   33.620">  2  4  1 -1</clus>
<clus scale="   59.631">  2  3  1 -1</clus>
<clus scale="   85.509">  1  6  2 -1</clus>
<clus scale="   85.509">  1  3  2 -1</clus>
</clustering>
</event>
<event>
 6    0  0.1344929E+003  0.8407740E+02  0.7546771E-02  0.1317863E+00
         21   -1    0    0  504  501  0.00000000000E+00  0.00000000000E+00  0.13511848537E+03  0.13511848537E+03  0.00000000000E+00 0.  1.
         21   -1    0    0  505  502 -0.00000000000E+00 -0.00000000000E+00 -0.25146483797E+04  0.25146483797E+04  0.00000000000E+00 0. -1.
         21    1    1    2  503  502 -0.90010631755E+01  0.41012682135E+02 -0.33131144658E+03  0.33396157544E+03  0.00000000000E+00 0.  1.
         21    1    1    2  504  506  0.10673204971E+02  0.38875681839E+02  0.11913173855E+03  0.12576806858E+03  0.00000000000E+00 0.  1.
         21    1    1    2  505  501  0.12943712339E+02 -0.13087072922E+03 -0.21009227365E+04  0.21050346867E+04  0.00000000000E+00 0. -1.
         21    1    1    2  506  503 -0.14615854134E+02  0.50982365248E+02 -0.66427449764E+02  0.85002534318E+02  0.00000000000E+00 0.  1.
<scales pt_clust_3="45.76322" pt_clust_4="40.31422" pt_clust_5="84.07740" pt_clust_6="14000.00000"></scales>
<clustering>
<clus scale="   40.314">  1  4  2 -1</clus>
<clus scale="   45.763">  2  3  1 -1</clus>
<clus scale="   84.077">  2  5  1 -1</clus>
<clus scale="   40.314">  1  3  2 -1</clus>
</clustering>
</event>
<event>
 6    0  0.1344929E+003  0.7908694E+02  0.7546771E-02  0.1331663E+00
         21   -1    0    0  506  501  0.00000000000E+00  0.00000000000E+00  0.55117090256E+03  0.55117090256E+03  0.00000000000E+00 0. -1.
         21   -1    0    0  505  502 -0.00000000000E+00 -0.00000000000E+00 -0.17683496479E+03  0.17683496479E+03  0.00000000000E+00 0.  1.
         21    1    1    2  503  501 -0.28403565149E+02  0.12400192060E+02  0.35396055558E+03  0.35531479308E+03  0.00000000000E+00 0. -1.
         21    1    1    2  504  502  0.31234253138E+01  0.48989808954E+02 -0.16107598142E+02  0.51664416041E+02  0.00000000000E+00 0.  1.
         21    1    1    2  505  503 -0.54119860848E+02 -0.10226075611E+03 -0.10333279392E+03  0.15512539404E+03  0.00000000000E+00 0.  1.
         21    1    1    2  506  504  0.79400000683E+02  0.40870755097E+02  0.13981577425E+03  0.16590126419E+03  0.00000000000E+00 0. -1.
<scales pt_clust_3="30.99237" pt_clust_4="50.11459" pt_clust_5="14000.00000" pt_clust_6="79.08694"></scales>
<clustering>
<clus scale="   30.992">  1  3  2 -1</clus>
<clus scale="   50.115">  2  4  1 -1</clus>
<clus scale="   79.087">  1  6  2 -1</clus>
<clus scale="   30.992">  1  3  2 -1</clus>
</clustering>
</event>
<event>
 6    0  0.1344929E+003  0.1132670E+03  0.7546771E-02  0.1254637E+00
         21   -1    0    0  506  501  0.00000000000E+00  0.00000000000E+00  0.18988211026E+04  0.18988211026E+04  0.00000000000E+00 0. -1.
         21   -1    0    0  505  502 -0.00000000000E+00 -0.00000000000E+00 -0.92156095688E+02  0.92156095688E+02  0.00000000000E+00 0. -1.
         21    1    1    2  503  502 -0.99938248327E+01  0.43197957244E+02 -0.67262975148E+02  0.80562074642E+02  0.00000000000E+00 0. -1.
         21    1    1    2  504  501  0.79032354962E+00 -0.14222990437E+03  0.65336807821E+03  0.66867018472E+03  0.00000000000E+00 0. -1.
         21    1    1    2  505  504 -0.41369080943E+02  0.38082128433E+01  0.44976041288E+02  0.61227017183E+02  0.00000000000E+00 0. -1.
         21    1    1    2  506  503  0.50572582226E+02  0.95223734281E+02  0.11755838626E+04  0.11805179218E+04  0.00000000000E+00 0. -1.
<scales pt_clust_3="65.71104" pt_clust_4="113.26700" pt_clust_5="41.54399" pt_clust_6="14000.00000"></scales>
<clustering>
<clus scale="   41.544">  2  5  1 -1</clus>
<clus scale="   65.711">  2  3  1 -1</clus>
<clus scale="  113.267">  2  4  1 -1</clus>
<clus scale="  113.267">  1  3  2 -1</clus>
</clustering>
</event>
<event>
 6    0  0.1344929E+003  0.9297042E+02  0.7546771E-02  0.1295814E+00
         21   -1    0    0  503  501  0.00000000000E+00  0.00000000000E+00  0.83988042910E+02  0.83988042910E+02  0.00000000000E+00 0.  1.
         21   -1    0    0  504  502 -0.00000000000E+00 -0.00000000000E+00 -0.97329493392E+03  0.97329493392E+03  0.00000000000E+00 0.  1.
         21    1    1    2  503  506 -0.18198336076E+02 -0.89268068104E+02  0.35689116339E+02  0.97845186105E+02  0.00000000000E+00 0.  1.
         21    1    1    2  504  501 -0.39791182372E+02  0.11725285143E+03 -0.25458536593E+03  0.28309941347E+03  0.00000000000E+00 0.  1.
         21    1    1    2  505  502  0.28431303549E+02  0.13051967905E+02 -0.40124870821E+03  0.40246641938E+03  0.00000000000E+00 0. -1.
         21    1    1    2  506  505  0.29558214900E+02 -0.41036751231E+02 -0.26916193320E+03  0.27387195787E+03  0.00000000000E+00 0.  1.
<scales pt_clust_3="92.97042" pt_clust_4="14000.00000" pt_clust_5="31.28407" pt_clust_6="55.39203"></scales>
<clustering>
<clus scale="   31.284">  2  5  1 -1</clus>
<clus scale="   55.392">  2  6  1 -1</clus>
<clus scale="   92.970">  1  3  2 -1</clus>
<clus scale="   92.970">  1  3  2 -1</clus>
</clustering>
</event>
<event>
 6    0  0.1344929E+003  0.5421621E+02  0.7546771E-02  0.1423842E+00
         21   -1    0    0  504  501  0.00000000000E+00  0.00000000000E+00  0.89368572175E+03  0.89368572175E+03  0.00000000000E+00 0. -1.
         21   -1    0    0  503  502 -0.00000000000E+00 -0.00000000000E+00 -0.87020030018E+02  0.87020030018E+02  0.00000000000E+00 0. -1.
         21    1    1    2  503  506  0.45567184118E+02  0.26173012629E+02 -0.64036872705E+02  0.82837889425E+02  0.00000000000E+00 0. -1.
         21    1    1    2  504  502  0.13980077453E+02  0.52485507705E+02  0.34407482143E+03  0.34833554775E+03  0.00000000000E+00 0. -1.
         21    1    1    2  505  501  0.34530968414E+02 -0.20196214708E+02  0.21777482799E+03  0.22141849645E+03  0.00000000000E+00 0. -1.
         21    1    1    2  506  505 -0.94078229985E+02 -0.58462305626E+02  0.30885291502E+03  0.32811381813E+03  0.00000000000E+00 0. -1.
<scales pt_clust_3="54.21621" pt_clust_4="52.71935" pt_clust_5="40.00344" pt_clust_6="14000.00000"></scales>
<clustering>
<clus scale="   40.003">  1  5  2 -1</clus>
<clus scale="   52.719">  1  4  2 -1</clus>
<clus scale="   54.216">  2  3  1 -1</clus>
<clus scale="   40.003">  1  3  2 -1</clus>
</clustering>
</event>
<event>
 6    0  0.1344929E+003  0.6676269E+02  0.7546771E-02  0.1371461E+00
         21   -1    0    0  506  501  0.00000000000E+00  0.00000000000E+00  0.72505675906E+02  0.72505675906E+02  0.00000000000E+00 0. -1.
         21   -1    0    0  504  502 -0.00000000000E+00 -0.00000000000E+00 -0.11665407774E+04  0.11665407774E+04  0.00000000000E+00 0. -1.
         21    1    1    2  503  502 -0.68566501921E+01  0.36598237587E+02 -0.36319677497E+03  0.36510045466E+03  0.00000000000E+00 0. -1.
         21    1    1    2  504  505 -0.38473861575E+01 -0.99729191510E+02 -0.73368763776E+03  0.74044463927E+03  0.00000000000E+00 0. -1.
         21    1    1    2  505  501 -0.32155004963E+02  0.68161526133E+02  0.31520848016E+02  0.81691504139E+02  0.00000000000E+00 0. -1.
         21    1    1    2  506  503  0.42859041313E+02 -0.50305722097E+01 -0.28671536795E+02  0.51809855252E+02  0.00000000000E+00 0. -1.
<scales pt_clust_3="37.23499" pt_clust_4="14000.00000" pt_clust_5="66.76269" pt_clust_6="42.63507"></scales>
<clustering>
<clus scale="   37.235">  2  3  1 -1</clus>
<clus scale="   42.635">  1  6  2 -1</clus>
<clus scale="   66.763">  1  5  2 -1</clus>
<clus scale="   42.635">  1  3  2 -1</clus>
</clustering>
</event>
<event>
 6    0  0.1344929E+003  0.7612079E+02  0.7546771E-02  0.1340435E+00
         21   -1    0    0  504  501  0.00000000000E+00  0.00000000000E+00  0.62157487777E+02  0.62157487777E+02  0.00000000000E+00 0. -1.
         21   -1    0    0  503  502 -0.00000000000E+00 -0.00000000000E+00 -0.16339145853E+04  0.16339145853E+04  0.00000000000E+00 0. -1.
         21    1    1    2  503  501  0.23538759181E+02  0.49246210983E+02 -0.13101808032E+04  0.13113172765E+04  0.00000000000E+00 0. -1.
         21    1    1    2  504  506 -0.18385311346E+02  0.63983125288E+02 -0.27422382209E+02  0.71998937777E+02  0.00000000000E+00 0. -1.
         21    1    1    2  505  502  0.37346759527E+02 -0.20833300742E+02 -0.20142897103E+03  0.20591852087E+03  0.00000000000E+00 0. -1.
         21    1    1    2  506  505 -0.42500207362E+02 -0.92396035530E+02 -0.32724941037E+02  0.10683733792E+03  0.00000000000E+00 0. -1.
<scales pt_clust_3="65.16183" pt_clust_4="76.12079" pt_clust_5="42.76455" pt_clust_6="14000.00000"></scales>
<clustering>
<clus scale="   42.765">  2  5  1 -1</clus>
<clus scale="   65.162">  2  3  1 -1</clus>
<clus scale="   76.121">  1  4  2 -1</clus>
<clus scale="   76.121">  1  3  2 -1</clus>
</clustering>
</event>
<event>
 6    0  0.1344929E+003  0.2141668E+03  0.7546771E-02  0.1138308E+00
         21   -1    0    0  506  501  0.00000000000E+00  0.00000000000E+00  0.40045300629E+03  0.40045300629E+03  0.00000000000E+00 0. -1.
         21   -1    0    0  505  502 -0.00000000000E+00 -0.00000000000E+00 -0.38642913351E+03  0.38642913351E+03  0.00000000000E+00 0. -1.
         21    1    1    2  503  501 -0.14819422697E+03  0.98166349117E+02  0.23233369187E+03  0.29253564806E+03  0.00000000000E+00 0. -1.
         21    1    1    2  504  503  0.88128510747E+02 -0.41496797952E+02 -0.10340437820E+03  0.14206014247E+03  0.00000000000E+00 0. -1.
         21    1    1    2  505  504  0.36589868437E+02 -0.10756724369E+03 -0.21179795031E+03  0.24034954159E+03  0.00000000000E+00 0. -1.
         21    1    1    2  506  502  0.23475847781E+02  0.50897692522E+02  0.96892509417E+02  0.11193680768E+03  0.00000000000E+00 0. -1.
<scales pt_clust_3="191.72249" pt_clust_4="89.15899" pt_clust_5="89.15899" pt_clust_6="56.05079"></scales>
<clustering>
<clus scale="   56.051">  1  6  2 -1</clus>
<clus scale="   89.159">  4  5 -1 -1</clus>
<clus scale="  191.722">  1  3  2 -1</clus>
<clus scale="   56.051">  1  3  2 -1</clus>
</clustering>
</event>
<event>
 6    0  0.1344929E+003  0.1216257E+03  0.7546771E-02  0.1240439E+00
         21   -1    0    0  504  501  0.00000000000E+00  0.00000000000E+00  0.81665088466E+03  0.81665088466E+03  0.00000000000E+00 0. -1.
         21   -1    0    0  506  502 -0.00000000000E+00 -0.00000000000E+00 -0.10311277248E+03  0.10311277248E+03  0.00000000000E+00 0.  1.
         21    1    1    2  503  501 -0.10596850358E+03  0.50645456567E+02  0.58904509271E+03  0.60063999806E+03  0.00000000000E+00 0. -1.
         21    1    1    2  504  505  0.11021245854E+03 -0.94005406876E+02  0.16828072722E+03  0.22204100003E+03  0.00000000000E+00 0.  1.
         21    1    1    2  505  502  0.32782577387E+02  0.47665585236E+01 -0.15378822203E+02  0.36522946659E+02  0.00000000000E+00 0. -1.
         21    1    1    2  506  503 -0.37026532347E+02  0.38593391785E+02 -0.28408885553E+02  0.60559712395E+02  0.00000000000E+00 0.  1.
<scales pt_clust_3="14000.00000" pt_clust_4="121.62566" pt_clust_5="33.12729" pt_clust_6="45.14090"></scales>
<clustering>
<clus scale="   33.127">  2  5  1 -1</clus>
<clus scale="   45.141">  2  6  1 -1</clus>
<clus scale="  121.626">  2  4  1 -1</clus>
<clus scale="  121.626">  1  3  2 -1</clus>
</clustering>
</event>
<event>
 6    0  0.1344929E+003  0.9422761E+02  0.7546771E-02  0.1292925E+00
         21   -1    0    0  505  501  0.00000000000E+00  0.00000000000E+00  0.15989841397E+04  0.15989841397E+04  0.00000000000E+00 0. -1.
         21   -1    0    0  503  502 -0.00000000000E+00 -0.00000000000E+00 -0.58578379392E+02  0.58578379392E+02  0.00000000000E+00 0.  1.
         21    1    1    2  503  501  0.11616202378E+03  0.93212997229E+02  0.12238569454E+04  0.12328860862E+04  0.00000000000E+00 0. -1.
         21    1    1    2  504  506 -0.31183373833E+02 -0.21016267052E+02  0.12509516639E+03  0.13062498588E+03  0.00000000000E+00 0. -1.
         21    1    1    2  505  504 -0.51102206887E+00 -0.34549351043E+02  0.19833106055E+03  0.20131847501E+03  0.00000000000E+00 0.  1.
         21    1    1    2  506  502 -0.84467627875E+02 -0.37647379134E+02 -0.68774119981E+01  0.92732972077E+02  0.00000000000E+00 0.  1.
<scales pt_clust_3="14000.00000" pt_clust_4="39.49273" pt_clust_5="34.55313" pt_clust_6="94.22761"></scales>
<clustering>
<clus scale="   34.553">  1  5  2 -1</clus>
<clus scale="   39.493">  1  4  2 -1</clus>
<clus scale="   94.228">  2  6  1 -1</clus>
<clus scale="   34.553">  1  3  2 -1</clus>
</clustering>
</event>
<event>
 6    0  0.1344929E+003  0.1054574E+03  0.7546771E-02  0.1269221E+00
         21   -1    0    0  502  501  0.00000000000E+00  0.00000000000E+00  0.85447140655E+03  0.85447140655E+03  0.00000000000E+00 0. -1.
         21   -1    0    0  506  502 -0.00000000000E+00 -0.00000000000E+00 -0.19517035192E+03  0.19517035192E+03  0.00000000000E+00 0. -1.
         21    1    1    2  503  504 -0.17500947136E+02 -0.10053965338E+03  0.11189615863E+03  0.15144390172E+03  0.00000000000E+00 0. -1.
         21    1    1    2  504  505 -0.31553149214E+02  0.10802553707E+03  0.73391802550E+02  0.13435577608E+03  0.00000000000E+00 0. -1.
         21    1    1    2  505  501  0.21734969527E+02 -0.34276372765E+02  0.61572203376E+03  0.61705826426E+03  0.00000000000E+00 0. -1.
         21    1    1    2  506  503  0.27319126823E+02  0.26790489075E+02 -0.14170894032E+03  0.14678381641E+03  0.00000000000E+00 0. -1.
<scales pt_clust_3="14000.00000" pt_clust_4="105.45737" pt_clust_5="40.48476" pt_clust_6="38.26310"></scales>
<clustering>
<clus scale="   38.263">  2  6  1 -1</clus>
<clus scale="   40.485">  1  5  2 -1</clus>
<clus scale="  105.457">  1  4  2 -1</clus>
<clus scale="   40.485">  1  3  2 -1</clus>
</clustering>
</event>
<event>
 6    0  0.1344929E+003  0.1317333E+03  0.7546771E-02  0.1224906E+00
         21   -1    0    0  504  501  0.00000000000E+00  0.00000000000E+00  0.27661370079E+03  0.27661370079E+03  0.00000000000E+00 0.  1.
         21   -1    0    0  506  502 -0.00000000000E+00 -0.00000000000E+00 -0.20898401304E+03  0.20898401304E+03  0.00000000000E+00 0.  1.
         21    1    1    2  503  501  0.57836742405E+02 -0.56719271610E+01  0.28644568766E+02  0.64790206432E+02  0.00000000000E+00 0.  1.
         21    1    1    2  504  505 -0.17974247113E+03  0.36155546417E+02  0.14041875735E+03  0.23093723580E+03  0.00000000000E+00 0.  1.
         21    1    1    2  505  502  0.27061461793E+02  0.35718131346E+02 -0.26697777327E+02  0.52162044970E+02  0.00000000000E+00 0. -1.
         21    1    1    2  506  503  0.94844266933E+02 -0.66201750602E+02 -0.74735861039E+02  0.13770822662E+03  0.00000000000E+00 0.  1.
<scales pt_clust_3="60.74986" pt_clust_4="14000.00000" pt_clust_5="44.81191" pt_clust_6="131.73330"></scales>
<clustering>
<clus scale="   44.812">  2  5  1 -1</clus>
<clus scale="   60.750">  1  3  2 -1</clus>
<clus scale="  131.733">  2  6  1 -1</clus>
<clus scale="   60.750">  1  3  2 -1</clus>
</clustering>
</event>
<event>
 6    0  0.1344929E+003  0.9213828E+02  0.7546771E-02  0.1297755E+00
         21   -1    0    0  504  501  0.00000000000E+00  0.00000000000E+00  0.18701363430E+03  0.18701363430E+03  0.00000000000E+00 0.  1.
         21   -1    0    0  503  502 -0.00000000000E+00 -0.00000000000E+00 -0.17480856652E+03  0.17480856652E+03  0.00000000000E+00 0. -1.
         21    1    1    2  503  506 -0.65165275889E+02 -0.60102005144E+02 -0.97440129143E+02  0.13173208786E+03  0.00000000000E+00 0. -1.
         21    1    1    2  504  505 -0.30273947598E+02  0.62318603040E+01  0.69866732573E+02  0.76398352773E+02  0.00000000000E+00 0.  1.
         21    1    1    2  505  502  0.75257301298E+02  0.79525909121E+02  0.48729904407E+02  0.11984421222E+03  0.00000000000E+00 0.  1.
         21    1    1    2  506  501  0.20181922189E+02 -0.25655764281E+02 -0.89514400629E+01  0.33847547966E+02  0.00000000000E+00 0.  1.
<scales pt_clust_3="92.13828" pt_clust_4="30.90870" pt_clust_5="14000.00000" pt_clust_6="30.13999"></scales>
<clustering>
<clus scale="   30.909">  1  4  2 -1</clus>
<clus scale="   30.140">  1  6  2 -1</clus>
<clus scale="   92.138">  2  3  1 -1</clus>
<clus scale="   30.909">  1  3  2 -1</clus>
</clustering>
</event>
<event>
 6    0  0.2074391E+003  0.7423078E+02  0.7546771E-02  0.1346270E+00
         21   -1    0    0  504  501  0.00000000000E+00  0.00000000000E+00  0.73309799861E+03  0.73309799861E+03  0.00000000000E+00 0.  1.
         21   -1    0    0  503  502 -0.00000000000E+00 -0.00000000000E+00 -0.41499815349E+03  0.41499815349E+03  0.00000000000E+00 0. -1.
         21    1    1    2  503  505  0.74023039327E+02 -0.41612279808E+01 -0.36938974543E+03  0.37675656624E+03  0.00000000000E+00 0. -1.
         21    1    1    2  504  502  0.16030744274E+02 -0.26741136355E+02  0.11792474183E+02  0.33333700408E+02  0.00000000000E+00 0. -1.
         21    1    1    2  505  506 -0.43152149075E+02  0.77285988137E+02  0.37044668950E+02  0.95955924412E+02  0.00000000000E+00 0. -1.
         21    1    1    2  506  501 -0.46901634526E+02 -0.46383623801E+02  0.63865244742E+03  0.64204996104E+03  0.00000000000E+00 0.  1.
<scales pt_clust_3="74.23078" pt_clust_4="31.17809" pt_clust_5="14000.00000" pt_clust_6="72.49873"></scales>
<clustering>
<clus scale="   31.178">  1  4  2 -1</clus>
<clus scale="   74.231">  2  3  1 -1</clus>
<clus scale="   72.499">  1  6  2 -1</clus>
<clus scale="   31.178">  1  3  2 -1</clus>
</clustering>
</event>
<event>
 6    0  0.1344929E+003  0.1591586E+03  0.7546771E-02  0.1189650E+00
         21   -1    0    0  504  501  0.00000000000E+00  0.00000000000E+00  0.69465294837E+03  0.69465294837E+03  0.00000000000E+00 0.  1.
         21   -1    0    0  505  502 -0.00000000000E+00 -0.00000000000E+00 -0.15277625919E+04  0.15277625919E+04  0.00000000000E+00 0. -1.
         21    1    1    2  503  502 -0.28519416718E+02  0.24971269884E+02 -0.12727745839E+04  0.12733389427E+04  0.00000000000E+00 0. -1.
         21    1    1    2  504  506  0.69776696673E+02  0.37293890946E+02  0.58446894258E+03  0.58979959863E+03  0.00000000000E+00 0.  1.
         21    1    1    2  505  501 -0.11968998834E+03 -0.16125652823E+03 -0.10641651795E+03  0.22727480392E+03  0.00000000000E+00 0.  1.
         21    1    1    2  506  503  0.78432708380E+02  0.98991367398E+02 -0.38387484281E+02  0.13200219510E+03  0.00000000000E+00 0.  1.
<scales pt_clust_3="37.90675" pt_clust_4="78.97861" pt_clust_5="14000.00000" pt_clust_6="159.15862"></scales>
<clustering>
<clus scale="   37.907">  2  3  1 -1</clus>
<clus scale="   78.979">  1  4  2 -1</clus>
<clus scale="  159.159">  2  6  1 -1</clus>
<clus scale="   78.979">  1  3  2 -1</clus>
</clustering>
</event>
<event>
 6    0  0.1540821E+003  0.1413113E+03  0.7546771E-02  0.1211575E+00
         21   -1    0    0  505  501  0.00000000000E+00  0.00000000000E+00  0.13872941675E+03  0.13872941675E+03  0.00000000000E+00 0. -1.
         21   -1    0    0  506  502 -0.00000000000E+00 -0.00000000000E+00 -0.17294235441E+04  0.17294235441E+04  0.00000000000E+00 0.  1.
         21    1    1    2  503  502  0.34760565852E+02  0.11923949624E+03 -0.10136087276E+04  0.10211899956E+04  0.00000000000E+00 0.  1.
         21    1    1    2  504  501 -0.41617420498E+02 -0.11373931368E+03  0.31588932649E+02  0.12516589724E+03  0.00000000000E+00 0. -1.
         21    1    1    2  505  503  0.33914801751E+02 -0.30525256328E+02  0.46756222748E+02  0.65331075434E+02  0.00000000000E+00 0. -1.
         21    1    1    2  506  504 -0.27057947106E+02  0.25025073775E+02 -0.65543055511E+03  0.65646599256E+03  0.00000000000E+00 0.  1.
<scales pt_clust_3="141.31135" pt_clust_4="14000.00000" pt_clust_5="45.31015" pt_clust_6="36.85630"></scales>
<clustering>
<clus scale="   36.856">  2  6  1 -1</clus>
<clus scale="   45.310">  1  5  2 -1</clus>
<clus scale="  141.311">  2  3  1 -1</clus>
<clus scale="   45.310">  1  3  2 -1</clus>
</clustering>
</event>
<event>
 6    0  0.1344929E+003  0.7019435E+02  0.7546771E-02  0.1359433E+00
         21   -1    0    0  505  501  0.00000000000E+00  0.00000000000E+00  0.24337176488E+03  0.24337176488E+03  0.00000000000E+00 0. -1.
         21   -1    0    0  503  502 -0.00000000000E+00 -0.00000000000E+00 -0.39213668399E+03  0.39213668399E+03  0.00000000000E+00 0. -1.
         21    1    1    2  503  504 -0.82779056174E+01 -0.33867929532E+02 -0.20211402096E+03  0.20509909274E+03  0.00000000000E+00 0. -1.
         21    1    1    2  504  501  0.37255346760E+02 -0.54818715593E+02  0.18416380019E+03  0.19572776436E+03  0.00000000000E+00 0. -1.
         21    1    1    2  505  506 -0.56233610497E+02  0.10747906251E+03 -0.25055715176E+02  0.12386184517E+03  0.00000000000E+00 0. -1.
         21    1    1    2  506  502  0.27256169354E+02 -0.18792417381E+02 -0.10575898315E+03  0.11081974660E+03  0.00000000000E+00 0. -1.
<scales pt_clust_3="48.67146" pt_clust_4="70.19435" pt_clust_5="14000.00000" pt_clust_6="33.10670"></scales>
<clustering>
<clus scale="   33.107">  2  6  1 -1</clus>
<clus scale="   48.671">  2  3  1 -1</clus>
<clus scale="   70.194">  1  4  2 -1</clus>
<clus scale="   70.194">  1  3  2 -1</clus>
</clustering>
</event>
<event>
 6    0  0.1344929E+003  0.7365263E+02  0.7546771E-02  0.1348095E+00
         21   -1    0    0  505  501  0.00000000000E+00  0.00000000000E+00  0.58597304104E+03  0.58597304104E+03  0.00000000000E+00 0.  1.
         21   -1    0    0  506  502 -0.00000000000E+00 -0.00000000000E+00 -0.24386635312E+03  0.24386635312E+03  0.00000000000E+00 0. -1.
         21    1    1    2  503  502  0.67365939691E+02  0.27964697441E+02 -0.17366060346E+03  0.18835657495E+03  0.00000000000E+00 0. -1.
         21    1    1    2  504  503 -0.54441991408E+02 -0.64716339137E+02 -0.19103571020E+02  0.86701103830E+02  0.00000000000E+00 0. -1.
         21    1    1    2  505  504  0.37630162555E+02 -0.18469365632E+02  0.55246260720E+02  0.69349087408E+02  0.00000000000E+00 0. -1.
         21    1    1    2  506  501 -0.50554110838E+02  0.55221007328E+02  0.47962460167E+03  0.48543262797E+03  0.00000000000E+00 0.  1.
<scales pt_clust_3="73.65263" pt_clust_4="14000.00000" pt_clust_5="41.91833" pt_clust_6="41.37212"></scales>
<clustering>
<clus scale="   41.918">  1  5  2 -1</clus>
<clus scale="   41.372">  1  6  2 -1</clus>
<clus scale="   73.653">  2  3  1 -1</clus>
<clus scale="   41.918">  1  3  2 -1</clus>
</clustering>
</event>
<event>
 6    0  0.1344929E+003  0.1101811E+03  0.7546771E-02  0.1260235E+00
         21   -1    0    0  505  501  0.00000000000E+00  0.00000000000E+00  0.18400129232E+03  0.18400129232E+03  0.00000000000E+00 0. -1.
         21   -1    0    0  504  502 -0.00000000000E+00 -0.00000000000E+00 -0.36302100179E+03  0.36302100179E+03  0.00000000000E+00 0. -1.
         21    1    1    2  503  501  0.55392218629E+02 -0.48428842541E+02  0.20042984390E+02  0.76258585731E+02  0.00000000000E+00 0. -1.
         21    1    1    2  504  506 -0.95994273718E+02 -0.27865149873E+01 -0.11442924528E+03  0.14938780883E+03  0.00000000000E+00 0. -1.
         21    1    1    2  505  502  0.33902918643E+02  0.13620584844E+03  0.60666463967E+02  0.15291128438E+03  0.00000000000E+00 0. -1.
         21    1    1    2  506  503  0.66991364463E+01 -0.84990490909E+02 -0.14529991256E+03  0.16846461516E+03  0.00000000000E+00 0. -1.
<scales pt_clust_3="73.57751" pt_clust_4="89.32356" pt_clust_5="14000.00000" pt_clust_6="110.18114"></scales>
<clustering>
<clus scale="   73.578">  1  3  2 -1</clus>
<clus scale="   89.324">  2  4  1 -1</clus>
<clus scale="  110.181">  2  6  1 -1</clus>
<clus scale="   73.578">  1  3  2 -1</clus>
</clustering>
</event>
<event>
 6    0  0.1344929E+003  0.9190642E+02  0.7546771E-02  0.1298300E+00
         21   -1    0    0  506  501  0.00000000000E+00  0.00000000000E+00  0.74260764555E+03  0.74260764555E+03  0.00000000000E+00 0.  1.
         21   -1    0    0  505  502 -0.00000000000E+00 -0.00000000000E+00 -0.32295300414E+03  0.32295300414E+03  0.00000000000E+00 0. -1.
         21    1    1    2  503  502  0.31026799118E+02 -0.58503344143E+01 -0.22150475485E+03  0.22374370404E+03  0.00000000000E+00 0. -1.
         21    1    1    2  504  503  0.15042386455E+02  0.11061644678E+03  0.47096131478E+02  0.12116235920E+03  0.00000000000E+00 0. -1.
         21    1    1    2  505  501 -0.55022346033E+02 -0.73667183563E+02 -0.29260818677E+02  0.96490973706E+02  0.00000000000E+00 0. -1.
         21    1    1    2  506  504  0.89531604603E+01 -0.31098928800E+02  0.62332408346E+03  0.62416361275E+03  0.00000000000E+00 0.  1.
<scales pt_clust_3="31.57354" pt_clust_4="91.90642" pt_clust_5="14000.00000" pt_clust_6="32.42170"></scales>
<clustering>
<clus scale="   31.574">  2  3  1 -1</clus>
<clus scale="   32.422">  1  6  2 -1</clus>
<clus scale="   91.906">  1  4  2 -1</clus>
<clus scale="   32.422">  1  3  2 -1</clus>
</clustering>
</event>
<event>
 6    0  0.1344929E+003  0.6977707E+02  0.7546771E-02  0.1360853E+00
         21   -1    0    0  506  501  0.00000000000E+00  0.00000000000E+00  0.16213486544E+03  0.16213486544E+03  0.00000000000E+00 0. -1.
         21   -1    0    0  504  502 -0.00000000000E+00 -0.00000000000E+00 -0.59741023148E+03  0.59741023148E+03  0.00000000000E+00 0. -1.
         21    1    1    2  503  502  0.33753394563E+02 -0.91622793436E+02 -0.10445662800E+03  0.14298676531E+03  0.00000000000E+00 0.  1.
         21    1    1    2  504  505 -0.13928401181E+02  0.38619826991E+02 -0.29403685203E+03  0.29688914050E+03  0.00000000000E+00 0. -1.
         21    1    1    2  505  501 -0.56438231474E+02 -0.69376436559E+01 -0.16442352239E+03  0.17397844575E+03  0.00000000000E+00 0. -1.
         21    1    1    2  506  503  0.36613238092E+02  0.59940610101E+02  0.12764163638E+03  0.14569074535E+03  0.00000000000E+00 0. -1.
<scales pt_clust_3="69.77707" pt_clust_4="41.05474" pt_clust_5="65.90439" pt_clust_6="14000.00000"></scales>
<clustering>
<clus scale="   41.055">  2  4  1 -1</clus>
<clus scale="   65.904">  2  5  1 -1</clus>
<clus scale="   69.777">  2  3  1 -1</clus>
<clus scale="   69.777">  1  3  2 -1</clus>
</clustering>
</event>
<event>
 6    0  0.1344929E+003  0.1240380E+03  0.7546771E-02  0.1236580E+00
         21   -1    0    0  505  501  0.00000000000E+00  0.00000000000E+00  0.47336856850E+03  0.47336856850E+03  0.00000000000E+00 0. -1.
         21   -1    0    0  506  502 -0.00000000000E+00 -0.00000000000E+00 -0.19098952348E+04  0.19098952348E+04  0.00000000000E+00 0. -1.
         21    1    1    2  503  502  0.34757157197E+02 -0.58238373234E+01 -0.12016918792E+04  0.12022085300E+04  0.00000000000E+00 0. -1.
         21    1    1    2  504  503  0.44798556160E+02  0.33993659477E+02 -0.66564043591E+03  0.66801172852E+03  0.00000000000E+00 0. -1.
         21    1    1    2  505  504 -0.49794383344E+02  0.10486307395E+03  0.92917844521E+02  0.14869253755E+03  0.00000000000E+00 0. -1.
         21    1    1    2  506  501 -0.29761330013E+02 -0.13303289611E+03  0.33788780427E+03  0.36435100726E+03  0.00000000000E+00 0. -1.
<scales pt_clust_3="35.24169" pt_clust_4="82.61167" pt_clust_5="124.03799" pt_clust_6="14000.00000"></scales>
<clustering>
<clus scale="   35.242">  2  3  1 -1</clus>
<clus scale="   82.612">  2  4  1 -1</clus>
<clus scale="  124.038">  2  5  1 -1</clus>
<clus scale="  124.038">  1  3  2 -1</clus>
</clustering>
</event>
<event>
 6    0  0.1344929E+003  0.8987391E+02  0.7546771E-02  0.1303157E+00
         21   -1    0    0  506  501  0.00000000000E+00  0.00000000000E+00  0.89618419637E+02  0.89618419637E+02  0.00000000000E+00 0. -1.
         21   -1    0    0  505  502 -0.00000000000E+00 -0.00000000000E+00 -0.46475114608E+03  0.46475114608E+03  0.00000000000E+00 0. -1.
         21    1    1    2  503  502 -0.79992004072E+02  0.10456682574E+02 -0.20714909318E+03  0.22230341817E+03  0.00000000000E+00 0. -1.
         21    1    1    2  504  501 -0.42014683438E+02 -0.22283517266E+02 -0.54879817300E+01  0.47873862489E+02  0.00000000000E+00 0. -1.
         21    1    1    2  505  504  0.11414231903E+03 -0.78554622472E+02 -0.12287134904E+03  0.18519359092E+03  0.00000000000E+00 0. -1.
         21    1    1    2  506  503  0.78643684819E+01  0.90381457165E+02 -0.39624302489E+02  0.98998694126E+02  0.00000000000E+00 0. -1.
<scales pt_clust_3="14000.00000" pt_clust_4="47.55827" pt_clust_5="89.87391" pt_clust_6="81.37619"></scales>
<clustering>
<clus scale="   47.558">  1  4  2 -1</clus>
<clus scale="   81.376">  1  6  2 -1</clus>
<clus scale="   89.874">  1  5  2 -1</clus>
<clus scale="   47.558">  1  3  2 -1</clus>
</clustering>
</event>
<event>
 6    0  0.1344929E+003  0.1240894E+03  0.7546771E-02  0.1236499E+00
         21   -1    0    0  503  501  0.00000000000E+00  0.00000000000E+00  0.51384070781E+03  0.51384070781E+03  0.00000000000E+00 0. -1.
         21   -1    0    0  506  502 -0.00000000000E+00 -0.00000000000E+00 -0.11996107596E+04  0.11996107596E+04  0.00000000000E+00 0. -1.
         21    1    1    2  503  504  0.46836737961E+02 -0.68139289483E+01  0.17878370061E+03  0.18494248093E+03  0.00000000000E+00 0.  1.
         21    1    1    2  504  502  0.45209850131E+02  0.43402056866E+02  0.19313135139E+03  0.20304528553E+03  0.00000000000E+00 0. -1.
         21    1    1    2  505  501  0.21262715657E+02 -0.50785312460E+02  0.12536131635E+03  0.13691862794E+03  0.00000000000E+00 0. -1.
         21    1    1    2  506  505 -0.11330930375E+03  0.14197184542E+02 -0.11830464201E+04  0.11885450730E+04  0.00000000000E+00 0. -1.
<scales pt_clust_3="42.59508" pt_clust_4="42.59508" pt_clust_5="55.05680" pt_clust_6="113.99886"></scales>
<clustering>
<clus scale="   42.595">  3  4 -1 -1</clus>
<clus scale="   55.057">  1  5  2 -1</clus>
<clus scale="  113.999">  2  6  1 -1</clus>
<clus scale="   55.057">  1  3  2 -1</clus>
</clustering>
</event>
<event>
 6    0  0.1344929E+003  0.1054829E+03  0.7546771E-02  0.1269171E+00
         21   -1    0    0  506  501  0.00000000000E+00  0.00000000000E+00  0.93365742628E+02  0.93365742628E+02  0.00000000000E+00 0.  1.
         21   -1    0    0  503  502 -0.00000000000E+00 -0.00000000000E+00 -0.43966199377E+03  0.43966199377E+03  0.00000000000E+00 0.  1.
         21    1    1    2  503  504 -0.88205964839E+01  0.35726608281E+02 -0.12558905797E+03  0.13086941943E+03  0.00000000000E+00 0. -1.
         21    1    1    2  504  501  0.99447285526E+01  0.88931090240E+02 -0.13027323923E+03  0.15804668075E+03  0.00000000000E+00 0.  1.
         21    1    1    2  505  502 -0.18469080522E+02 -0.36242211552E+02 -0.13684324864E+03  0.14276091738E+03  0.00000000000E+00 0.  1.
         21    1    1    2  506  505  0.17344948453E+02 -0.88415486969E+02  0.46409294698E+02  0.10135071883E+03  0.00000000000E+00 0.  1.
<scales pt_clust_3="31.84620" pt_clust_4="31.84620" pt_clust_5="40.67683" pt_clust_6="93.06156"></scales>
<clustering>
<clus scale="   31.846">  3  4 -1 -1</clus>
<clus scale="   40.677">  2  5  1 -1</clus>
<clus scale="   93.062">  1  6  2 -1</clus>
<clus scale="   93.062">  1  3  2 -1</clus>
</clustering>
</event>
<event>
 6    0  0.1344929E+003  0.8826775E+02  0.7546771E-02  0.1307102E+00
         21   -1    0    0  504  501  0.00000000000E+00  0.00000000000E+00  0.12153638726E+04  0.12153638726E+04  0.00000000000E+00 0. -1.
         21   -1    0    0  506  502 -0.00000000000E+00 -0.00000000000E+00 -0.22191079912E+04  0.22191079912E+04  0.00000000000E+00 0. -1.
         21    1    1    2  503  501  0.12469319764E+03  0.13242276366E+02  0.25310880527E+03  0.28246737639E+03  0.00000000000E+00 0.  1.
         21    1    1    2  504  505 -0.62646134657E+02  0.49700690204E+02  0.94400558431E+03  0.94738653147E+03  0.00000000000E+00 0. -1.
         21    1    1    2  505  502 -0.29878339337E+02 -0.76926702474E+02 -0.10550291078E+04  0.10582517900E+04  0.00000000000E+00 0. -1.
         21    1    1    2  506  503 -0.32168723641E+02  0.13983735903E+02 -0.11458294003E+04  0.11463661659E+04  0.00000000000E+00 0. -1.
<scales pt_clust_3="14000.00000" pt_clust_4="80.02024" pt_clust_5="88.26775" pt_clust_6="35.07665"></scales>
<clustering>
<clus scale="   35.077">  2  6  1 -1</clus>
<clus scale="   80.020">  1  4  2 -1</clus>
<clus scale="   88.268">  2  5  1 -1</clus>
<clus scale="   80.020">  1  3  2 -1</clus>
</clustering>
</event>
<event>
 6    0  0.1344929E+003  0.1776233E+03  0.7546771E-02  0.1170123E+00
         21   -1    0    0  503  501  0.00000000000E+00  0.00000000000E+00  0.44544741678E+03  0.44544741678E+03  0.00000000000E+00 0.  1.
         21   -1    0    0  506  502 -0.00000000000E+00 -0.00000000000E+00 -0.76637648886E+03  0.76637648886E+03  0.00000000000E+00 0. -1.
         21    1    1    2  503  505  0.16628317654E+03  0.98746533722E+02  0.35629623248E+03  0.40539854218E+03  0.00000000000E+00 0.  1.
         21    1    1    2  504  502 -0.44638921008E+02 -0.19113798999E+01 -0.32979362872E+03  0.33280643652E+03  0.00000000000E+00 0. -1.
         21    1    1    2  505  504 -0.12547313341E+03 -0.57524718538E+02 -0.39109734790E+03  0.41474056467E+03  0.00000000000E+00 0. -1.
         21    1    1    2  506  501  0.38288778808E+01 -0.39310435283E+02  0.43665672057E+02  0.58878362275E+02  0.00000000000E+00 0.  1.
<scales pt_clust_3="177.62331" pt_clust_4="44.67189" pt_clust_5="14000.00000" pt_clust_6="39.49646"></scales>
<clustering>
<clus scale="   39.496">  1  6  2 -1</clus>
<clus scale="   44.672">  2  4  1 -1</clus>
<clus scale="  177.623">  1  3  2 -1</clus>
<clus scale="   39.496">  1  3  2 -1</clus>
</clustering>
</event>
<event>
 6    0  0.1344929E+003  0.2893802E+03  0.7546771E-02  0.1090673E+00
         21   -1    0    0  503  501  0.00000000000E+00  0.00000000000E+00  0.69966858059E+03  0.69966858059E+03  0.00000000000E+00 0. -1.
         21   -1    0    0  504  502 -0.00000000000E+00 -0.00000000000E+00 -0.79245750032E+03  0.79245750032E+03  0.00000000000E+00 0.  1.
         21    1    1    2  503  506  0.14641277449E+03 -0.15695080638E+03  0.44270649820E+03  0.49199522326E+03  0.00000000000E+00 0. -1.
         21    1    1    2  504  501  0.17877586115E+02  0.44429788587E+02 -0.54710704960E+03  0.54919917874E+03  0.00000000000E+00 0.  1.
         21    1    1    2  505  502 -0.23845920468E+03  0.12883534568E+03 -0.12201305521E+03  0.29723479648E+03  0.00000000000E+00 0.  1.
         21    1    1    2  506  505  0.74168844078E+02 -0.16314327888E+02  0.13362468689E+03  0.15369688244E+03  0.00000000000E+00 0. -1.
<scales pt_clust_3="46.39445" pt_clust_4="47.89169" pt_clust_5="278.67056" pt_clust_6="46.39445"></scales>
<clustering>
<clus scale="   46.394">  3  6 -1 -1</clus>
<clus scale="   47.892">  2  4  1 -1</clus>
<clus scale="  278.671">  2  5  1 -1</clus>
<clus scale="  289.380">  1  3  2 -1</clus>
</clustering>
</event>
<event>
 6    0  0.1344929E+003  0.1046236E+03  0.7546771E-02  0.1270863E+00
         21   -1    0    0  504  501  0.00000000000E+00  0.00000000000E+00  0.20936192830E+04  0.20936192830E+04  0.00000000000E+00 0.  1.
         21   -1    0    0  503  502 -0.00000000000E+00 -0.00000000000E+00 -0.33938323101E+02  0.33938323101E+02  0.00000000000E+00 0. -1.
         21    1    1    2  503  506  0.30649346362E+02  0.23048033717E+02  0.32595552598E+03  0.32820359415E+03  0.00000000000E+00 0.  1.
         21    1    1    2  504  505  0.52205135852E+02 -0.84585453563E+02  0.95801755168E+03  0.96316026937E+03  0.00000000000E+00 0.  1.
         21    1    1    2  505  502 -0.10137890542E+03  0.34926823649E+02  0.66348979990E+02  0.12609422120E+03  0.00000000000E+00 0. -1.
         21    1    1    2  506  501  0.18524423200E+02  0.26610596197E+02  0.70935890224E+03  0.71009952139E+03  0.00000000000E+00 0.  1.
<scales pt_clust_3="45.69040" pt_clust_4="104.62359" pt_clust_5="14000.00000" pt_clust_6="32.42342"></scales>
<clustering>
<clus scale="   32.423">  1  6  2 -1</clus>
<clus scale="   45.690">  1  3  2 -1</clus>
<clus scale="  104.624">  1  4  2 -1</clus>
<clus scale="   32.423">  1  3  2 -1</clus>
</clustering>
</event>
<event>
 6    0  0.1344929E+003  0.1278919E+03  0.7546771E-02  0.1230618E+00
         21   -1    0    0  506  501  0.00000000000E+00  0.00000000000E+00  0.23646866771E+03  0.23646866771E+03  0.00000000000E+00 0.  1.
         21   -1    0    0  505  502 -0.00000000000E+00 -0.00000000000E+00 -0.21197059074E+03  0.21197059074E+03  0.00000000000E+00 0.  1.
         21    1    1    2  503  502 -0.19367527817E+02  0.33006992199E+02 -0.49494800294E+02  0.62564350263E+02  0.00000000000E+00 0.  1.
         21    1    1    2  504  501  0.54520506514E+02  0.76419980679E+01  0.10618824828E+03  0.11961116101E+03  0.00000000000E+00 0.  1.
         21    1    1    2  505  504 -0.13575580112E+03  0.31057762837E+02 -0.31208398984E+02  0.14271715502E+03  0.00000000000E+00 0.  1.
         21    1    1    2  506  503  0.10060282242E+03 -0.71706753104E+02 -0.98697203780E+00  0.12354659216E+03  0.00000000000E+00 0.  1.
<scales pt_clust_3="38.26961" pt_clust_4="54.44648" pt_clust_5="127.89186" pt_clust_6="14000.00000"></scales>
<clustering>
<clus scale="   38.270">  2  3  1 -1</clus>
<clus scale="   54.446">  1  4  2 -1</clus>
<clus scale="  127.892">  1  5  2 -1</clus>
<clus scale="   54.446">  1  3  2 -1</clus>
</clustering>
</event>
<event>
 6    0  0.1344929E+003  0.9741191E+02  0.7546771E-02  0.1285834E+00
         21   -1    0    0  504  501  0.00000000000E+00  0.00000000000E+00  0.16028285694E+04  0.16028285694E+04  0.00000000000E+00 0. -1.
         21   -1    0    0  506  502 -0.00000000000E+00 -0.00000000000E+00 -0.28508925493E+03  0.28508925493E+03  0.00000000000E+00 0.  1.
         21    1    1    2  503  502 -0.30104520909E+02 -0.22685702061E+02 -0.81819314974E+02  0.90085090665E+02  0.00000000000E+00 0.  1.
         21    1    1    2  504  503 -0.59544738503E+02  0.22142447492E+02  0.15215992277E+04  0.15229248418E+04  0.00000000000E+00 0. -1.
         21    1    1    2  505  501  0.15249680241E+03 -0.30833359650E+02 -0.28893218878E+02  0.15824281629E+03  0.00000000000E+00 0.  1.
         21    1    1    2  506  505 -0.62847542995E+02  0.31376614219E+02 -0.93147379393E+02  0.11666507561E+03  0.00000000000E+00 0.  1.
<scales pt_clust_3="37.69514" pt_clust_4="63.59614" pt_clust_5="14000.00000" pt_clust_6="97.41191"></scales>
<clustering>
<clus scale="   37.695">  2  3  1 -1</clus>
<clus scale="   63.596">  1  4  2 -1</clus>
<clus scale="   97.412">  2  6  1 -1</clus>
<clus scale="   63.596">  1  3  2 -1</clus>
</clustering>
</event>
<event>
 6    0  0.1344929E+003  0.6681661E+02  0.7546771E-02  0.1371266E+00
         21   -1    0    0  505  501  0.00000000000E+00  0.00000000000E+00  0.22901492966E+03  0.22901492966E+03  0.00000000000E+00 0.  1.
         21   -1    0    0  504  502 -0.00000000000E+00 -0.00000000000E+00 -0.31202568860E+03  0.31202568860E+03  0.00000000000E+00 0.  1.
         21    1    1    2  503  502  0.38405054423E+02 -0.20877250240E+02 -0.12818962040E+03  0.13543775899E+03  0.00000000000E+00 0.  1.
         21    1    1    2  504  506  0.72339356322E+02 -0.46281880220E+02  0.91650880540E+02  0.12559808443E+03  0.00000000000E+00 0.  1.
         21    1    1    2  505  503 -0.66597472934E+02  0.74799800757E+02 -0.14242197880E+03  0.17410988955E+03  0.00000000000E+00 0.  1.
         21    1    1    2  506  501 -0.44146937812E+02 -0.76406702966E+01  0.95949959713E+02  0.10589488529E+03  0.00000000000E+00 0.  1.
<scales pt_clust_3="43.71279" pt_clust_4="66.81661" pt_clust_5="14000.00000" pt_clust_6="43.86372"></scales>
<clustering>
<clus scale="   43.713">  2  3  1 -1</clus>
<clus scale="   43.864">  1  6  2 -1</clus>
<clus scale="   66.817">  1  4  2 -1</clus>
<clus scale="   43.864">  1  3  2 -1</clus>
</clustering>
</event>
<event>
 6    0  0.1344929E+003  0.2101714E+03  0.7546771E-02  0.1141430E+00
         21   -1    0    0  505  501  0.00000000000E+00  0.00000000000E+00  0.11202104707E+04  0.11202104707E+04  0.00000000000E+00 0.  1.
         21   -1    0    0  504  502 -0.00000000000E+00 -0.00000000000E+00 -0.67427129847E+03  0.67427129847E+03  0.00000000000E+00 0.  1.
         21    1    1    2  503  502 -0.22169443772E+02  0.19819590690E+03 -0.47276573116E+03  0.51310870029E+03  0.00000000000E+00 0.  1.
         21    1    1    2  504  501 -0.15466016801E+03  0.34634624765E+02  0.22963643604E+03  0.27902010242E+03  0.00000000000E+00 0.  1.
         21    1    1    2  505  506  0.50461468630E+01  0.47501244665E+02  0.67140280801E+03  0.67309996467E+03  0.00000000000E+00 0.  1.
         21    1    1    2  506  503  0.17178346492E+03 -0.28033177633E+03  0.17665659305E+02  0.32925300175E+03  0.00000000000E+00 0.  1.
<scales pt_clust_3="14000.00000" pt_clust_4="163.81932" pt_clust_5="47.76852" pt_clust_6="210.17144"></scales>
<clustering>
<clus scale="   47.769">  1  5  2 -1</clus>
<clus scale="  163.819">  1  4  2 -1</clus>
<clus scale="  210.171">  1  6  2 -1</clus>
<clus scale="   47.769">  1  3  2 -1</clus>
</clustering>
</event>
<event>
 6    0  0.1344929E+003  0.7352936E+02  0.7546771E-02  0.1348487E+00
         21   -1    0    0  504  501  0.00000000000E+00  0.00000000000E+00  0.22545717273E+03  0.22545717273E+03  0.00000000000E+00 0.  1.
         21   -1    0    0  501  502 -0.00000000000E+00 -0.00000000000E+00 -0.78389415722E+03  0.78389415722E+03  0.00000000000E+00 0. -1.
         21    1    1    2  503  505 -0.41476505331E+02  0.11639289019E+01 -0.81922917957E+02  0.91831474515E+02  0.00000000000E+00 0. -1.
         21    1    1    2  504  506 -0.26047641009E+02  0.63723033250E+02  0.15783712632E+03  0.17219658247E+03  0.00000000000E+00 0.  1.
         21    1    1    2  505  502 -0.68126996617E+01  0.29648099031E+02 -0.62386407444E+03  0.62460532021E+03  0.00000000000E+00 0. -1.
         21    1    1    2  506  503  0.74336846002E+02 -0.94535061183E+02 -0.10487118417E+02  0.12071795276E+03  0.00000000000E+00 0.  1.
<scales pt_clust_3="48.38109" pt_clust_4="14000.00000" pt_clust_5="30.42076" pt_clust_6="73.52936"></scales>
<clustering>
<clus scale="   30.421">  2  5  1 -1</clus>
<clus scale="   48.381">  2  3  1 -1</clus>
<clus scale="   73.529">  2  6  1 -1</clus>
<clus scale="   73.529">  1  3  2 -1</clus>
</clustering>
</event>
<event>
 6    0  0.1344929E+003  0.1867413E+03  0.7546771E-02  0.1161434E+00
         21   -1    0    0  506  501  0.00000000000E+00  0.00000000000E+00  0.18177200364E+04  0.18177200364E+04  0.00000000000E+00 0.  1.
         21   -1    0    0  505  502 -0.00000000000E+00 -0.00000000000E+00 -0.64931155644E+02  0.64931155644E+02  0.00000000000E+00 0. -1.
         21    1    1    2  503  502 -0.58930039753E+02  0.84115744280E+02  0.44982110467E+02  0.11212313893E+03  0.00000000000E+00 0. -1.
         21    1    1    2  504  503 -0.70384684837E+02  0.50947807817E+02  0.53888124205E+02  0.10224291130E+03  0.00000000000E+00 0. -1.
         21    1    1    2  505  501  0.55850021621E+02  0.60485630358E+01  0.31760830717E+03  0.32253813234E+03  0.00000000000E+00 0. -1.
         21    1    1    2  506  504  0.73464702969E+02 -0.14111211513E+03  0.13363103389E+04  0.13457470095E+04  0.00000000000E+00 0.  1.
<scales pt_clust_3="32.03475" pt_clust_4="32.03475" pt_clust_5="56.17660" pt_clust_6="183.46469"></scales>
<clustering>
<clus scale="   32.035">  3  4 -1 -1</clus>
<clus scale="   56.177">  1  5  2 -1</clus>
<clus scale="  183.465">  1  6  2 -1</clus>
<clus scale="   56.177">  1  3  2 -1</clus>
</clustering>
</event>
<event>
 6    0  0.1344929E+003  0.8622721E+02  0.7546771E-02  0.1312254E+00
         21   -1    0    0  504  501  0.00000000000E+00  0.00000000000E+00  0.34769177253E+03  0.34769177253E+03  0.00000000000E+00 0.  1.
         21   -1    0    0  506  502 -0.00000000000E+00 -0.00000000000E+00 -0.21087638445E+03  0.21087638445E+03  0.00000000000E+00 0. -1.
         21    1    1    2  503  501  0.50383446149E+02 -0.95304954465E+02  0.90920968782E+02  0.14102534721E+03  0.00000000000E+00 0. -1.
         21    1    1    2  504  505 -0.27568043456E+02  0.12708669833E+02  0.21172268089E+03  0.21388782319E+03  0.00000000000E+00 0.  1.
         21    1    1    2  505  502 -0.52362506352E+02  0.53646517116E+02 -0.12349250824E+03  0.14446515311E+03  0.00000000000E+00 0. -1.
         21    1    1    2  506  503  0.29547103659E+02  0.28949767516E+02 -0.42335753349E+02  0.59189833464E+02  0.00000000000E+00 0. -1.
<scales pt_clust_3="14000.00000" pt_clust_4="30.35634" pt_clust_5="86.22721" pt_clust_6="40.72971"></scales>
<clustering>
<clus scale="   30.356">  1  4  2 -1</clus>
<clus scale="   40.730">  2  6  1 -1</clus>
<clus scale="   86.227">  2  5  1 -1</clus>
<clus scale="   30.356">  1  3  2 -1</clus>
</clustering>
</event>
<event>
 6    0  0.1344929E+003  0.1164260E+03  0.7546771E-02  0.1249112E+00
         21   -1    0    0  504  501  0.00000000000E+00  0.00000000000E+00  0.26316257972E+03  0.26316257972E+03  0.00000000000E+00 0.  1.
         21   -1    0    0  503  502 -0.00000000000E+00 -0.00000000000E+00 -0.10197420292E+04  0.10197420292E+04  0.00000000000E+00 0.  1.
         21    1    1    2  503  506 -0.37119159302E+02  0.12583240535E+02 -0.14867436111E+03  0.15375381485E+03  0.00000000000E+00 0.  1.
         21    1    1    2  504  505  0.88234631779E+02  0.14638959104E+03  0.19978252448E+03  0.26292264965E+03  0.00000000000E+00 0.  1.
         21    1    1    2  505  502  0.10021698845E+01 -0.12162942433E+03 -0.79056289069E+03  0.79986524199E+03  0.00000000000E+00 0.  1.
         21    1    1    2  506  501 -0.52117642362E+02 -0.37343407243E+02 -0.17124722167E+02  0.66362902432E+02  0.00000000000E+00 0. -1.
<scales pt_clust_3="39.19400" pt_clust_4="116.42596" pt_clust_5="14000.00000" pt_clust_6="65.23127"></scales>
<clustering>
<clus scale="   39.194">  2  3  1 -1</clus>
<clus scale="   65.231">  1  6  2 -1</clus>
<clus scale="  116.426">  1  4  2 -1</clus>
<clus scale="   65.231">  1  3  2 -1</clus>
</clustering>
</event>
<event>
 6    0  0.1344929E+003  0.1654080E+03  0.7546771E-02  0.1182723E+00
         21   -1    0    0  505  501  0.00000000000E+00  0.00000000000E+00  0.59988946376E+03  0.59988946376E+03  0.00000000000E+00 0.  1.
         21   -1    0    0  504  502 -0.00000000000E+00 -0.00000000000E+00 -0.10867960311E+03  0.10867960311E+03  0.00000000000E+00 0.  1.
         21    1    1    2  503  506  0.14578334472E+03  0.65810409939E+02  0.80021914959E+02  0.17884993857E+03  0.00000000000E+00 0.  1.
         21    1    1    2  504  503 -0.80889996459E+01  0.31811834366E+02 -0.12603999040E+02  0.35160851992E+02  0.00000000000E+00 0.  1.
         21    1    1    2  505  502 -0.11690584145E+03 -0.13304445197E+03  0.20050699404E+03  0.26752730071E+03  0.00000000000E+00 0.  1.
         21    1    1    2  506  501 -0.20788503625E+02  0.35422207663E+02  0.22328495069E+03  0.22703097560E+03  0.00000000000E+00 0.  1.
<scales pt_clust_3="165.40798" pt_clust_4="32.82415" pt_clust_5="14000.00000" pt_clust_6="41.76875"></scales>
<clustering>
<clus scale="   32.824">  2  4  1 -1</clus>
<clus scale="   41.769">  1  6  2 -1</clus>
<clus scale="  165.408">  2  3  1 -1</clus>
<clus scale="   41.769">  1  3  2 -1</clus>
</clustering>
</event>
<event>
 6    0  0.1344929E+003  0.1678239E+03  0.7546771E-02  0.1180136E+00
         21   -1    0    0  503  501  0.00000000000E+00  0.00000000000E+00  0.27276823922E+03  0.27276823922E+03  0.00000000000E+00 0. -1.
         21   -1    0    0  504  502 -0.00000000000E+00 -0.00000000000E+00 -0.34148399063E+03  0.34148399063E+03  0.00000000000E+00 0. -1.
         21    1    1    2  503  505  0.32734494725E+02  0.73048382405E+02  0.87110648194E+02  0.11830417721E+03  0.00000000000E+00 0. -1.
         21    1    1    2  504  501 -0.14900159268E+03  0.10531473621E+02 -0.21276540855E+03  0.25996443148E+03  0.00000000000E+00 0. -1.
         21    1    1    2  505  506  0.15294352970E+03 -0.29112973799E+02  0.67107340204E+02  0.16953667341E+03  0.00000000000E+00 0. -1.
         21    1    1    2  506  502 -0.36676431741E+02 -0.54466882228E+02 -0.10168331266E+02  0.66446947753E+02  0.00000000000E+00 0. -1.
<scales pt_clust_3="76.72113" pt_clust_4="167.82386" pt_clust_5="14000.00000" pt_clust_6="65.66431"></scales>
<clustering>
<clus scale="   65.664">  2  6  1 -1</clus>
<clus scale="   76.721">  1  3  2 -1</clus>
<clus scale="  167.824">  2  4  1 -1</clus>
<clus scale="   76.721">  1  3  2 -1</clus>
</clustering>
</event>
<event>
 6    0  0.1344929E+003  0.8439078E+02  0.7546771E-02  0.1317033E+00
         21   -1    0    0  504  501  0.00000000000E+00  0.00000000000E+00  0.52193973930E+03  0.52193973930E+03  0.00000000000E+00 0.  1.
         21   -1    0    0  503  502 -0.00000000000E+00 -0.00000000000E+00 -0.18090942931E+03  0.18090942931E+03  0.00000000000E+00 0. -1.
         21    1    1    2  503  501  0.76544453372E+02 -0.35496874145E+02 -0.11614888193E+03  0.14356059414E+03  0.00000000000E+00 0. -1.
         21    1    1    2  504  505  0.30971309526E+01  0.85978075918E+02  0.43414335166E+03  0.44258589172E+03  0.00000000000E+00 0.  1.
         21    1    1    2  505  506 -0.69770571269E+02 -0.74738022353E+01  0.16641976279E+02  0.72116195890E+02  0.00000000000E+00 0.  1.
         21    1    1    2  506  502 -0.98710130552E+01 -0.43007399537E+02  0.63938639832E+01  0.44586486858E+02  0.00000000000E+00 0. -1.
<scales pt_clust_3="84.39078" pt_clust_4="14000.00000" pt_clust_5="72.98839" pt_clust_6="44.12565"></scales>
<clustering>
<clus scale="   44.126">  2  6  1 -1</clus>
<clus scale="   72.988">  2  5  1 -1</clus>
<clus scale="   84.391">  2  3  1 -1</clus>
<clus scale="   84.391">  1  3  2 -1</clus>
</clustering>
</event>
<event>
 6    0  0.1344929E+003  0.1580779E+03  0.7546771E-02  0.1190884E+00
         21   -1    0    0  505  501  0.00000000000E+00  0.00000000000E+00  0.40360591966E+03  0.40360591966E+03  0.00000000000E+00 0. -1.
         21   -1    0    0  503  502 -0.00000000000E+00 -0.00000000000E+00 -0.14582808237E+04  0.14582808237E+04  0.00000000000E+00 0. -1.
         21    1    1    2  503  501 -0.21211415989E+03 -0.79724730905E+01  0.21210506736E+03  0.30007421874E+03  0.00000000000E+00 0. -1.
         21    1    1    2  504  502  0.30698515112E+02  0.44525018686E+02 -0.52563732810E+03  0.52841222243E+03  0.00000000000E+00 0. -1.
         21    1    1    2  505  506  0.54898266350E+02 -0.83537773162E+01  0.13591217570E+03  0.14681867983E+03  0.00000000000E+00 0. -1.
         21    1    1    2  506  504  0.12651737843E+03 -0.28198768279E+02 -0.87705481899E+03  0.88658162235E+03  0.00000000000E+00 0. -1.
<scales pt_clust_3="158.07789" pt_clust_4="54.08212" pt_clust_5="55.66944" pt_clust_6="14000.00000"></scales>
<clustering>
<clus scale="   54.082">  2  4  1 -1</clus>
<clus scale="   55.669">  1  5  2 -1</clus>
<clus scale="  158.078">  1  3  2 -1</clus>
<clus scale="   55.669">  1  3  2 -1</clus>
</clustering>
</event>
<event>
 6    0  0.1344929E+003  0.7812190E+02  0.7546771E-02  0.1334467E+00
         21   -1    0    0  506  501  0.00000000000E+00  0.00000000000E+00  0.63803936635E+02  0.63803936635E+02  0.00000000000E+00 0. -1.
         21   -1    0    0  505  502 -0.00000000000E+00 -0.00000000000E+00 -0.49288249603E+03  0.49288249603E+03  0.00000000000E+00 0. -1.
         21    1    1    2  503  504 -0.96843665973E+02 -0.32129769750E+02 -0.87624996636E+02  0.13449593964E+03  0.00000000000E+00 0. -1.
         21    1    1    2  504  502 -0.18249142192E+02 -0.29810297594E+02 -0.15248686019E+03  0.15644145091E+03  0.00000000000E+00 0. -1.
         21    1    1    2  505  501  0.50290435507E+02  0.34806756611E+02 -0.18559706352E+03  0.19541470824E+03  0.00000000000E+00 0. -1.
         21    1    1    2  506  503  0.64802372658E+02  0.27133310734E+02 -0.33696390427E+01  0.70334333869E+02  0.00000000000E+00 0. -1.
<scales pt_clust_3="78.12190" pt_clust_4="34.95261" pt_clust_5="43.88986" pt_clust_6="14000.00000"></scales>
<clustering>
<clus scale="   34.953">  2  4  1 -1</clus>
<clus scale="   43.890">  2  5  1 -1</clus>
<clus scale="   78.122">  2  3  1 -1</clus>
<clus scale="   78.122">  1  3  2 -1</clus>
</clustering>
</event>
<event>
 6    0  0.1344929E+003  0.7429105E+02  0.7546771E-02  0.1346081E+00
         21   -1    0    0  503  501  0.00000000000E+00  0.00000000000E+00  0.64599797801E+03  0.64599797801E+03  0.00000000000E+00 0.  1.
         21   -1    0    0  506  502 -0.00000000000E+00 -0.00000000000E+00 -0.33847151554E+03  0.33847151554E+03  0.00000000000E+00 0. -1.
         21    1    1    2  503  504 -0.31109628826E+02 -0.60360222264E+02  0.40929447415E+03  0.41488930091E+03  0.00000000000E+00 0.  1.
         21    1    1    2  504  505  0.22066475871E+02  0.10293210373E+03  0.21143918856E+03  0.23619584627E+03  0.00000000000E+00 0.  1.
         21    1    1    2  505  502 -0.42943545977E+02 -0.19610872285E+02 -0.76041229921E+02  0.89504207168E+02  0.00000000000E+00 0.  1.
         21    1    1    2  506  501  0.51986698932E+02 -0.22961009184E+02 -0.23716597034E+03  0.24388013920E+03  0.00000000000E+00 0. -1.
<scales pt_clust_3="14000.00000" pt_clust_4="74.29105" pt_clust_5="47.20947" pt_clust_6="42.99990"></scales>
<clustering>
<clus scale="   47.209">  2  5  1 -1</clus>
<clus scale="   43.000">  2  6  1 -1</clus>
<clus scale="   74.291">  2  4  1 -1</clus>
<clus scale="   74.291">  1  3  2 -1</clus>
</clustering>
</event>
<event>
 6    0  0.1344929E+003  0.8925335E+02  0.7546771E-02  0.1304670E+00
         21   -1    0    0  504  501  0.00000000000E+00  0.00000000000E+00  0.33841785483E+04  0.33841785483E+04  0.00000000000E+00 0.  1.
         21   -1    0    0  505  502 -0.00000000000E+00 -0.00000000000E+00 -0.10672678078E+03  0.10672678078E+03  0.00000000000E+00 0.  1.
         21    1    1    2  503  502 -0.38828240368E+01 -0.52883506571E+02 -0.79622374563E+02  0.95663285124E+02  0.00000000000E+00 0.  1.
         21    1    1    2  504  503 -0.10411595369E+03  0.12732204165E+02  0.16487843690E+03  0.19541530081E+03  0.00000000000E+00 0.  1.
         21    1    1    2  505  506  0.20518734348E+02  0.25001467869E+02  0.78988074562E+02  0.85353428624E+02  0.00000000000E+00 0.  1.
         21    1    1    2  506  501  0.87480043377E+02  0.15149834538E+02  0.31132076306E+04  0.31144733145E+04  0.00000000000E+00 0.  1.
<scales pt_clust_3="34.46876" pt_clust_4="89.25335" pt_clust_5="32.34334" pt_clust_6="14000.00000"></scales>
<clustering>
<clus scale="   32.343">  2  5  1 -1</clus>
<clus scale="   34.469">  2  3  1 -1</clus>
<clus scale="   89.253">  2  4  1 -1</clus>
<clus scale="   89.253">  1  3  2 -1</clus>
</clustering>
</event>
<event>
 6    0  0.1344929E+003  0.1857508E+03  0.7546771E-02  0.1162351E+00
         21   -1    0    0  505  501  0.00000000000E+00  0.00000000000E+00  0.89990211573E+02  0.89990211573E+02  0.00000000000E+00 0.  1.
         21   -1    0    0  503  502 -0.00000000000E+00 -0.00000000000E+00 -0.78514874777E+03  0.78514874777E+03  0.00000000000E+00 0.  1.
         21    1    1    2  503  506  0.24308066024E+01  0.31992326404E+02 -0.21885061370E+03  0.22118998370E+03  0.00000000000E+00 0.  1.
         21    1    1    2  504  502 -0.44814732820E+02  0.28362901429E+02 -0.11461166236E+03  0.12628795510E+03  0.00000000000E+00 0.  1.
         21    1    1    2  505  504  0.38099431856E+02  0.15959104465E+03 -0.14784724427E+03  0.22086121406E+03  0.00000000000E+00 0.  1.
         21    1    1    2  506  501  0.42844943622E+01 -0.21994627248E+03 -0.21384901587E+03  0.30679980648E+03  0.00000000000E+00 0.  1.
<scales pt_clust_3="32.08454" pt_clust_4="56.56802" pt_clust_5="185.75082" pt_clust_6="14000.00000"></scales>
<clustering>
<clus scale="   32.085">  2  3  1 -1</clus>
<clus scale="   56.568">  2  4  1 -1</clus>
<clus scale="  185.751">  1  5  2 -1</clus>
<clus scale="  185.751">  1  3  2 -1</clus>
</clustering>
</event>
<event>
 6    0  0.1344929E+003  0.1563995E+03  0.7546771E-02  0.1192823E+00
         21   -1    0    0  503  501  0.00000000000E+00  0.00000000000E+00  0.76453556974E+03  0.76453556974E+03  0.00000000000E+00 0.  1.
         21   -1    0    0  506  502 -0.00000000000E+00 -0.00000000000E+00 -0.41088203420E+03  0.41088203420E+03  0.00000000000E+00 0.  1.
         21    1    1    2  503  502  0.37931743634E+02  0.59062261212E+00  0.44513513073E+03  0.44674875559E+03  0.00000000000E+00 0.  1.
         21    1    1    2  504  505 -0.10181482789E+03  0.10858763287E+03 -0.13125024126E+03  0.19845442555E+03  0.00000000000E+00 0.  1.
         21    1    1    2  505  501 -0.60669328896E+02 -0.39612650997E+01  0.25389822775E+03  0.26107617498E+03  0.00000000000E+00 0.  1.
         21    1    1    2  506  504  0.12455241315E+03 -0.10521699039E+03 -0.21412958169E+03  0.26913824782E+03  0.00000000000E+00 0.  1.
<scales pt_clust_3="37.93634" pt_clust_4="14000.00000" pt_clust_5="30.21445" pt_clust_6="156.39950"></scales>
<clustering>
<clus scale="   37.936">  1  3  2 -1</clus>
<clus scale="   30.214">  1  5  2 -1</clus>
<clus scale="  156.400">  2  6  1 -1</clus>
<clus scale="   37.936">  1  3  2 -1</clus>
</clustering>
</event>
<event>
 6    0  0.1344929E+003  0.1267470E+03  0.7546771E-02  0.1232364E+00
         21   -1    0    0  503  501  0.00000000000E+00  0.00000000000E+00  0.75633105682E+02  0.75633105682E+02  0.00000000000E+00 0. -1.
         21   -1    0    0  506  502 -0.00000000000E+00 -0.00000000000E+00 -0.20349419486E+04  0.20349419486E+04  0.00000000000E+00 0. -1.
         21    1    1    2  503  505  0.37445037994E+02 -0.57035780947E+02 -0.56241814422E+02  0.88421450271E+02  0.00000000000E+00 0. -1.
         21    1    1    2  504  502  0.14294143958E+03 -0.47831584053E+02 -0.34712060752E+03  0.37843471266E+03  0.00000000000E+00 0. -1.
         21    1    1    2  505  504 -0.63407174455E+02  0.66836912384E+02 -0.97561768636E+01  0.92643540608E+02  0.00000000000E+00 0. -1.
         21    1    1    2  506  501 -0.11697930312E+03  0.38030452617E+02 -0.15461902441E+04  0.15510753507E+04  0.00000000000E+00 0. -1.
<scales pt_clust_3="68.22911" pt_clust_4="126.74699" pt_clust_5="46.16392" pt_clust_6="14000.00000"></scales>
<clustering>
<clus scale="   68.229">  1  3  2 -1</clus>
<clus scale="   46.164">  1  5  2 -1</clus>
<clus scale="  126.747">  1  4  2 -1</clus>
<clus scale="   68.229">  1  3  2 -1</clus>
</clustering>
</event>
<event>
 6    0  0.1344929E+003  0.9220077E+02  0.7546771E-02  0.1297608E+00
         21   -1    0    0  503  501  0.00000000000E+00  0.00000000000E+00  0.75021085954E+02  0.75021085954E+02  0.00000000000E+00 0. -1.
         21   -1    0    0  504  502 -0.00000000000E+00 -0.00000000000E+00 -0.59796999173E+03  0.59796999173E+03  0.00000000000E+00 0. -1.
         21    1    1    2  503  505  0.74134806855E+01  0.77652093608E+02 -0.30085337924E+03  0.31080148510E+03  0.00000000000E+00 0. -1.
         21    1    1    2  504  506 -0.90089220010E+02 -0.58792622201E+02 -0.88806774961E+02  0.13949653496E+03  0.00000000000E+00 0. -1.
         21    1    1    2  505  502  0.41475589351E+02  0.14699910261E+02 -0.15805540104E+03  0.16406651600E+03  0.00000000000E+00 0. -1.
         21    1    1    2  506  501  0.41200149974E+02 -0.33559381669E+02  0.24766649476E+02  0.58626541618E+02  0.00000000000E+00 0. -1.
<scales pt_clust_3="92.20077" pt_clust_4="14000.00000" pt_clust_5="44.00354" pt_clust_6="54.04433"></scales>
<clustering>
<clus scale="   44.004">  2  5  1 -1</clus>
<clus scale="   54.044">  1  6  2 -1</clus>
<clus scale="   92.201">  2  3  1 -1</clus>
<clus scale="   54.044">  1  3  2 -1</clus>
</clustering>
</event>
<event>
 6    0  0.1344929E+003  0.8979613E+02  0.7546771E-02  0.1303346E+00
         21   -1    0    0  505  501  0.00000000000E+00  0.00000000000E+00  0.71991022733E+03  0.71991022733E+03  0.00000000000E+00 0. -1.
         21   -1    0    0  506  502 -0.00000000000E+00 -0.00000000000E+00 -0.42149171903E+03  0.42149171903E+03  0.00000000000E+00 0.  1.
         21    1    1    2  503  504 -0.56088874494E+02 -0.32300185116E+02  0.46207609665E+03  0.46658716537E+03  0.00000000000E+00 0. -1.
         21    1    1    2  504  501 -0.38514049781E+02  0.30919544352E+02  0.17261643954E+03  0.17954326902E+03  0.00000000000E+00 0.  1.
         21    1    1    2  505  502  0.49508354848E+02 -0.78814866105E+02 -0.38154425409E+03  0.39273257841E+03  0.00000000000E+00 0.  1.
         21    1    1    2  506  503  0.45094569427E+02  0.80195506869E+02  0.45270226201E+02  0.10253893355E+03  0.00000000000E+00 0. -1.
<scales pt_clust_3="89.16827" pt_clust_4="49.38978" pt_clust_5="89.79613" pt_clust_6="14000.00000"></scales>
<clustering>
<clus scale="   49.390">  1  4  2 -1</clus>
<clus scale="   89.168">  1  3  2 -1</clus>
<clus scale="   89.796">  2  5  1 -1</clus>
<clus scale="   49.390">  1  3  2 -1</clus>
</clustering>
</event>
<event>
 6    0  0.1344929E+003  0.1501436E+03  0.7546771E-02  0.1200297E+00
         21   -1    0    0  504  501  0.00000000000E+00  0.00000000000E+00  0.13188279609E+03  0.13188279609E+03  0.00000000000E+00 0. -1.
         21   -1    0    0  503  502 -0.00000000000E+00 -0.00000000000E+00 -0.65206242291E+03  0.65206242291E+03  0.00000000000E+00 0. -1.
         21    1    1    2  503  505  0.86136173753E+02  0.12524104787E+03 -0.13114082412E+03  0.20075526457E+03  0.00000000000E+00 0. -1.
         21    1    1    2  504  506 -0.51664974087E+02 -0.20054286590E+02 -0.66643708964E+02  0.86676570667E+02  0.00000000000E+00 0. -1.
         21    1    1    2  505  501  0.17886987722E+02  0.36155870043E+02  0.67423288375E+02  0.78569021145E+02  0.00000000000E+00 0. -1.
         21    1    1    2  506  502 -0.52358187388E+02 -0.14134263132E+03 -0.38981838211E+03  0.41794436262E+03  0.00000000000E+00 0. -1.
<scales pt_clust_3="14000.00000" pt_clust_4="50.57146" pt_clust_5="40.33846" pt_clust_6="150.14364"></scales>
<clustering>
<clus scale="   40.338">  1  5  2 -1</clus>
<clus scale="   50.571">  1  4  2 -1</clus>
<clus scale="  150.144">  2  6  1 -1</clus>
<clus scale="   40.338">  1  3  2 -1</clus>
</clustering>
</event>
<event>
 6    0  0.1344929E+003  0.9604117E+02  0.7546771E-02  0.1288848E+00
         21   -1    0    0  503  501  0.00000000000E+00  0.00000000000E+00  0.47638238463E+02  0.47638238463E+02  0.00000000000E+00 0.  1.
         21   -1    0    0  506  502 -0.00000000000E+00 -0.00000000000E+00 -0.17693619757E+04  0.17693619757E+04  0.00000000000E+00 0.  1.
         21    1    1    2  503  505 -0.43290065192E+02 -0.21302542426E+02  0.12709670515E+02  0.49893524457E+02  0.00000000000E+00 0.  1.
         21    1    1    2  504  502 -0.25233776002E+02 -0.46935480701E+02 -0.29567364720E+03  0.30043732865E+03  0.00000000000E+00 0.  1.
         21    1    1    2  505  504 -0.29115755087E+02 -0.25192084347E+02 -0.23784970190E+02  0.45255862769E+02  0.00000000000E+00 0.  1.
         21    1    1    2  506  501  0.97639596281E+02  0.93430107474E+02 -0.14149747904E+04  0.14214134983E+04  0.00000000000E+00 0.  1.
<scales pt_clust_3="34.90070" pt_clust_4="53.28867" pt_clust_5="34.90070" pt_clust_6="87.73549"></scales>
<clustering>
<clus scale="   34.901">  3  5 -1 -1</clus>
<clus scale="   53.289">  2  4  1 -1</clus>
<clus scale="   87.735">  2  6  1 -1</clus>
<clus scale="   96.041">  1  3  2 -1</clus>
</clustering>
</event>
<event>
 6    0  0.2320238E+003  0.9444718E+02  0.7546771E-02  0.1292426E+00
         21   -1    0    0  504  501  0.00000000000E+00  0.00000000000E+00  0.49299041990E+03  0.49299041990E+03  0.00000000000E+00 0.  1.
         21   -1    0    0  506  502 -0.00000000000E+00 -0.00000000000E+00 -0.76182781152E+03  0.76182781152E+03  0.00000000000E+00 0. -1.
         21    1    1    2  503  501  0.87771058728E+02  0.18876459884E+02  0.42344413678E+03  0.43285680826E+03  0.00000000000E+00 0.  1.
         21    1    1    2  504  502 -0.46659467939E+02 -0.44591560635E+01  0.12879550179E+02  0.48609390388E+02  0.00000000000E+00 0.  1.
         21    1    1    2  505  503  0.57151052800E+02 -0.20551947080E+02  0.61983243129E+00  0.60737217233E+02  0.00000000000E+00 0. -1.
         21    1    1    2  506  505 -0.98262643590E+02  0.61346432600E+01 -0.70578091101E+03  0.71261481553E+03  0.00000000000E+00 0. -1.
<scales pt_clust_3="46.93016" pt_clust_4="46.87206" pt_clust_5="94.44718" pt_clust_6="14000.00000"></scales>
<clustering>
<clus scale="   46.872">  1  4  2 -1</clus>
<clus scale="   46.930">  1  3  2 -1</clus>
<clus scale="   94.447">  1  5  2 -1</clus>
<clus scale="   46.872">  1  3  2 -1</clus>
</clustering>
</event>
<event>
 6    0  0.1344929E+003  0.8430656E+02  0.7546771E-02  0.1317256E+00
         21   -1    0    0  504  501  0.00000000000E+00  0.00000000000E+00  0.24891718787E+03  0.24891718787E+03  0.00000000000E+00 0. -1.
         21   -1    0    0  505  502 -0.00000000000E+00 -0.00000000000E+00 -0.27087217072E+03  0.27087217072E+03  0.00000000000E+00 0. -1.
         21    1    1    2  503  502 -0.71771060285E+02  0.58001913955E+02 -0.20433716943E+03  0.22420746180E+03  0.00000000000E+00 0. -1.
         21    1    1    2  504  503  0.66006017528E+02  0.54771700466E+01  0.16594067742E+02  0.68279988473E+02  0.00000000000E+00 0. -1.
         21    1    1    2  505  506 -0.24947184064E+02 -0.73359181198E+02  0.22872984660E+02  0.80790499974E+02  0.00000000000E+00 0. -1.
         21    1    1    2  506  501  0.30712226820E+02  0.98800971963E+01  0.14291513417E+03  0.14651140834E+03  0.00000000000E+00 0. -1.
<scales pt_clust_3="14000.00000" pt_clust_4="84.30656" pt_clust_5="69.12458" pt_clust_6="32.26232"></scales>
<clustering>
<clus scale="   32.262">  1  6  2 -1</clus>
<clus scale="   69.125">  1  5  2 -1</clus>
<clus scale="   84.307">  1  4  2 -1</clus>
<clus scale="   32.262">  1  3  2 -1</clus>
</clustering>
</event>
<event>
 6    0  0.1344929E+003  0.8947870E+02  0.7546771E-02  0.1304119E+00
         21   -1    0    0  503  501  0.00000000000E+00  0.00000000000E+00  0.15774976607E+03  0.15774976607E+03  0.00000000000E+00 0. -1.
         21   -1    0    0  506  502 -0.00000000000E+00 -0.00000000000E+00 -0.46949781817E+03  0.46949781817E+03  0.00000000000E+00 0. -1.
         21    1    1    2  503  504  0.60355461033E+02 -0.79477013632E+01 -0.11335443274E+02  0.61922854486E+02  0.00000000000E+00 0. -1.
         21    1    1    2  504  502  0.52112613867E+02 -0.68057733369E+02 -0.32629181069E+03  0.33736319497E+03  0.00000000000E+00 0. -1.
         21    1    1    2  505  501 -0.38178415433E+02 -0.59429018614E+02 -0.34943688771E+01  0.70722063546E+02  0.00000000000E+00 0. -1.
         21    1    1    2  506  505 -0.74289659468E+02  0.13543445335E+03  0.29373570749E+02  0.15723947124E+03  0.00000000000E+00 0. -1.
<scales pt_clust_3="60.87649" pt_clust_4="89.47870" pt_clust_5="65.56115" pt_clust_6="14000.00000"></scales>
<clustering>
<clus scale="   60.876">  1  3  2 -1</clus>
<clus scale="   65.561">  1  5  2 -1</clus>
<clus scale="   89.479">  2  4  1 -1</clus>
<clus scale="   60.876">  1  3  2 -1</clus>
</clustering>
</event>
<event>
 6    0  0.1344929E+003  0.1029967E+03  0.7546771E-02  0.1274118E+00
         21   -1    0    0  503  501  0.00000000000E+00  0.00000000000E+00  0.28841409679E+03  0.28841409679E+03  0.00000000000E+00 0.  1.
         21   -1    0    0  506  502 -0.00000000000E+00 -0.00000000000E+00 -0.13091897280E+04  0.13091897280E+04  0.00000000000E+00 0. -1.
         21    1    1    2  503  502 -0.65521460638E+02 -0.63010456787E+02 -0.29688591951E+03  0.31049094781E+03  0.00000000000E+00 0. -1.
         21    1    1    2  504  505  0.11932703472E+03  0.98514963871E+02 -0.22385079782E+03  0.27212739481E+03  0.00000000000E+00 0. -1.
         21    1    1    2  505  501 -0.35688291978E+02 -0.66670310299E+02  0.25147929345E+03  0.26260315971E+03  0.00000000000E+00 0.  1.
         21    1    1    2  506  504 -0.18117282102E+02  0.31165803216E+02 -0.75151820732E+03  0.75238232245E+03  0.00000000000E+00 0. -1.
<scales pt_clust_3="102.99669" pt_clust_4="14000.00000" pt_clust_5="75.43303" pt_clust_6="36.04918"></scales>
<clustering>
<clus scale="   36.049">  2  6  1 -1</clus>
<clus scale="   75.433">  1  5  2 -1</clus>
<clus scale="  102.997">  2  3  1 -1</clus>
<clus scale="   75.433">  1  3  2 -1</clus>
</clustering>
</event>
<event>
 6    0  0.1344929E+003  0.2636871E+03  0.7546771E-02  0.1104948E+00
         21   -1    0    0  505  501  0.00000000000E+00  0.00000000000E+00  0.51393309633E+03  0.51393309633E+03  0.00000000000E+00 0.  1.
         21   -1    0    0  506  502 -0.00000000000E+00 -0.00000000000E+00 -0.14850323093E+04  0.14850323093E+04  0.00000000000E+00 0.  1.
         21    1    1    2  503  502 -0.30511719690E+02  0.22254113908E+03 -0.87280868190E+03  0.90124942098E+03  0.00000000000E+00 0.  1.
         21    1    1    2  504  501 -0.18831406053E+02 -0.26417713608E+03  0.40896444544E+03  0.48723310511E+03  0.00000000000E+00 0.  1.
         21    1    1    2  505  503 -0.31810579613E+02  0.26685721776E+01  0.42641224751E+02  0.53266389976E+02  0.00000000000E+00 0.  1.
         21    1    1    2  506  504  0.81153705357E+02  0.38967424827E+02 -0.54989620124E+03  0.55721648955E+03  0.00000000000E+00 0.  1.
<scales pt_clust_3="14000.00000" pt_clust_4="263.68708" pt_clust_5="31.92232" pt_clust_6="89.80827"></scales>
<clustering>
<clus scale="   31.922">  1  5  2 -1</clus>
<clus scale="   89.808">  2  6  1 -1</clus>
<clus scale="  263.687">  1  4  2 -1</clus>
<clus scale="   31.922">  1  3  2 -1</clus>
</clustering>
</event>
<event>
 6    0  0.1344929E+003  0.8571533E+02  0.7546771E-02  0.1313572E+00
         21   -1    0    0  505  501  0.00000000000E+00  0.00000000000E+00  0.12381919752E+04  0.12381919752E+04  0.00000000000E+00 0. -1.
         21   -1    0    0  503  502 -0.00000000000E+00 -0.00000000000E+00 -0.84549781991E+03  0.84549781991E+03  0.00000000000E+00 0. -1.
         21    1    1    2  503  506  0.34694664360E+02 -0.13479191802E+02 -0.61092994284E+03  0.61206274466E+03  0.00000000000E+00 0. -1.
         21    1    1    2  504  501 -0.31486249836E+02 -0.97791653742E+02  0.92042995995E+02  0.13793659624E+03  0.00000000000E+00 0. -1.
         21    1    1    2  505  502  0.30916764980E+02  0.14613789894E+02  0.11099109281E+04  0.11104376063E+04  0.00000000000E+00 0. -1.
         21    1    1    2  506  504 -0.34125179503E+02  0.96657055650E+02 -0.19832982589E+03  0.22325284796E+03  0.00000000000E+00 0. -1.
<scales pt_clust_3="37.32532" pt_clust_4="85.71533" pt_clust_5="34.19663" pt_clust_6="14000.00000"></scales>
<clustering>
<clus scale="   34.197">  1  5  2 -1</clus>
<clus scale="   37.325">  2  3  1 -1</clus>
<clus scale="   85.715">  1  4  2 -1</clus>
<clus scale="   34.197">  1  3  2 -1</clus>
</clustering>
</event>
<event>
 6    0  0.1344929E+003  0.6229178E+02  0.7546771E-02  0.1388458E+00
         21   -1    0    0  503  501  0.00000000000E+00  0.00000000000E+00  0.28737839118E+04  0.28737839118E+04  0.00000000000E+00 0.  1.
         21   -1    0    0  504  502 -0.00000000000E+00 -0.00000000000E+00 -0.55568259675E+02  0.55568259675E+02  0.00000000000E+00 0. -1.
         21    1    1    2  503  505  0.44299900939E+02  0.57881988335E+01  0.19748746371E+03  0.20247785753E+03  0.00000000000E+00 0.  1.
         21    1    1    2  504  506 -0.84629835656E+02 -0.84408641530E+02  0.31855138629E+03  0.34023817181E+03  0.00000000000E+00 0.  1.
         21    1    1    2  505  502 -0.64243097102E+01  0.40603925180E+02 -0.31743264071E+02  0.51938283656E+02  0.00000000000E+00 0. -1.
         21    1    1    2  506  501  0.46754244427E+02  0.38016517517E+02  0.23339200662E+04  0.23346978585E+04  0.00000000000E+00 0.  1.
<scales pt_clust_3="45.09764" pt_clust_4="62.29178" pt_clust_5="41.10901" pt_clust_6="14000.00000"></scales>
<clustering>
<clus scale="   41.109">  2  5  1 -1</clus>
<clus scale="   45.098">  2  3  1 -1</clus>
<clus scale="   62.292">  2  4  1 -1</clus>
<clus scale="   62.292">  1  3  2 -1</clus>
</clustering>
</event>
<event>
 6    0  0.1344929E+003  0.1015221E+03  0.7546771E-02  0.1277127E+00
         21   -1    0    0  503  501  0.00000000000E+00  0.00000000000E+00  0.24032935620E+03  0.24032935620E+03  0.00000000000E+00 0.  1.
         21   -1    0    0  504  502 -0.00000000000E+00 -0.00000000000E+00 -0.91729327024E+02  0.91729327024E+02  0.00000000000E+00 0.  1.
         21    1    1    2  503  506  0.44620999559E+02  0.46093645946E+02  0.28719291234E+02  0.70288373770E+02  0.00000000000E+00 0.  1.
         21    1    1    2  504  505 -0.36519370488E+02 -0.88843511205E+02  0.11433730249E+02  0.96734503108E+02  0.00000000000E+00 0.  1.
         21    1    1    2  505  501 -0.53798181646E+02  0.38918838105E+02  0.97378282047E+02  0.11786199609E+03  0.00000000000E+00 0.  1.
         21    1    1    2  506  502  0.45696552575E+02  0.38310271534E+01  0.11068725642E+02  0.47173810251E+02  0.00000000000E+00 0.  1.
<scales pt_clust_3="33.44155" pt_clust_4="93.49964" pt_clust_5="66.39970" pt_clust_6="33.44155"></scales>
<clustering>
<clus scale="   33.442">  3  6 -1 -1</clus>
<clus scale="   66.400">  1  5  2 -1</clus>
<clus scale="   93.500">  2  4  1 -1</clus>
<clus scale="   66.400">  1  3  2 -1</clus>
</clustering>
</event>
<event>
 6    0  0.1344929E+003  0.1364876E+03  0.7546771E-02  0.1218135E+00
         21   -1    0    0  506  501  0.00000000000E+00  0.00000000000E+00  0.24990756910E+03  0.24990756910E+03  0.00000000000E+00 0. -1.
         21   -1    0    0  503  502 -0.00000000000E+00 -0.00000000000E+00 -0.46813323297E+03  0.46813323297E+03  0.00000000000E+00 0. -1.
         21    1    1    2  503  501  0.10390492908E+03  0.12923460649E+03  0.70520670006E+02  0.18019706629E+03  0.00000000000E+00 0. -1.
         21    1    1    2  504  505 -0.43896783956E+02 -0.10396003241E+03 -0.21634075099E+03  0.24400396824E+03  0.00000000000E+00 0. -1.
         21    1    1    2  505  502  0.76614743861E+01 -0.31506087722E+02 -0.17102648542E+03  0.17407294582E+03  0.00000000000E+00 0. -1.
         21    1    1    2  506  504 -0.67669619515E+02  0.62315136463E+01  0.98620902534E+02  0.11976682172E+03  0.00000000000E+00 0.  1.
<scales pt_clust_3="136.48763" pt_clust_4="14000.00000" pt_clust_5="32.42425" pt_clust_6="67.58860"></scales>
<clustering>
<clus scale="   32.424">  2  5  1 -1</clus>
<clus scale="   67.589">  1  6  2 -1</clus>
<clus scale="  136.488">  1  3  2 -1</clus>
<clus scale="   67.589">  1  3  2 -1</clus>
</clustering>
</event>
<event>
 6    0  0.1344929E+003  0.1741077E+03  0.7546771E-02  0.1173631E+00
         21   -1    0    0  503  501  0.00000000000E+00  0.00000000000E+00  0.16036755205E+04  0.16036755205E+04  0.00000000000E+00 0. -1.
         21   -1    0    0  506  502 -0.00000000000E+00 -0.00000000000E+00 -0.16581435481E+03  0.16581435481E+03  0.00000000000E+00 0.  1.
         21    1    1    2  503  505  0.11252521580E+03  0.71284393487E+02  0.39164626540E+03  0.41367884421E+03  0.00000000000E+00 0.  1.
         21    1    1    2  504  501 -0.14966530805E+03 -0.14827986269E+03  0.11727369118E+04  0.11915110097E+04  0.00000000000E+00 0. -1.
         21    1    1    2  505  502 -0.57218668045E+01  0.55465317503E+02 -0.56120881375E+02  0.79111911440E+02  0.00000000000E+00 0.  1.
         21    1    1    2  506  504  0.42861959058E+02  0.21530151705E+02 -0.70401130054E+02  0.85188109966E+02  0.00000000000E+00 0.  1.
<scales pt_clust_3="174.10768" pt_clust_4="14000.00000" pt_clust_5="76.97247" pt_clust_6="47.96556"></scales>
<clustering>
<clus scale="   47.966">  2  6  1 -1</clus>
<clus scale="   76.972">  2  5  1 -1</clus>
<clus scale="  174.108">  2  3  1 -1</clus>
<clus scale="  174.108">  1  3  2 -1</clus>
</clustering>
</event>
<event>
 6    0  0.1344929E+003  0.1400132E+03  0.7546771E-02  0.1213311E+00
         21   -1    0    0  504  501  0.00000000000E+00  0.00000000000E+00  0.80832681434E+03  0.80832681434E+03  0.00000000000E+00 0. -1.
         21   -1    0    0  503  502 -0.00000000000E+00 -0.00000000000E+00 -0.67726821333E+02  0.67726821333E+02  0.00000000000E+00 0. -1.
         21    1    1    2  503  501 -0.84190868191E+02  0.14630390152E+03  0.14911749854E+03  0.22523090875E+03  0.00000000000E+00 0. -1.
         21    1    1    2  504  505 -0.18461508780E+02 -0.32918412168E+02  0.35282113517E+03  0.35483404936E+03  0.00000000000E+00 0. -1.
         21    1    1    2  505  506  0.64312161834E+02 -0.10011417797E+03  0.22249337244E+03  0.25231370072E+03  0.00000000000E+00 0. -1.
         21    1    1    2  506  502  0.38340215137E+02 -0.13271311392E+02  0.16167986862E+02  0.43674976840E+02  0.00000000000E+00 0. -1.
<scales pt_clust_3="14000.00000" pt_clust_4="37.74188" pt_clust_5="140.01325" pt_clust_6="40.20694"></scales>
<clustering>
<clus scale="   37.742">  1  4  2 -1</clus>
<clus scale="   40.207">  2  6  1 -1</clus>
<clus scale="  140.013">  1  5  2 -1</clus>
<clus scale="   37.742">  1  3  2 -1</clus>
</clustering>
</event>
<event>
 6    0  0.1344929E+003  0.6355993E+02  0.7546771E-02  0.1383472E+00
         21   -1    0    0  503  501  0.00000000000E+00  0.00000000000E+00  0.95248828495E+02  0.95248828495E+02  0.00000000000E+00 0. -1.
         21   -1    0    0  506  502 -0.00000000000E+00 -0.00000000000E+00 -0.47329648188E+03  0.47329648188E+03  0.00000000000E+00 0. -1.
         21    1    1    2  503  504 -0.39527243514E+02  0.46011831074E+02  0.53374457688E+02  0.80798046462E+02  0.00000000000E+00 0. -1.
         21    1    1    2  504  502 -0.40220687664E+02  0.25058301444E+02 -0.11402938657E+03  0.12348410095E+03  0.00000000000E+00 0. -1.
         21    1    1    2  505  501  0.11682466518E+03 -0.35790782430E+02 -0.17913721654E+03  0.21683893758E+03  0.00000000000E+00 0. -1.
         21    1    1    2  506  505 -0.37076733996E+02 -0.35279350088E+02 -0.13825550797E+03  0.14742422538E+03  0.00000000000E+00 0. -1.
<scales pt_clust_3="63.55993" pt_clust_4="47.38800" pt_clust_5="14000.00000" pt_clust_6="58.93301"></scales>
<clustering>
<clus scale="   47.388">  2  4  1 -1</clus>
<clus scale="   58.933">  2  6  1 -1</clus>
<clus scale="   63.560">  1  3  2 -1</clus>
<clus scale="   63.560">  1  3  2 -1</clus>
</clustering>
</event>
<event>
 6    0  0.1344929E+003  0.7986091E+02  0.7546771E-02  0.1329447E+00
         21   -1    0    0  506  501  0.00000000000E+00  0.00000000000E+00  0.71762571535E+03  0.71762571535E+03  0.00000000000E+00 0.  1.
         21   -1    0    0  505  502 -0.00000000000E+00 -0.00000000000E+00 -0.10824097505E+03  0.10824097505E+03  0.00000000000E+00 0.  1.
         21    1    1    2  503  504 -0.19696065457E+02 -0.60950627479E+02  0.81659124557E+02  0.10378403831E+03  0.00000000000E+00 0.  1.
         21    1    1    2  504  502  0.51586095965E+02 -0.59151692778E+02 -0.68502056553E+02  0.10417571602E+03  0.00000000000E+00 0.  1.
         21    1    1    2  505  501 -0.69737903811E+02  0.89561028376E+02  0.42696181463E+03  0.44179287475E+03  0.00000000000E+00 0.  1.
         21    1    1    2  506  503  0.37847873303E+02  0.30541291881E+02  0.16926585766E+03  0.17611406132E+03  0.00000000000E+00 0. -1.
<scales pt_clust_3="57.30823" pt_clust_4="79.86091" pt_clust_5="14000.00000" pt_clust_6="48.63365"></scales>
<clustering>
<clus scale="   48.634">  1  6  2 -1</clus>
<clus scale="   57.308">  1  3  2 -1</clus>
<clus scale="   79.861">  2  4  1 -1</clus>
<clus scale="   48.634">  1  3  2 -1</clus>
</clustering>
</event>
<event>
 6    0  0.1344929E+003  0.1431318E+03  0.7546771E-02  0.1209176E+00
         21   -1    0    0  504  501  0.00000000000E+00  0.00000000000E+00  0.12169202283E+04  0.12169202283E+04  0.00000000000E+00 0. -1.
         21   -1    0    0  505  502 -0.00000000000E+00 -0.00000000000E+00 -0.21550044836E+04  0.21550044836E+04  0.00000000000E+00 0. -1.
         21    1    1    2  503  501 -0.57540284134E+02 -0.86770639197E+02  0.15363306398E+03  0.18558864855E+03  0.00000000000E+00 0.  1.
         21    1    1    2  504  506  0.64130931897E+02  0.14502658480E+03  0.10182748856E+04  0.10305480238E+04  0.00000000000E+00 0. -1.
         21    1    1    2  505  503  0.59834769677E+02 -0.44557521562E+02 -0.39933014055E+02  0.84618071365E+02  0.00000000000E+00 0.  1.
         21    1    1    2  506  502 -0.66425417440E+02 -0.13698424037E+02 -0.20700591909E+04  0.20711699681E+04  0.00000000000E+00 0. -1.
<scales pt_clust_3="14000.00000" pt_clust_4="143.13178" pt_clust_5="55.72603" pt_clust_6="67.82317"></scales>
<clustering>
<clus scale="   67.823">  2  6  1 -1</clus>
<clus scale="   55.726">  2  5  1 -1</clus>
<clus scale="  143.132">  1  4  2 -1</clus>
<clus scale="  143.132">  1  3  2 -1</clus>
</clustering>
</event>
<event>
 6    0  0.1344929E+003  0.1361802E+03  0.7546771E-02  0.1218563E+00
         21   -1    0    0  505  501  0.00000000000E+00  0.00000000000E+00  0.32055048073E+03  0.32055048073E+03  0.00000000000E+00 0.  1.
         21   -1    0    0  503  502 -0.00000000000E+00 -0.00000000000E+00 -0.42527723755E+03  0.42527723755E+03  0.00000000000E+00 0. -1.
         21    1    1    2  503  501 -0.22920746275E+02  0.30311487362E+02 -0.62100916622E+01  0.38506001018E+02  0.00000000000E+00 0. -1.
         21    1    1    2  504  506  0.10604281335E+03 -0.28773056924E+02  0.15448134146E+02  0.11095770327E+03  0.00000000000E+00 0.  1.
         21    1    1    2  505  504 -0.12158517277E+03  0.93198458309E+02  0.20812884037E+03  0.25843088257E+03  0.00000000000E+00 0.  1.
         21    1    1    2  506  502  0.38463105700E+02 -0.94736888747E+02 -0.32209363968E+03  0.33793313142E+03  0.00000000000E+00 0. -1.
<scales pt_clust_3="38.00193" pt_clust_4="14000.00000" pt_clust_5="136.18018" pt_clust_6="72.62992"></scales>
<clustering>
<clus scale="   38.002">  2  3  1 -1</clus>
<clus scale="   72.630">  2  6  1 -1</clus>
<clus scale="  136.180">  1  5  2 -1</clus>
<clus scale="  136.180">  1  3  2 -1</clus>
</clustering>
</event>
<event>
 6    0  0.1344929E+003  0.1244994E+03  0.7546771E-02  0.1235854E+00
         21   -1    0    0  505  501  0.00000000000E+00  0.00000000000E+00  0.12656834419E+04  0.12656834419E+04  0.00000000000E+00 0. -1.
         21   -1    0    0  503  502 -0.00000000000E+00 -0.00000000000E+00 -0.33960474463E+02  0.33960474463E+02  0.00000000000E+00 0. -1.
         21    1    1    2  503  504 -0.54441996167E+02 -0.30492403921E+02  0.15199706979E+03  0.16430711144E+03  0.00000000000E+00 0. -1.
         21    1    1    2  504  501 -0.99969515844E+02  0.36318456045E+02  0.13600936483E+03  0.17266001758E+03  0.00000000000E+00 0. -1.
         21    1    1    2  505  506  0.28073816715E+02 -0.38513666796E+02  0.43045352707E+03  0.43308391875E+03  0.00000000000E+00 0. -1.
         21    1    1    2  506  502  0.12633769530E+03  0.32687614672E+02  0.51326300579E+03  0.52959286865E+03  0.00000000000E+00 0. -1.
<scales pt_clust_3="61.97689" pt_clust_4="124.49936" pt_clust_5="47.65964" pt_clust_6="14000.00000"></scales>
<clustering>
<clus scale="   47.660">  1  5  2 -1</clus>
<clus scale="   61.977">  2  3  1 -1</clus>
<clus scale="  124.499">  2  4  1 -1</clus>
<clus scale="   47.660">  1  3  2 -1</clus>
</clustering>
</event>
<event>
 6    0  0.1344929E+003  0.1768416E+03  0.7546771E-02  0.1170895E+00
         21   -1    0    0  504  501  0.00000000000E+00  0.00000000000E+00  0.21546641615E+03  0.21546641615E+03  0.00000000000E+00 0. -1.
         21   -1    0    0  506  502 -0.00000000000E+00 -0.00000000000E+00 -0.50925740321E+03  0.50925740321E+03  0.00000000000E+00 0. -1.
         21    1    1    2  503  502  0.48347487987E+02  0.27546190270E+02 -0.16302231615E+03  0.17225721394E+03  0.00000000000E+00 0.  1.
         21    1    1    2  504  505 -0.10872344114E+03 -0.17625508518E+03  0.82213185095E+02  0.22281303712E+03  0.00000000000E+00 0. -1.
         21    1    1    2  505  503  0.18940065586E+02  0.14240115933E+03 -0.24005591291E+03  0.27975642546E+03  0.00000000000E+00 0. -1.
         21    1    1    2  506  501  0.41435887568E+02  0.63077355832E+01  0.27074056903E+02  0.49897142844E+02  0.00000000000E+00 0.  1.
<scales pt_clust_3="56.66629" pt_clust_4="176.84161" pt_clust_5="14000.00000" pt_clust_6="41.91325"></scales>
<clustering>
<clus scale="   41.913">  1  6  2 -1</clus>
<clus scale="   56.666">  2  3  1 -1</clus>
<clus scale="  176.842">  1  4  2 -1</clus>
<clus scale="   41.913">  1  3  2 -1</clus>
</clustering>
</event>
<event>
 6    0  0.1344929E+003  0.1632510E+03  0.7546771E-02  0.1185075E+00
         21   -1    0    0  504  501  0.00000000000E+00  0.00000000000E+00  0.60536002985E+02  0.60536002985E+02  0.00000000000E+00 0. -1.
         21   -1    0    0  505  502 -0.00000000000E+00 -0.00000000000E+00 -0.15607381897E+04  0.15607381897E+04  0.00000000000E+00 0.  1.
         21    1    1    2  503  502  0.71111976802E+02 -0.13535051058E+03 -0.78636151365E+03  0.80108745098E+03  0.00000000000E+00 0.  1.
         21    1    1    2  504  503  0.26451886148E+02  0.21195701130E+02  0.26094776713E+02  0.42777300042E+02  0.00000000000E+00 0. -1.
         21    1    1    2  505  506 -0.11945867668E+03  0.13749295412E+03 -0.71200980455E+03  0.73493717394E+03  0.00000000000E+00 0. -1.
         21    1    1    2  506  501  0.21894813725E+02 -0.23338144665E+02 -0.27925645229E+02  0.42472267728E+02  0.00000000000E+00 0. -1.
<scales pt_clust_3="163.25099" pt_clust_4="41.06421" pt_clust_5="14000.00000" pt_clust_6="32.00081"></scales>
<clustering>
<clus scale="   32.001">  1  6  2 -1</clus>
<clus scale="   41.064">  1  4  2 -1</clus>
<clus scale="  163.251">  2  3  1 -1</clus>
<clus scale="   32.001">  1  3  2 -1</clus>
</clustering>
</event>
<event>
 6    0  0.1344929E+003  0.1435761E+03  0.7546771E-02  0.1208596E+00
         21   -1    0    0  505  501  0.00000000000E+00  0.00000000000E+00  0.15197009870E+03  0.15197009870E+03  0.00000000000E+00 0.  1.
         21   -1    0    0  501  502 -0.00000000000E+00 -0.00000000000E+00 -0.65745249836E+03  0.65745249836E+03  0.00000000000E+00 0. -1.
         21    1    1    2  503  506  0.89631376215E+02  0.63404263750E+02 -0.35453011431E+03  0.37114079029E+03  0.00000000000E+00 0. -1.
         21    1    1    2  504  503 -0.48389238060E+02 -0.16681934563E+02  0.45163510769E+02  0.68260881958E+02  0.00000000000E+00 0.  1.
         21    1    1    2  505  504 -0.52799344522E+02 -0.78254987457E+02  0.59906585258E+02  0.11180524496E+03  0.00000000000E+00 0.  1.
         21    1    1    2  506  502  0.11557206367E+02  0.31532658270E+02 -0.25602238137E+03  0.25821567985E+03  0.00000000000E+00 0. -1.
<scales pt_clust_3="135.94911" pt_clust_4="34.18154" pt_clust_5="34.18154" pt_clust_6="33.58389"></scales>
<clustering>
<clus scale="   33.584">  2  6  1 -1</clus>
<clus scale="   34.182">  4  5 -1 -1</clus>
<clus scale="  135.949">  2  3  1 -1</clus>
<clus scale="  143.576">  1  3  2 -1</clus>
</clustering>
</event>
<event>
 6    0  0.1344929E+003  0.4757295E+02  0.7546771E-02  0.1458890E+00
         21   -1    0    0  506  501  0.00000000000E+00  0.00000000000E+00  0.63659295160E+03  0.63659295160E+03  0.00000000000E+00 0.  1.
         21   -1    0    0  504  502 -0.00000000000E+00 -0.00000000000E+00 -0.25000931211E+03  0.25000931211E+03  0.00000000000E+00 0. -1.
         21    1    1    2  503  501  0.39438862795E+02 -0.14283670671E+02  0.31108441972E+03  0.31389960710E+03  0.00000000000E+00 0. -1.
         21    1    1    2  504  503 -0.42267405449E+02 -0.18983513800E+02 -0.11263979896E+03  0.12179750273E+03  0.00000000000E+00 0.  1.
         21    1    1    2  505  502  0.85980653370E+02  0.21169401889E+02 -0.10996511867E+03  0.14118478549E+03  0.00000000000E+00 0. -1.
         21    1    1    2  506  505 -0.83152110715E+02  0.12097782582E+02  0.29810413740E+03  0.30972036839E+03  0.00000000000E+00 0.  1.
<scales pt_clust_3="41.94576" pt_clust_4="45.91098" pt_clust_5="14000.00000" pt_clust_6="47.57295"></scales>
<clustering>
<clus scale="   41.946">  1  3  2 -1</clus>
<clus scale="   45.911">  2  4  1 -1</clus>
<clus scale="   47.573">  1  6  2 -1</clus>
<clus scale="   41.946">  1  3  2 -1</clus>
</clustering>
</event>
<event>
 6    0  0.1344929E+003  0.2227243E+03  0.7546771E-02  0.1131868E+00
         21   -1    0    0  503  501  0.00000000000E+00  0.00000000000E+00  0.11457985402E+04  0.11457985402E+04  0.00000000000E+00 0.  1.
         21   -1    0    0  506  502 -0.00000000000E+00 -0.00000000000E+00 -0.20049301024E+03  0.20049301024E+03  0.00000000000E+00 0.  1.
         21    1    1    2  503  502  0.13980971479E+02  0.85740281956E+02 -0.12248846126E+03  0.15016752863E+03  0.00000000000E+00 0.  1.
         21    1    1    2  504  501 -0.21768692811E+03 -0.16382269374E+03  0.72043848941E+03  0.77023184216E+03  0.00000000000E+00 0.  1.
         21    1    1    2  505  504  0.18207402976E+03  0.32089245750E+02  0.31618270057E+03  0.36626789669E+03  0.00000000000E+00 0.  1.
         21    1    1    2  506  505  0.21631926876E+02  0.45993166036E+02  0.31172801249E+02  0.59624282973E+02  0.00000000000E+00 0.  1.
<scales pt_clust_3="123.06815" pt_clust_4="222.72432" pt_clust_5="14000.00000" pt_clust_6="50.82629"></scales>
<clustering>
<clus scale="   50.826">  2  6  1 -1</clus>
<clus scale="  123.068">  2  3  1 -1</clus>
<clus scale="  222.724">  1  4  2 -1</clus>
<clus scale="  222.724">  1  3  2 -1</clus>
</clustering>
</event>
<event>
 6    0  0.1344929E+003  0.1872042E+03  0.7546771E-02  0.1161007E+00
         21   -1    0    0  503  501  0.00000000000E+00  0.00000000000E+00  0.17420212288E+04  0.17420212288E+04  0.00000000000E+00 0.  1.
         21   -1    0    0  506  502 -0.00000000000E+00 -0.00000000000E+00 -0.12576385233E+03  0.12576385233E+03  0.00000000000E+00 0.  1.
         21    1    1    2  503  502 -0.69437523519E+02 -0.16295343742E+03  0.85541157013E+03  0.87355843923E+03  0.00000000000E+00 0.  1.
         21    1    1    2  504  501  0.31801241623E+02 -0.31142909215E+02  0.72068065706E+03  0.72205388250E+03  0.00000000000E+00 0.  1.
         21    1    1    2  505  504  0.28511523615E+02  0.16335334943E+03  0.10748058334E+03  0.19760895613E+03  0.00000000000E+00 0.  1.
         21    1    1    2  506  505  0.91247582803E+01  0.30742997201E+02 -0.67315434073E+02  0.74563803249E+02  0.00000000000E+00 0.  1.
<scales pt_clust_3="187.20416" pt_clust_4="44.32435" pt_clust_5="14000.00000" pt_clust_6="32.06857"></scales>
<clustering>
<clus scale="   32.069">  2  6  1 -1</clus>
<clus scale="   44.324">  1  4  2 -1</clus>
<clus scale="  187.204">  1  3  2 -1</clus>
<clus scale="   44.324">  1  3  2 -1</clus>
</clustering>
</event>
<event>
 6    0  0.1344929E+003  0.1094448E+03  0.7546771E-02  0.1261601E+00
         21   -1    0    0  504  501  0.00000000000E+00  0.00000000000E+00  0.20272919104E+02  0.20272919104E+02  0.00000000000E+00 0. -1.
         21   -1    0    0  503  502 -0.00000000000E+00 -0.00000000000E+00 -0.23401368100E+04  0.23401368100E+04  0.00000000000E+00 0. -1.
         21    1    1    2  503  501 -0.81710685920E+02 -0.64346281863E+02 -0.65075029236E+03  0.65900912224E+03  0.00000000000E+00 0. -1.
         21    1    1    2  504  506 -0.29793067291E+02  0.38821767192E+02 -0.43786438425E+02  0.65665886551E+02  0.00000000000E+00 0. -1.
         21    1    1    2  505  502  0.12857571293E+03 -0.20416567054E+02 -0.13313633629E+04  0.13377133304E+04  0.00000000000E+00 0. -1.
         21    1    1    2  506  505 -0.17071959717E+02  0.45941081725E+02 -0.29396379721E+03  0.29802138995E+03  0.00000000000E+00 0.  1.
<scales pt_clust_3="109.44485" pt_clust_4="48.93625" pt_clust_5="14000.00000" pt_clust_6="59.25956"></scales>
<clustering>
<clus scale="   48.936">  1  4  2 -1</clus>
<clus scale="   59.260">  1  6  2 -1</clus>
<clus scale="  109.445">  1  3  2 -1</clus>
<clus scale="   48.936">  1  3  2 -1</clus>
</clustering>
</event>
<event>
 6    0  0.1344929E+003  0.1587615E+03  0.7546771E-02  0.1190102E+00
         21   -1    0    0  506  501  0.00000000000E+00  0.00000000000E+00  0.17873404464E+04  0.17873404464E+04  0.00000000000E+00 0. -1.
         21   -1    0    0  505  502 -0.00000000000E+00 -0.00000000000E+00 -0.33695496998E+03  0.33695496998E+03  0.00000000000E+00 0.  1.
         21    1    1    2  503  502 -0.18910818077E+02 -0.11987648627E+03 -0.26367254996E+03  0.29026058052E+03  0.00000000000E+00 0.  1.
         21    1    1    2  504  503 -0.75685662310E+02  0.11503329470E+03  0.60455235731E+03  0.62003591113E+03  0.00000000000E+00 0.  1.
         21    1    1    2  505  501  0.57956734818E+02 -0.38149893213E+02 -0.28195838130E+02  0.74895946157E+02  0.00000000000E+00 0.  1.
         21    1    1    2  506  504  0.36639745569E+02  0.42993084791E+02  0.11377015072E+04  0.11391029786E+04  0.00000000000E+00 0. -1.
<scales pt_clust_3="14000.00000" pt_clust_4="158.76146" pt_clust_5="69.66571" pt_clust_6="56.48784"></scales>
<clustering>
<clus scale="   56.488">  1  6  2 -1</clus>
<clus scale="   69.666">  2  5  1 -1</clus>
<clus scale="  158.761">  1  4  2 -1</clus>
<clus scale="   56.488">  1  3  2 -1</clus>
</clustering>
</event>
<event>
 6    0  0.1344929E+003  0.1718601E+03  0.7546771E-02  0.1175922E+00
         21   -1    0    0  503  501  0.00000000000E+00  0.00000000000E+00  0.10149153117E+03  0.10149153117E+03  0.00000000000E+00 0.  1.
         21   -1    0    0  505  502 -0.00000000000E+00 -0.00000000000E+00 -0.18156754189E+04  0.18156754189E+04  0.00000000000E+00 0. -1.
         21    1    1    2  503  502 -0.29736957272E+02 -0.91373329131E+02 -0.68528731699E+02  0.11802355262E+03  0.00000000000E+00 0.  1.
         21    1    1    2  504  506  0.77291251698E+02  0.13590835521E+03 -0.60835313605E+03  0.62812304268E+03  0.00000000000E+00 0.  1.
         21    1    1    2  505  504 -0.88529123452E-01  0.44798410256E+02 -0.10651539916E+04  0.10660956482E+04  0.00000000000E+00 0. -1.
         21    1    1    2  506  501 -0.47465765302E+02 -0.89333436335E+02  0.27851971590E+02  0.10492470655E+03  0.00000000000E+00 0.  1.
<scales pt_clust_3="90.81278" pt_clust_4="14000.00000" pt_clust_5="44.79850" pt_clust_6="171.86012"></scales>
<clustering>
<clus scale="   44.798">  2  5  1 -1</clus>
<clus scale="   90.813">  1  3  2 -1</clus>
<clus scale="  171.860">  1  6  2 -1</clus>
<clus scale="   90.813">  1  3  2 -1</clus>
</clustering>
</event>
<event>
 6    0  0.1344929E+003  0.8850108E+02  0.7546771E-02  0.1306523E+00
         21   -1    0    0  504  501  0.00000000000E+00  0.00000000000E+00  0.96706118098E+02  0.96706118098E+02  0.00000000000E+00 0. -1.
         21   -1    0    0  505  502 -0.00000000000E+00 -0.00000000000E+00 -0.10546792030E+04  0.10546792030E+04  0.00000000000E+00 0.  1.
         21    1    1    2  503  501  0.49952747540E+02  0.76814557575E+02  0.57449441356E+02  0.10814893228E+03  0.00000000000E+00 0. -1.
         21    1    1    2  504  506 -0.31976288838E+02  0.86530501244E+01 -0.42106243425E+02  0.53575125382E+02  0.00000000000E+00 0.  1.
         21    1    1    2  505  503 -0.56850878232E+02  0.23371944037E+02 -0.41306253111E+03  0.41761097296E+03  0.00000000000E+00 0.  1.
         21    1    1    2  506  502  0.38874419530E+02 -0.10883955174E+03 -0.56025375167E+03  0.57205029042E+03  0.00000000000E+00 0.  1.
<scales pt_clust_3="88.50108" pt_clust_4="33.12640" pt_clust_5="62.28931" pt_clust_6="14000.00000"></scales>
<clustering>
<clus scale="   33.126">  1  4  2 -1</clus>
<clus scale="   62.289">  2  5  1 -1</clus>
<clus scale="   88.501">  1  3  2 -1</clus>
<clus scale="   33.126">  1  3  2 -1</clus>
</clustering>
</event>
<event>
 6    0  0.1344929E+003  0.1251108E+03  0.7546771E-02  0.1234896E+00
         21   -1    0    0  505  501  0.00000000000E+00  0.00000000000E+00  0.26263627134E+03  0.26263627134E+03  0.00000000000E+00 0.  1.
         21   -1    0    0  504  502 -0.00000000000E+00 -0.00000000000E+00 -0.19765473971E+03  0.19765473971E+03  0.00000000000E+00 0.  1.
         21    1    1    2  503  502  0.11113523296E+02  0.49696730262E+02  0.56898926918E+02  0.76359434802E+02  0.00000000000E+00 0.  1.
         21    1    1    2  504  506 -0.13034948642E+03  0.98765608303E+01 -0.12871286073E+03  0.18345445097E+03  0.00000000000E+00 0.  1.
         21    1    1    2  505  503  0.30651621894E+02  0.95822504234E+01  0.17457909029E+02  0.36552975742E+02  0.00000000000E+00 0.  1.
         21    1    1    2  506  501  0.88584341229E+02 -0.69155541516E+02  0.11933755640E+03  0.16392414954E+03  0.00000000000E+00 0.  1.
<scales pt_clust_3="56.01520" pt_clust_4="125.11077" pt_clust_5="32.11451" pt_clust_6="14000.00000"></scales>
<clustering>
<clus scale="   32.115">  1  5  2 -1</clus>
<clus scale="   56.015">  1  3  2 -1</clus>
<clus scale="  125.111">  2  4  1 -1</clus>
<clus scale="   32.115">  1  3  2 -1</clus>
</clustering>
</event>
<event>
 6    0  0.1344929E+003  0.1190558E+03  0.7546771E-02  0.1244663E+00
         21   -1    0    0  503  501  0.00000000000E+00  0.00000000000E+00  0.57009123654E+02  0.57009123654E+02  0.00000000000E+00 0. -1.
         21   -1    0    0  505  502 -0.00000000000E+00 -0.00000000000E+00 -0.92451574590E+03  0.92451574590E+03  0.00000000000E+00 0.  1.
         21    1    1    2  503  502  0.51972707984E+02 -0.28804541716E+02 -0.22839660758E+03  0.23599973380E+03  0.00000000000E+00 0.  1.
         21    1    1    2  504  501 -0.11452654898E+03 -0.26934351705E+02 -0.19556621206E+02  0.11926546506E+03  0.00000000000E+00 0. -1.
         21    1    1    2  505  506  0.17277915420E+02  0.37025477853E+02 -0.33997192440E+03  0.34241834318E+03  0.00000000000E+00 0.  1.
         21    1    1    2  506  504  0.45275925576E+02  0.18713415568E+02 -0.27958146907E+03  0.28384132751E+03  0.00000000000E+00 0.  1.
<scales pt_clust_3="59.42107" pt_clust_4="113.31070" pt_clust_5="33.36704" pt_clust_6="33.36704"></scales>
<clustering>
<clus scale="   33.367">  5  6 -1 -1</clus>
<clus scale="   59.421">  2  3  1 -1</clus>
<clus scale="  113.311">  1  4  2 -1</clus>
<clus scale="  113.311">  1  3  2 -1</clus>
</clustering>
</event>
<event>
 6    0  0.1344929E+003  0.8873678E+02  0.7546771E-02  0.1305940E+00
         21   -1    0    0  503  501  0.00000000000E+00  0.00000000000E+00  0.89498029374E+02  0.89498029374E+02  0.00000000000E+00 0.  1.
         21   -1    0    0  504  502 -0.00000000000E+00 -0.00000000000E+00 -0.45817810855E+03  0.45817810855E+03  0.00000000000E+00 0. -1.
         21    1    1    2  503  506 -0.25586169610E+01  0.45218381375E+02  0.28596870525E+02  0.53563322701E+02  0.00000000000E+00 0.  1.
         21    1    1    2  504  505  0.23775436202E+02  0.26798869439E+02 -0.53494259483E+02  0.64382346706E+02  0.00000000000E+00 0. -1.
         21    1    1    2  505  501  0.65545101571E+02 -0.12603941601E+01 -0.30388770451E+03  0.31087857096E+03  0.00000000000E+00 0. -1.
         21    1    1    2  506  502 -0.86761920813E+02 -0.70756856655E+02 -0.39894985709E+02  0.11885189755E+03  0.00000000000E+00 0.  1.
<scales pt_clust_3="46.09207" pt_clust_4="35.82528" pt_clust_5="88.73678" pt_clust_6="14000.00000"></scales>
<clustering>
<clus scale="   35.825">  2  4  1 -1</clus>
<clus scale="   46.092">  1  3  2 -1</clus>
<clus scale="   88.737">  2  5  1 -1</clus>
<clus scale="   46.092">  1  3  2 -1</clus>
</clustering>
</event>
<event>
 6    0  0.1344929E+003  0.1049992E+03  0.7546771E-02  0.1270121E+00
         21   -1    0    0  506  501  0.00000000000E+00  0.00000000000E+00  0.94934114223E+02  0.94934114223E+02  0.00000000000E+00 0. -1.
         21   -1    0    0  505  502 -0.00000000000E+00 -0.00000000000E+00 -0.12066830042E+04  0.12066830042E+04  0.00000000000E+00 0. -1.
         21    1    1    2  503  504 -0.36688972727E+02  0.11897200749E+03 -0.43311823284E+03  0.45065710125E+03  0.00000000000E+00 0. -1.
         21    1    1    2  504  502  0.24754649697E+02 -0.28669842817E+02 -0.58579021880E+03  0.58701357140E+03  0.00000000000E+00 0. -1.
         21    1    1    2  505  501 -0.13032335707E+02 -0.11479483982E+03 -0.15458305913E+03  0.19298605959E+03  0.00000000000E+00 0. -1.
         21    1    1    2  506  503  0.24966658736E+02  0.24492675153E+02  0.61742620799E+02  0.70960386186E+02  0.00000000000E+00 0. -1.
<scales pt_clust_3="104.99919" pt_clust_4="37.83795" pt_clust_5="14000.00000" pt_clust_6="34.97464"></scales>
<clustering>
<clus scale="   34.975">  1  6  2 -1</clus>
<clus scale="   37.838">  2  4  1 -1</clus>
<clus scale="  104.999">  2  3  1 -1</clus>
<clus scale="   34.975">  1  3  2 -1</clus>
</clustering>
</event>
<event>
 6    0  0.1344929E+003  0.1350149E+03  0.7546771E-02  0.1220199E+00
         21   -1    0    0  505  501  0.00000000000E+00  0.00000000000E+00  0.84280449913E+02  0.84280449913E+02  0.00000000000E+00 0. -1.
         21   -1    0    0  506  502 -0.00000000000E+00 -0.00000000000E+00 -0.39347214784E+03  0.39347214784E+03  0.00000000000E+00 0. -1.
         21    1    1    2  503  501  0.13678549542E+02  0.14576904671E+03 -0.73027480386E+02  0.16361152340E+03  0.00000000000E+00 0. -1.
         21    1    1    2  504  503 -0.69405152263E+02 -0.49240253890E+02 -0.92336669223E+02  0.12556965496E+03  0.00000000000E+00 0. -1.
         21    1    1    2  505  502  0.59388151685E+02 -0.61594576893E+02 -0.89005801152E+02  0.12346204721E+03  0.00000000000E+00 0. -1.
         21    1    1    2  506  504 -0.36615489638E+01 -0.34934215930E+02 -0.54821747164E+02  0.65109372179E+02  0.00000000000E+00 0. -1.
<scales pt_clust_3="126.29417" pt_clust_4="30.66944" pt_clust_5="85.56193" pt_clust_6="30.66944"></scales>
<clustering>
<clus scale="   30.669">  4  6 -1 -1</clus>
<clus scale="   85.562">  2  5  1 -1</clus>
<clus scale="  126.294">  1  3  2 -1</clus>
<clus scale="  126.294">  1  3  2 -1</clus>
</clustering>
</event>
<event>
 6    0  0.1344929E+003  0.2074018E+03  0.7546771E-02  0.1143640E+00
         21   -1    0    0  504  501  0.00000000000E+00  0.00000000000E+00  0.62237733317E+03  0.62237733317E+03  0.00000000000E+00 0.  1.
         21   -1    0    0  503  502 -0.00000000000E+00 -0.00000000000E+00 -0.31735023425E+03  0.31735023425E+03  0.00000000000E+00 0.  1.
         21    1    1    2  503  506 -0.28035052115E+02 -0.15247622895E+03 -0.22703577835E+03  0.27491855011E+03  0.00000000000E+00 0.  1.
         21    1    1    2  504  505 -0.12335243973E+02  0.99887217623E+02  0.15877558576E+03  0.18798750257E+03  0.00000000000E+00 0.  1.
         21    1    1    2  505  502  0.13859991221E+03  0.11485420391E+03  0.21506871301E+03  0.28045672596E+03  0.00000000000E+00 0.  1.
         21    1    1    2  506  501 -0.98229616118E+02 -0.62265192586E+02  0.15821857849E+03  0.19636478878E+03  0.00000000000E+00 0.  1.
<scales pt_clust_3="159.34784" pt_clust_4="99.26745" pt_clust_5="99.26745" pt_clust_6="116.30138"></scales>
<clustering>
<clus scale="   99.267">  4  5 -1 -1</clus>
<clus scale="  116.301">  1  6  2 -1</clus>
<clus scale="  159.348">  2  3  1 -1</clus>
<clus scale="  116.301">  1  3  2 -1</clus>
</clustering>
</event>
<event>
 6    0  0.1344929E+003  0.2323114E+03  0.7546771E-02  0.1125023E+00
         21   -1    0    0  504  501  0.00000000000E+00  0.00000000000E+00  0.50931917402E+03  0.50931917402E+03  0.00000000000E+00 0. -1.
         21   -1    0    0  506  502 -0.00000000000E+00 -0.00000000000E+00 -0.17920493057E+03  0.17920493057E+03  0.00000000000E+00 0. -1.
         21    1    1    2  503  501 -0.13312775309E+03 -0.72175009845E+02  0.26138409289E+03  0.30208256273E+03  0.00000000000E+00 0. -1.
         21    1    1    2  504  502  0.16689221479E+03  0.98578838552E+02  0.71102679609E+02  0.20646159405E+03  0.00000000000E+00 0. -1.
         21    1    1    2  505  503 -0.69150820957E+02 -0.48799438129E+02  0.60783510863E+02  0.10420103835E+03  0.00000000000E+00 0.  1.
         21    1    1    2  506  505  0.35386359254E+02  0.22395609421E+02 -0.63156039908E+02  0.75778909463E+02  0.00000000000E+00 0. -1.
<scales pt_clust_3="55.14970" pt_clust_4="219.64889" pt_clust_5="55.14970" pt_clust_6="41.87789"></scales>
<clustering>
<clus scale="   41.878">  2  6  1 -1</clus>
<clus scale="   55.150">  3  5 -1 -1</clus>
<clus scale="  219.649">  2  4  1 -1</clus>
<clus scale="  232.311">  1  3  2 -1</clus>
</clustering>
</event>
<event>
 6    0  0.1344929E+003  0.1503528E+03  0.7546771E-02  0.1200040E+00
         21   -1    0    0  504  501  0.00000000000E+00  0.00000000000E+00  0.41427755115E+03  0.41427755115E+03  0.00000000000E+00 0. -1.
         21   -1    0    0  506  502 -0.00000000000E+00 -0.00000000000E+00 -0.25304927830E+03  0.25304927830E+03  0.00000000000E+00 0. -1.
         21    1    1    2  503  501 -0.18690551750E+02 -0.40896587382E+02  0.30442532648E+02  0.54301154483E+02  0.00000000000E+00 0.  1.
         21    1    1    2  504  505 -0.12232478015E+03  0.11543306248E+03  0.30254729777E+03  0.34615460583E+03  0.00000000000E+00 0. -1.
         21    1    1    2  505  502  0.74822438831E+02 -0.41381987226E+01 -0.62250456617E+01  0.75194901654E+02  0.00000000000E+00 0. -1.
         21    1    1    2  506  503  0.66192893073E+02 -0.70398276379E+02 -0.16553651190E+03  0.19167616749E+03  0.00000000000E+00 0. -1.
<scales pt_clust_3="44.96518" pt_clust_4="150.35277" pt_clust_5="73.51833" pt_clust_6="14000.00000"></scales>
<clustering>
<clus scale="   44.965">  1  3  2 -1</clus>
<clus scale="   73.518">  2  5  1 -1</clus>
<clus scale="  150.353">  1  4  2 -1</clus>
<clus scale="   44.965">  1  3  2 -1</clus>
</clustering>
</event>
<event>
 6    0  0.1344929E+003  0.1645733E+03  0.7546771E-02  0.1183628E+00
         21   -1    0    0  503  501  0.00000000000E+00  0.00000000000E+00  0.14662070498E+03  0.14662070498E+03  0.00000000000E+00 0.  1.
         21   -1    0    0  504  502 -0.00000000000E+00 -0.00000000000E+00 -0.52670286066E+03  0.52670286066E+03  0.00000000000E+00 0.  1.
         21    1    1    2  503  506 -0.21798403656E+02  0.13410840927E+03 -0.15621482346E+02  0.13676354248E+03  0.00000000000E+00 0.  1.
         21    1    1    2  504  505  0.37571787910E+01 -0.19625827903E+03 -0.20479349993E+03  0.28367552960E+03  0.00000000000E+00 0.  1.
         21    1    1    2  505  501 -0.28841269270E+01  0.33562974612E+02  0.38740778360E+02  0.51338478366E+02  0.00000000000E+00 0.  1.
         21    1    1    2  506  502  0.20925351792E+02  0.28586895147E+02 -0.19840795176E+03  0.20154601521E+03  0.00000000000E+00 0. -1.
<scales pt_clust_3="14000.00000" pt_clust_4="164.57325" pt_clust_5="33.68667" pt_clust_6="35.82076"></scales>
<clustering>
<clus scale="   33.687">  1  5  2 -1</clus>
<clus scale="   35.821">  2  6  1 -1</clus>
<clus scale="  164.573">  2  4  1 -1</clus>
<clus scale="   33.687">  1  3  2 -1</clus>
</clustering>
</event>
<event>
 6    0  0.1344929E+003  0.1036915E+03  0.7546771E-02  0.1272719E+00
         21   -1    0    0  504  501  0.00000000000E+00  0.00000000000E+00  0.70515901677E+02  0.70515901677E+02  0.00000000000E+00 0.  1.
         21   -1    0    0  506  502 -0.00000000000E+00 -0.00000000000E+00 -0.57988134274E+03  0.57988134274E+03  0.00000000000E+00 0. -1.
         21    1    1    2  503  502 -0.93625914109E+00  0.43895035108E+02 -0.22597178552E+03  0.23019752071E+03  0.00000000000E+00 0. -1.
         21    1    1    2  504  503  0.98480754090E+02 -0.29942969024E+02 -0.58573525985E+01  0.10309873374E+03  0.00000000000E+00 0.  1.
         21    1    1    2  505  501 -0.10145359501E+03  0.32680562674E+02 -0.19322573838E+03  0.22067405169E+03  0.00000000000E+00 0. -1.
         21    1    1    2  506  505  0.39091000595E+01 -0.46632628758E+02 -0.84310564553E+02  0.96426938266E+02  0.00000000000E+00 0.  1.
<scales pt_clust_3="43.90502" pt_clust_4="14000.00000" pt_clust_5="103.69152" pt_clust_6="35.54678"></scales>
<clustering>
<clus scale="   43.905">  2  3  1 -1</clus>
<clus scale="   35.547">  2  6  1 -1</clus>
<clus scale="  103.692">  2  5  1 -1</clus>
<clus scale="  103.692">  1  3  2 -1</clus>
</clustering>
</event>
<event>
 6    0  0.1344929E+003  0.1033352E+03  0.7546771E-02  0.1273435E+00
         21   -1    0    0  506  501  0.00000000000E+00  0.00000000000E+00  0.69836137453E+03  0.69836137453E+03  0.00000000000E+00 0.  1.
         21   -1    0    0  503  502 -0.00000000000E+00 -0.00000000000E+00 -0.83947786409E+02  0.83947786409E+02  0.00000000000E+00 0.  1.
         21    1    1    2  503  501 -0.10259352009E+03  0.61881764964E+01  0.10964938918E+03  0.15028876352E+03  0.00000000000E+00 0.  1.
         21    1    1    2  504  502  0.27348188043E+02  0.13751279312E+02 -0.25451741506E+02  0.39809700045E+02  0.00000000000E+00 0.  1.
         21    1    1    2  505  504  0.99590866554E+02  0.11442196791E+02  0.53093617469E+02  0.11343807467E+03  0.00000000000E+00 0.  1.
         21    1    1    2  506  505 -0.24345534508E+02 -0.31381652600E+02  0.47712232298E+03  0.47877262271E+03  0.00000000000E+00 0.  1.
<scales pt_clust_3="14000.00000" pt_clust_4="30.61080" pt_clust_5="103.33517" pt_clust_6="39.27424"></scales>
<clustering>
<clus scale="   30.611">  2  4  1 -1</clus>
<clus scale="   39.274">  1  6  2 -1</clus>
<clus scale="  103.335">  1  5  2 -1</clus>
<clus scale="   39.274">  1  3  2 -1</clus>
</clustering>
</event>
<event>
 6    0  0.1344929E+003  0.1142508E+03  0.7546771E-02  0.1252895E+00
         21   -1    0    0  505  501  0.00000000000E+00  0.00000000000E+00  0.16799708576E+04  0.16799708576E+04  0.00000000000E+00 0.  1.
         21   -1    0    0  503  502 -0.00000000000E+00 -0.00000000000E+00 -0.25619144092E+03  0.25619144092E+03  0.00000000000E+00 0. -1.
         21    1    1    2  503  504  0.34524801962E+02 -0.70964468552E+01 -0.15615928721E+03  0.16008761504E+03  0.00000000000E+00 0. -1.
         21    1    1    2  504  506 -0.11587159341E+03 -0.40792472234E+02  0.11914161687E+01  0.12284816410E+03  0.00000000000E+00 0.  1.
         21    1    1    2  505  502 -0.10932274673E+03  0.64272525004E+01  0.13418693220E+04  0.13463305871E+04  0.00000000000E+00 0.  1.
         21    1    1    2  506  501  0.19066953818E+03  0.41461666588E+02  0.23687796576E+03  0.30689593228E+03  0.00000000000E+00 0.  1.
<scales pt_clust_3="35.24658" pt_clust_4="104.71215" pt_clust_5="114.25081" pt_clust_6="14000.00000"></scales>
<clustering>
<clus scale="   35.247">  2  3  1 -1</clus>
<clus scale="  104.712">  2  4  1 -1</clus>
<clus scale="  114.251">  1  5  2 -1</clus>
<clus scale="  114.251">  1  3  2 -1</clus>
</clustering>
</event>
<event>
 6    0  0.1344929E+003  0.1029805E+03  0.7546771E-02  0.1274150E+00
         21   -1    0    0  504  501  0.00000000000E+00  0.00000000000E+00  0.42853731209E+03  0.42853731209E+03  0.00000000000E+00 0.  1.
         21   -1    0    0  501  502 -0.00000000000E+00 -0.00000000000E+00 -0.72974484035E+03  0.72974484035E+03  0.00000000000E+00 0. -1.
         21    1    1    2  503  505 -0.77954740814E+02  0.23403478859E+02 -0.10192505055E+02  0.82027748948E+02  0.00000000000E+00 0. -1.
         21    1    1    2  504  506 -0.19287548426E+02 -0.40337080015E+02  0.13838355976E+03  0.14542729854E+03  0.00000000000E+00 0.  1.
         21    1    1    2  505  502 -0.29779198747E+02 -0.13594463748E+02 -0.66266353931E+03  0.66347160938E+03  0.00000000000E+00 0. -1.
         21    1    1    2  506  503  0.12702148799E+03  0.30528064904E+02  0.23326495634E+03  0.26735549558E+03  0.00000000000E+00 0.  1.
<scales pt_clust_3="102.98054" pt_clust_4="46.05088" pt_clust_5="32.73546" pt_clust_6="14000.00000"></scales>
<clustering>
<clus scale="   32.735">  2  5  1 -1</clus>
<clus scale="   46.051">  1  4  2 -1</clus>
<clus scale="  102.981">  2  3  1 -1</clus>
<clus scale="   46.051">  1  3  2 -1</clus>
</clustering>
</event>
<event>
 6    0  0.1344929E+003  0.1090884E+03  0.7546771E-02  0.1262267E+00
         21   -1    0    0  503  501  0.00000000000E+00  0.00000000000E+00  0.38786198164E+03  0.38786198164E+03  0.00000000000E+00 0.  1.
         21   -1    0    0  506  502 -0.00000000000E+00 -0.00000000000E+00 -0.11297389117E+03  0.11297389117E+03  0.00000000000E+00 0.  1.
         21    1    1    2  503  505 -0.54373600693E+02 -0.78934560007E+02  0.27240242579E+03  0.28877367399E+03  0.00000000000E+00 0.  1.
         21    1    1    2  504  501  0.30140892770E+02  0.45632900407E+02  0.11093152617E+02  0.55802267441E+02  0.00000000000E+00 0. -1.
         21    1    1    2  505  502 -0.52218683946E+02  0.60410766812E+01 -0.43189242671E+02  0.68033787510E+02  0.00000000000E+00 0.  1.
         21    1    1    2  506  504  0.76451391868E+02  0.27260582919E+02  0.34581754738E+02  0.88226143860E+02  0.00000000000E+00 0.  1.
<scales pt_clust_3="99.58751" pt_clust_4="36.54931" pt_clust_5="52.56696" pt_clust_6="36.54931"></scales>
<clustering>
<clus scale="   36.549">  4  6 -1 -1</clus>
<clus scale="   52.567">  2  5  1 -1</clus>
<clus scale="   99.588">  1  3  2 -1</clus>
<clus scale="   99.588">  1  3  2 -1</clus>
</clustering>
</event>
<event>
 6    0  0.1344929E+003  0.1243031E+03  0.7546771E-02  0.1236162E+00
         21   -1    0    0  505  501  0.00000000000E+00  0.00000000000E+00  0.26823566635E+03  0.26823566635E+03  0.00000000000E+00 0. -1.
         21   -1    0    0  504  502 -0.00000000000E+00 -0.00000000000E+00 -0.27231352685E+03  0.27231352685E+03  0.00000000000E+00 0.  1.
         21    1    1    2  503  502  0.97669337143E+02 -0.45062560300E-01 -0.13943115670E+03  0.17023615629E+03  0.00000000000E+00 0.  1.
         21    1    1    2  504  501  0.21288299295E+02 -0.25649288376E+02 -0.17012701298E+02  0.37423384220E+02  0.00000000000E+00 0.  1.
         21    1    1    2  505  506  0.36679238586E+02 -0.38650108368E+02  0.15557383714E+03  0.16444578506E+03  0.00000000000E+00 0. -1.
         21    1    1    2  506  503 -0.15563687502E+03  0.64344459304E+02 -0.32078396486E+01  0.16844386764E+03  0.00000000000E+00 0.  1.
<scales pt_clust_3="124.30310" pt_clust_4="33.33283" pt_clust_5="53.88609" pt_clust_6="14000.00000"></scales>
<clustering>
<clus scale="   33.333">  2  4  1 -1</clus>
<clus scale="   53.886">  1  5  2 -1</clus>
<clus scale="  124.303">  2  3  1 -1</clus>
<clus scale="   53.886">  1  3  2 -1</clus>
</clustering>
</event>
<event>
 6    0  0.1344929E+003  0.1072888E+03  0.7546771E-02  0.1265675E+00
         21   -1    0    0  506  501  0.00000000000E+00  0.00000000000E+00  0.22020528239E+03  0.22020528239E+03  0.00000000000E+00 0. -1.
         21   -1    0    0  503  502 -0.00000000000E+00 -0.00000000000E+00 -0.26279390999E+03  0.26279390999E+03  0.00000000000E+00 0. -1.
         21    1    1    2  503  504 -0.28983955550E+02  0.45953652638E+02 -0.14128124531E+02  0.56137436464E+02  0.00000000000E+00 0.  1.
         21    1    1    2  504  501  0.54281071586E+02  0.85304523070E+02 -0.16456769242E+03  0.19314715058E+03  0.00000000000E+00 0. -1.
         21    1    1    2  505  502 -0.44849301010E+02 -0.79685111283E+02  0.51128261777E+01  0.91582300434E+02  0.00000000000E+00 0. -1.
         21    1    1    2  506  505  0.19552184974E+02 -0.51573064424E+02  0.13099436318E+03  0.14213230490E+03  0.00000000000E+00 0. -1.
<scales pt_clust_3="54.33054" pt_clust_4="14000.00000" pt_clust_5="107.28876" pt_clust_6="53.85317"></scales>
<clustering>
<clus scale="   54.331">  2  3  1 -1</clus>
<clus scale="   53.853">  1  6  2 -1</clus>
<clus scale="  107.289">  1  5  2 -1</clus>
<clus scale="   53.853">  1  3  2 -1</clus>
</clustering>
</event>
<event>
 6    0  0.1344929E+003  0.1174193E+03  0.7546771E-02  0.1247416E+00
         21   -1    0    0  505  501  0.00000000000E+00  0.00000000000E+00  0.76920483484E+02  0.76920483484E+02  0.00000000000E+00 0.  1.
         21   -1    0    0  506  502 -0.00000000000E+00 -0.00000000000E+00 -0.97762911165E+03  0.97762911165E+03  0.00000000000E+00 0.  1.
         21    1    1    2  503  501  0.60212537961E+02 -0.13446276966E+03 -0.29169346151E+03  0.32678871100E+03  0.00000000000E+00 0.  1.
         21    1    1    2  504  503 -0.47453745391E+02  0.82140944977E+02 -0.35869588859E+03  0.37102794138E+03  0.00000000000E+00 0.  1.
         21    1    1    2  505  502  0.49965426014E+02  0.66573903344E+02  0.14256454308E+02  0.84450428612E+02  0.00000000000E+00 0.  1.
         21    1    1    2  506  504 -0.62724218585E+02 -0.14252078659E+02 -0.26457573238E+03  0.27228251414E+03  0.00000000000E+00 0.  1.
<scales pt_clust_3="117.41928" pt_clust_4="14000.00000" pt_clust_5="80.83721" pt_clust_6="64.32301"></scales>
<clustering>
<clus scale="   64.323">  2  6  1 -1</clus>
<clus scale="   80.837">  1  5  2 -1</clus>
<clus scale="  117.419">  1  3  2 -1</clus>
<clus scale="   80.837">  1  3  2 -1</clus>
</clustering>
</event>
<event>
 6    0  0.1344929E+003  0.1549634E+03  0.7546771E-02  0.1194503E+00
         21   -1    0    0  505  501  0.00000000000E+00  0.00000000000E+00  0.10950138316E+03  0.10950138316E+03  0.00000000000E+00 0.  1.
         21   -1    0    0  504  502 -0.00000000000E+00 -0.00000000000E+00 -0.10907537419E+04  0.10907537419E+04  0.00000000000E+00 0.  1.
         21    1    1    2  503  501  0.11455318909E+03 -0.10921821371E+03 -0.16651942981E+03  0.22973848577E+03  0.00000000000E+00 0.  1.
         21    1    1    2  504  503 -0.46088344209E+02 -0.22672018311E+02 -0.11773572743E+03  0.12845177072E+03  0.00000000000E+00 0.  1.
         21    1    1    2  505  506 -0.14982789018E+03 -0.38527761935E+02 -0.41877475484E+02  0.16027010971E+03  0.00000000000E+00 0.  1.
         21    1    1    2  506  502  0.81363045298E+02  0.17041799396E+03 -0.65511972599E+03  0.68179475884E+03  0.00000000000E+00 0.  1.
<scales pt_clust_3="154.96344" pt_clust_4="51.36298" pt_clust_5="14000.00000" pt_clust_6="150.92118"></scales>
<clustering>
<clus scale="   51.363">  2  4  1 -1</clus>
<clus scale="  154.963">  1  3  2 -1</clus>
<clus scale="  150.921">  2  6  1 -1</clus>
<clus scale="  154.963">  1  3  2 -1</clus>
</clustering>
</event>
<event>
 6    0  0.1344929E+003  0.1592273E+03  0.7546771E-02  0.1189572E+00
         21   -1    0    0  506  501  0.00000000000E+00  0.00000000000E+00  0.10700375790E+04  0.10700375790E+04  0.00000000000E+00 0.  1.
         21   -1    0    0  503  502 -0.00000000000E+00 -0.00000000000E+00 -0.61599740232E+03  0.61599740232E+03  0.00000000000E+00 0.  1.
         21    1    1    2  503  504  0.22832928037E+02  0.27252526357E+02 -0.11754262532E+02  0.37446034279E+02  0.00000000000E+00 0.  1.
         21    1    1    2  504  505  0.13471656032E+03 -0.36607760039E+02  0.53118168371E+03  0.54922004773E+03  0.00000000000E+00 0.  1.
         21    1    1    2  505  501  0.97870197018E+01 -0.32179550605E+02  0.50365671378E+03  0.50477855993E+03  0.00000000000E+00 0.  1.
         21    1    1    2  506  502 -0.16733650806E+03  0.41534784287E+02 -0.56904395828E+03  0.59459033938E+03  0.00000000000E+00 0.  1.
<scales pt_clust_3="35.14189" pt_clust_4="14000.00000" pt_clust_5="33.63494" pt_clust_6="159.22730"></scales>
<clustering>
<clus scale="   33.635">  1  5  2 -1</clus>
<clus scale="   35.142">  2  3  1 -1</clus>
<clus scale="  159.227">  2  6  1 -1</clus>
<clus scale="   33.635">  1  3  2 -1</clus>
</clustering>
</event>
<event>
 6    0  0.1344929E+003  0.1251283E+03  0.7546771E-02  0.1234869E+00
         21   -1    0    0  506  501  0.00000000000E+00  0.00000000000E+00  0.85387332200E+03  0.85387332200E+03  0.00000000000E+00 0.  1.
         21   -1    0    0  503  502 -0.00000000000E+00 -0.00000000000E+00 -0.10039141589E+03  0.10039141589E+03  0.00000000000E+00 0.  1.
         21    1    1    2  503  504  0.95770084835E+01 -0.98604282413E+02 -0.23804582826E+02  0.10188808451E+03  0.00000000000E+00 0.  1.
         21    1    1    2  504  505 -0.74295802303E+02  0.88388932937E+02  0.29805317301E+03  0.31963755044E+03  0.00000000000E+00 0.  1.
         21    1    1    2  505  501 -0.27913214200E+02  0.15912406874E+02  0.42301333179E+03  0.42423181292E+03  0.00000000000E+00 0.  1.
         21    1    1    2  506  502  0.92632008020E+02 -0.56970573974E+01  0.56219984138E+02  0.10850729003E+03  0.00000000000E+00 0.  1.
<scales pt_clust_3="125.12834" pt_clust_4="14000.00000" pt_clust_5="32.13024" pt_clust_6="87.32878"></scales>
<clustering>
<clus scale="   32.130">  1  5  2 -1</clus>
<clus scale="   87.329">  2  6  1 -1</clus>
<clus scale="  125.128">  2  3  1 -1</clus>
<clus scale="   32.130">  1  3  2 -1</clus>
</clustering>
</event>
<event>
 6    0  0.1344929E+003  0.6703253E+02  0.7546771E-02  0.1370485E+00
         21   -1    0    0  506  501  0.00000000000E+00  0.00000000000E+00  0.15986076617E+03  0.15986076617E+03  0.00000000000E+00 0.  1.
         21   -1    0    0  504  502 -0.00000000000E+00 -0.00000000000E+00 -0.62886537640E+03  0.62886537640E+03  0.00000000000E+00 0.  1.
         21    1    1    2  503  502  0.20289459201E+02  0.28189869353E+02 -0.54645547265E+03  0.54755813799E+03  0.00000000000E+00 0.  1.
         21    1    1    2  504  505  0.14603836119E+02  0.59307198579E+02  0.79603573542E+01  0.61595317370E+02  0.00000000000E+00 0.  1.
         21    1    1    2  505  501 -0.81460866363E+02 -0.30784481463E+02  0.59603874293E+02  0.10552809521E+03  0.00000000000E+00 0.  1.
         21    1    1    2  506  503  0.46567571043E+02 -0.56712586469E+02  0.98866307792E+01  0.74044592004E+02  0.00000000000E+00 0.  1.
<scales pt_clust_3="34.73227" pt_clust_4="14000.00000" pt_clust_5="67.03253" pt_clust_6="71.11694"></scales>
<clustering>
<clus scale="   34.732">  2  3  1 -1</clus>
<clus scale="   71.117">  2  6  1 -1</clus>
<clus scale="   67.033">  1  5  2 -1</clus>
<clus scale="   67.033">  1  3  2 -1</clus>
</clustering>
</event>
<event>
 6    0  0.1344929E+003  0.1395241E+03  0.7546771E-02  0.1213971E+00
         21   -1    0    0  506  501  0.00000000000E+00  0.00000000000E+00  0.10420559379E+04  0.10420559379E+04  0.00000000000E+00 0.  1.
         21   -1    0    0  504  502 -0.00000000000E+00 -0.00000000000E+00 -0.67915024592E+02  0.67915024592E+02  0.00000000000E+00 0.  1.
         21    1    1    2  503  502 -0.89134003540E+02 -0.11145324554E+03  0.16649773490E+03  0.21929020100E+03  0.00000000000E+00 0.  1.
         21    1    1    2  504  505 -0.43812027282E+02  0.41009698305E+02 -0.29408796524E+01  0.60082758448E+02  0.00000000000E+00 0.  1.
         21    1    1    2  505  501  0.85134048714E+02  0.94094923715E+02  0.60871327701E+03  0.62179861252E+03  0.00000000000E+00 0.  1.
         21    1    1    2  506  503  0.47811982108E+02 -0.23651376485E+02  0.20187078104E+03  0.20879939051E+03  0.00000000000E+00 0.  1.
<scales pt_clust_3="139.52406" pt_clust_4="58.26931" pt_clust_5="14000.00000" pt_clust_6="53.34204"></scales>
<clustering>
<clus scale="   53.342">  1  6  2 -1</clus>
<clus scale="   58.269">  2  4  1 -1</clus>
<clus scale="  139.524">  2  3  1 -1</clus>
<clus scale="   53.342">  1  3  2 -1</clus>
</clustering>
</event>
<event>
 6    0  0.1344929E+003  0.2070697E+03  0.7546771E-02  0.1143908E+00
         21   -1    0    0  504  501  0.00000000000E+00  0.00000000000E+00  0.44188488429E+03  0.44188488429E+03  0.00000000000E+00 0.  1.
         21   -1    0    0  503  502 -0.00000000000E+00 -0.00000000000E+00 -0.51386740782E+03  0.51386740782E+03  0.00000000000E+00 0. -1.
         21    1    1    2  503  506 -0.78303429766E+02  0.20321274231E+02 -0.84435303742E+02  0.11693460488E+03  0.00000000000E+00 0. -1.
         21    1    1    2  504  502 -0.15334944294E+02  0.18081557204E+03 -0.35201318132E+03  0.39603372512E+03  0.00000000000E+00 0. -1.
         21    1    1    2  505  501  0.78574218330E+02 -0.37477267139E+02  0.12971021588E+03  0.15621521514E+03  0.00000000000E+00 0.  1.
         21    1    1    2  506  505  0.15064155730E+02 -0.16365957913E+03  0.23475574565E+03  0.28656874698E+03  0.00000000000E+00 0.  1.
<scales pt_clust_3="80.89735" pt_clust_4="207.06970" pt_clust_5="84.50828" pt_clust_6="14000.00000"></scales>
<clustering>
<clus scale="   80.897">  2  3  1 -1</clus>
<clus scale="   84.508">  1  5  2 -1</clus>
<clus scale="  207.070">  2  4  1 -1</clus>
<clus scale="   84.508">  1  3  2 -1</clus>
</clustering>
</event>
<event>
 6    0  0.1344929E+003  0.9231445E+02  0.7546771E-02  0.1297342E+00
         21   -1    0    0  506  501  0.00000000000E+00  0.00000000000E+00  0.14288886885E+03  0.14288886885E+03  0.00000000000E+00 0. -1.
         21   -1    0    0  503  502 -0.00000000000E+00 -0.00000000000E+00 -0.34703086343E+03  0.34703086343E+03  0.00000000000E+00 0. -1.
         21    1    1    2  503  501 -0.38388589139E+02  0.23823412347E+00 -0.76906021681E+02  0.85955085379E+02  0.00000000000E+00 0. -1.
         21    1    1    2  504  502 -0.11176711914E+02  0.30481553145E+02 -0.19075445853E+03  0.19349756438E+03  0.00000000000E+00 0. -1.
         21    1    1    2  505  504  0.78344338735E+02  0.60020256202E+02  0.52011980481E+01  0.98829747685E+02  0.00000000000E+00 0. -1.
         21    1    1    2  506  505 -0.28779037682E+02 -0.90740043470E+02  0.58317287576E+02  0.11163733484E+03  0.00000000000E+00 0. -1.
<scales pt_clust_3="47.15661" pt_clust_4="32.46604" pt_clust_5="92.31445" pt_clust_6="14000.00000"></scales>
<clustering>
<clus scale="   32.466">  2  4  1 -1</clus>
<clus scale="   47.157">  2  3  1 -1</clus>
<clus scale="   92.314">  2  5  1 -1</clus>
<clus scale="   92.314">  1  3  2 -1</clus>
</clustering>
</event>
<event>
 6    0  0.1344929E+003  0.8877702E+02  0.7546771E-02  0.1305841E+00
         21   -1    0    0  503  501  0.00000000000E+00  0.00000000000E+00  0.14485576085E+04  0.14485576085E+04  0.00000000000E+00 0.  1.
         21   -1    0    0  505  502 -0.00000000000E+00 -0.00000000000E+00 -0.69556610620E+02  0.69556610620E+02  0.00000000000E+00 0. -1.
         21    1    1    2  503  502  0.78179706311E+01 -0.76630542208E+02  0.61225811935E+03  0.61708456906E+03  0.00000000000E+00 0.  1.
         21    1    1    2  504  501 -0.20221196104E+02  0.27898479439E+02  0.65031583630E+03  0.65122800068E+03  0.00000000000E+00 0.  1.
         21    1    1    2  505  506 -0.21660325667E+02  0.86766170874E+02 -0.30317557658E+02  0.94428239518E+02  0.00000000000E+00 0. -1.
         21    1    1    2  506  504  0.34063551141E+02 -0.38034108106E+02  0.14674459988E+03  0.15537340986E+03  0.00000000000E+00 0.  1.
<scales pt_clust_3="88.77702" pt_clust_4="34.45609" pt_clust_5="14000.00000" pt_clust_6="44.57358"></scales>
<clustering>
<clus scale="   34.456">  1  4  2 -1</clus>
<clus scale="   44.574">  1  6  2 -1</clus>
<clus scale="   88.777">  1  3  2 -1</clus>
<clus scale="   34.456">  1  3  2 -1</clus>
</clustering>
</event>
<event>
 6    0  0.1344929E+003  0.9975868E+02  0.7546771E-02  0.1280804E+00
         21   -1    0    0  504  501  0.00000000000E+00  0.00000000000E+00  0.22145906981E+03  0.22145906981E+03  0.00000000000E+00 0. -1.
         21   -1    0    0  503  502 -0.00000000000E+00 -0.00000000000E+00 -0.35130003863E+03  0.35130003863E+03  0.00000000000E+00 0. -1.
         21    1    1    2  503  505 -0.23840520655E+02  0.40687212354E+02 -0.19713070938E+03  0.20269271387E+03  0.00000000000E+00 0. -1.
         21    1    1    2  504  506 -0.21102586088E+02  0.53869832515E+02  0.14322412561E+03  0.15446821081E+03  0.00000000000E+00 0. -1.
         21    1    1    2  505  501 -0.39801976990E+02  0.24448004834E+02  0.75724698955E+01  0.47320657360E+02  0.00000000000E+00 0. -1.
         21    1    1    2  506  502  0.84745083734E+02 -0.11900504970E+03 -0.83506854939E+02  0.16827752641E+03  0.00000000000E+00 0. -1.
<scales pt_clust_3="47.74922" pt_clust_4="99.75868" pt_clust_5="46.71084" pt_clust_6="14000.00000"></scales>
<clustering>
<clus scale="   46.711">  1  5  2 -1</clus>
<clus scale="   47.749">  2  3  1 -1</clus>
<clus scale="   99.759">  1  4  2 -1</clus>
<clus scale="   46.711">  1  3  2 -1</clus>
</clustering>
</event>
<event>
 6    0  0.1344929E+003  0.9985240E+02  0.7546771E-02  0.1280607E+00
         21   -1    0    0  506  501  0.00000000000E+00  0.00000000000E+00  0.81325203928E+03  0.81325203928E+03  0.00000000000E+00 0.  1.
         21   -1    0    0  504  502 -0.00000000000E+00 -0.00000000000E+00 -0.46526281716E+02  0.46526281716E+02  0.00000000000E+00 0.  1.
         21    1    1    2  503  501  0.10065534394E+03  0.12770504422E+02  0.46221972804E+03  0.47322474686E+03  0.00000000000E+00 0.  1.
         21    1    1    2  504  503 -0.25846442344E+02 -0.55205402826E+02  0.72808204854E+02  0.94956357223E+02  0.00000000000E+00 0.  1.
         21    1    1    2  505  502  0.20584630826E+02 -0.37250028860E+02  0.22200084425E+02  0.48001410654E+02  0.00000000000E+00 0. -1.
         21    1    1    2  506  505 -0.95393532424E+02  0.79684927264E+02  0.20949774024E+03  0.24359580626E+03  0.00000000000E+00 0.  1.
<scales pt_clust_3="14000.00000" pt_clust_4="70.11548" pt_clust_5="42.55927" pt_clust_6="99.85240"></scales>
<clustering>
<clus scale="   42.559">  2  5  1 -1</clus>
<clus scale="   70.115">  2  4  1 -1</clus>
<clus scale="   99.852">  2  6  1 -1</clus>
<clus scale="   99.852">  1  3  2 -1</clus>
</clustering>
</event>
<event>
 6    0  0.1344929E+003  0.7673736E+02  0.7546771E-02  0.1338574E+00
         21   -1    0    0  505  501  0.00000000000E+00  0.00000000000E+00  0.33518272304E+02  0.33518272304E+02  0.00000000000E+00 0. -1.
         21   -1    0    0  503  502 -0.00000000000E+00 -0.00000000000E+00 -0.11322442139E+04  0.11322442139E+04  0.00000000000E+00 0. -1.
         21    1    1    2  503  501 -0.55007601001E+02  0.75141596074E+02 -0.22566631413E+03  0.24412574826E+03  0.00000000000E+00 0. -1.
         21    1    1    2  504  506  0.18718134370E+02 -0.54229976215E+02 -0.15848488234E+03  0.16854885584E+03  0.00000000000E+00 0. -1.
         21    1    1    2  505  504  0.56700838273E+02 -0.45295502511E+02 -0.50878004040E+02  0.88629785646E+02  0.00000000000E+00 0. -1.
         21    1    1    2  506  502 -0.20411371642E+02  0.24383882652E+02 -0.66369674106E+03  0.66445809643E+03  0.00000000000E+00 0. -1.
<scales pt_clust_3="76.73736" pt_clust_4="47.15953" pt_clust_5="14000.00000" pt_clust_6="31.79934"></scales>
<clustering>
<clus scale="   31.799">  2  6  1 -1</clus>
<clus scale="   47.160">  2  4  1 -1</clus>
<clus scale="   76.737">  2  3  1 -1</clus>
<clus scale="   76.737">  1  3  2 -1</clus>
</clustering>
</event>
<event>
 6    0  0.1344929E+003  0.1259641E+03  0.7546771E-02  0.1233570E+00
         21   -1    0    0  503  501  0.00000000000E+00  0.00000000000E+00  0.63609783728E+02  0.63609783728E+02  0.00000000000E+00 0. -1.
         21   -1    0    0  506  502 -0.00000000000E+00 -0.00000000000E+00 -0.58291337678E+03  0.58291337678E+03  0.00000000000E+00 0.  1.
         21    1    1    2  503  504  0.12266510849E+02 -0.31420669006E+02 -0.18582081303E+02  0.38509991882E+02  0.00000000000E+00 0. -1.
         21    1    1    2  504  502 -0.37015335806E+02  0.12383304347E+03 -0.13319541181E+03  0.18559573127E+03  0.00000000000E+00 0. -1.
         21    1    1    2  505  501  0.20920365195E+02  0.33409503692E+02 -0.63419682016E+01  0.39925896076E+02  0.00000000000E+00 0. -1.
         21    1    1    2  506  505  0.38284597623E+01 -0.12582187816E+03 -0.36118413174E+03  0.38249154128E+03  0.00000000000E+00 0.  1.
<scales pt_clust_3="33.73019" pt_clust_4="14000.00000" pt_clust_5="34.18781" pt_clust_6="125.96408"></scales>
<clustering>
<clus scale="   33.730">  1  3  2 -1</clus>
<clus scale="   34.188">  1  5  2 -1</clus>
<clus scale="  125.964">  2  6  1 -1</clus>
<clus scale="   33.730">  1  3  2 -1</clus>
</clustering>
</event>
<event>
 6    0  0.1344929E+003  0.1369464E+03  0.7546771E-02  0.1217498E+00
         21   -1    0    0  505  501  0.00000000000E+00  0.00000000000E+00  0.53329064647E+02  0.53329064647E+02  0.00000000000E+00 0. -1.
         21   -1    0    0  506  502 -0.00000000000E+00 -0.00000000000E+00 -0.11929631154E+04  0.11929631154E+04  0.00000000000E+00 0. -1.
         21    1    1    2  503  502 -0.14205466406E+02  0.47449143496E+02 -0.34853792696E+03  0.35203963275E+03  0.00000000000E+00 0.  1.
         21    1    1    2  504  503  0.59110257691E+02  0.68753059573E+02 -0.61402272992E+03  0.62068101198E+03  0.00000000000E+00 0. -1.
         21    1    1    2  505  504 -0.80790641275E+02 -0.33580552845E+01 -0.11295229786E+03  0.13891229552E+03  0.00000000000E+00 0. -1.
         21    1    1    2  506  501  0.35885849990E+02 -0.11284414778E+03 -0.64121096048E+02  0.13465923985E+03  0.00000000000E+00 0. -1.
<scales pt_clust_3="47.57320" pt_clust_4="47.57320" pt_clust_5="80.86040" pt_clust_6="120.87707"></scales>
<clustering>
<clus scale="   47.573">  3  4 -1 -1</clus>
<clus scale="   80.860">  1  5  2 -1</clus>
<clus scale="  120.877">  1  6  2 -1</clus>
<clus scale="   80.860">  1  3  2 -1</clus>
</clustering>
</event>
<event>
 6    0  0.1344929E+003  0.3053554E+03  0.7546771E-02  0.1082594E+00
         21   -1    0    0  503  501  0.00000000000E+00  0.00000000000E+00  0.18213579080E+03  0.18213579080E+03  0.00000000000E+00 0. -1.
         21   -1    0    0  505  502 -0.00000000000E+00 -0.00000000000E+00 -0.15545803173E+04  0.15545803173E+04  0.00000000000E+00 0.  1.
         21    1    1    2  503  506 -0.29786613786E+02 -0.87763834671E+01  0.33981084280E+02  0.46032394642E+02  0.00000000000E+00 0. -1.
         21    1    1    2  504  502  0.26620188508E+03 -0.52298936106E+02 -0.11813471516E+04  0.12120972383E+04  0.00000000000E+00 0.  1.
         21    1    1    2  505  501  0.52753229690E+02  0.73218764526E+02 -0.15727571337E+03  0.18132716492E+03  0.00000000000E+00 0.  1.
         21    1    1    2  506  504 -0.28916850098E+03 -0.12143444953E+02 -0.67802745795E+02  0.29725931029E+03  0.00000000000E+00 0. -1.
<scales pt_clust_3="31.05265" pt_clust_4="14000.00000" pt_clust_5="88.18246" pt_clust_6="305.35538"></scales>
<clustering>
<clus scale="   31.053">  1  3  2 -1</clus>
<clus scale="   88.182">  2  5  1 -1</clus>
<clus scale="  305.355">  1  6  2 -1</clus>
<clus scale="   31.053">  1  3  2 -1</clus>
</clustering>
</event>
<event>
 6    0  0.1344929E+003  0.1408420E+03  0.7546771E-02  0.1212200E+00
         21   -1    0    0  503  501  0.00000000000E+00  0.00000000000E+00  0.84601551206E+03  0.84601551206E+03  0.00000000000E+00 0. -1.
         21   -1    0    0  504  502 -0.00000000000E+00 -0.00000000000E+00 -0.42511127808E+03  0.42511127808E+03  0.00000000000E+00 0. -1.
         21    1    1    2  503  506  0.11668068869E+03  0.78010415161E+02  0.91934752771E+02  0.16778559758E+03  0.00000000000E+00 0. -1.
         21    1    1    2  504  505 -0.83491166772E+01  0.10159192492E+03  0.12052374226E+03  0.15784992685E+03  0.00000000000E+00 0. -1.
         21    1    1    2  505  501 -0.86266888314E+02 -0.35719921373E+02  0.55856644784E+03  0.56631648877E+03  0.00000000000E+00 0. -1.
         21    1    1    2  506  502 -0.22064683699E+02 -0.14388241871E+03 -0.35012070889E+03  0.37917477695E+03  0.00000000000E+00 0. -1.
<scales pt_clust_3="140.84202" pt_clust_4="98.16125" pt_clust_5="93.36964" pt_clust_6="14000.00000"></scales>
<clustering>
<clus scale="   93.370">  1  5  2 -1</clus>
<clus scale="   98.161">  1  4  2 -1</clus>
<clus scale="  140.842">  1  3  2 -1</clus>
<clus scale="   93.370">  1  3  2 -1</clus>
</clustering>
</event>
<event>
 6    0  0.1344929E+003  0.2649147E+03  0.7546771E-02  0.1104226E+00
         21   -1    0    0  505  501  0.00000000000E+00  0.00000000000E+00  0.65876922424E+03  0.65876922424E+03  0.00000000000E+00 0.  1.
         21   -1    0    0  504  502 -0.00000000000E+00 -0.00000000000E+00 -0.12886570222E+04  0.12886570222E+04  0.00000000000E+00 0.  1.
         21    1    1    2  503  501 -0.53305635508E+02  0.50885184934E+02 -0.71889370266E+03  0.72266101912E+03  0.00000000000E+00 0.  1.
         21    1    1    2  504  503  0.55122991465E+02  0.48637851289E+02 -0.41774714271E+03  0.42416607597E+03  0.00000000000E+00 0.  1.
         21    1    1    2  505  506 -0.14666133445E+03 -0.24579952805E+03  0.52079192420E+03  0.59426524661E+03  0.00000000000E+00 0.  1.
         21    1    1    2  506  502  0.14484397850E+03  0.14627649183E+03 -0.14038876756E+02  0.20633390470E+03  0.00000000000E+00 0.  1.
<scales pt_clust_3="91.59636" pt_clust_4="73.51316" pt_clust_5="264.91471" pt_clust_6="14000.00000"></scales>
<clustering>
<clus scale="   73.513">  2  4  1 -1</clus>
<clus scale="   91.596">  2  3  1 -1</clus>
<clus scale="  264.915">  1  5  2 -1</clus>
<clus scale="  264.915">  1  3  2 -1</clus>
</clustering>
</event>
<event>
 6    0  0.1344929E+003  0.1073850E+03  0.7546771E-02  0.1265491E+00
         21   -1    0    0  503  501  0.00000000000E+00  0.00000000000E+00  0.43856077740E+03  0.43856077740E+03  0.00000000000E+00 0.  1.
         21   -1    0    0  505  502 -0.00000000000E+00 -0.00000000000E+00 -0.11006760505E+03  0.11006760505E+03  0.00000000000E+00 0.  1.
         21    1    1    2  503  506 -0.10122437520E+02  0.39074307243E+02  0.63085464545E+02  0.74893531528E+02  0.00000000000E+00 0.  1.
         21    1    1    2  504  502  0.37056693986E+02 -0.42011324807E+01 -0.56788977490E+02  0.67939944419E+02  0.00000000000E+00 0.  1.
         21    1    1    2  505  501 -0.99746318608E+02  0.18981494611E+02  0.29385002215E+03  0.31089783005E+03  0.00000000000E+00 0.  1.
         21    1    1    2  506  504  0.72812062142E+02 -0.53854669373E+02  0.28346663152E+02  0.94897076449E+02  0.00000000000E+00 0. -1.
<scales pt_clust_3="38.94979" pt_clust_4="37.29408" pt_clust_5="14000.00000" pt_clust_6="107.38500"></scales>
<clustering>
<clus scale="   37.294">  2  4  1 -1</clus>
<clus scale="   38.950">  1  3  2 -1</clus>
<clus scale="  107.385">  2  6  1 -1</clus>
<clus scale="   38.950">  1  3  2 -1</clus>
</clustering>
</event>
<event>
 6    0  0.1344929E+003  0.1436401E+03  0.7546771E-02  0.1208513E+00
         21   -1    0    0  505  501  0.00000000000E+00  0.00000000000E+00  0.50712765050E+03  0.50712765050E+03  0.00000000000E+00 0.  1.
         21   -1    0    0  506  502 -0.00000000000E+00 -0.00000000000E+00 -0.14043135420E+04  0.14043135420E+04  0.00000000000E+00 0.  1.
         21    1    1    2  503  501  0.70631841830E+02  0.80879962150E+02 -0.17317707662E+02  0.10876731290E+03  0.00000000000E+00 0.  1.
         21    1    1    2  504  502 -0.12536603896E+02 -0.80622157649E+02  0.17625957697E+03  0.19422805465E+03  0.00000000000E+00 0.  1.
         21    1    1    2  505  504 -0.36099774724E+02 -0.43825338780E+02  0.27278786879E+03  0.27863430408E+03  0.00000000000E+00 0.  1.
         21    1    1    2  506  503 -0.21995463210E+02  0.43567534279E+02 -0.13289156296E+04  0.13298115209E+04  0.00000000000E+00 0.  1.
<scales pt_clust_3="128.56884" pt_clust_4="54.67383" pt_clust_5="54.67383" pt_clust_6="48.80502"></scales>
<clustering>
<clus scale="   48.805">  2  6  1 -1</clus>
<clus scale="   54.674">  4  5 -1 -1</clus>
<clus scale="  128.569">  2  3  1 -1</clus>
<clus scale="  143.640">  1  3  2 -1</clus>
</clustering>
</event>
<event>
 6    0  0.1344929E+003  0.7369318E+02  0.7546771E-02  0.1347966E+00
         21   -1    0    0  506  501  0.00000000000E+00  0.00000000000E+00  0.15404375774E+03  0.15404375774E+03  0.00000000000E+00 0.  1.
         21   -1    0    0  505  502 -0.00000000000E+00 -0.00000000000E+00 -0.15847721268E+04  0.15847721268E+04  0.00000000000E+00 0. -1.
         21    1    1    2  503  504  0.18070972920E+01  0.93658823494E+02 -0.22953427383E+03  0.24791374242E+03  0.00000000000E+00 0.  1.
         21    1    1    2  504  502 -0.31699934008E+02 -0.43505233919E+02 -0.16294859037E+03  0.17160954023E+03  0.00000000000E+00 0.  1.
         21    1    1    2  505  501  0.46717537517E+02  0.20857947086E+02 -0.11686967365E+04  0.11698160728E+04  0.00000000000E+00 0. -1.
         21    1    1    2  506  503 -0.16824700801E+02 -0.71011536661E+02  0.13045123168E+03  0.14947652907E+03  0.00000000000E+00 0.  1.
<scales pt_clust_3="14000.00000" pt_clust_4="37.40050" pt_clust_5="51.16231" pt_clust_6="73.69318"></scales>
<clustering>
<clus scale="   51.162">  2  5  1 -1</clus>
<clus scale="   37.401">  2  4  1 -1</clus>
<clus scale="   73.693">  1  6  2 -1</clus>
<clus scale="   73.693">  1  3  2 -1</clus>
</clustering>
</event>
<event>
 6    0  0.1344929E+003  0.8601707E+02  0.7546771E-02  0.1312794E+00
         21   -1    0    0  503  501  0.00000000000E+00  0.00000000000E+00  0.32144583767E+03  0.32144583767E+03  0.00000000000E+00 0.  1.
         21   -1    0    0  506  502 -0.00000000000E+00 -0.00000000000E+00 -0.61263051751E+03  0.61263051751E+03  0.00000000000E+00 0.  1.
         21    1    1    2  503  502  0.33236166213E+02 -0.61564404486E+02  0.22412175603E+03  0.23478794724E+03  0.00000000000E+00 0.  1.
         21    1    1    2  504  501 -0.38709672866E+02  0.13459748125E+02  0.26890386081E+02  0.49017307724E+02  0.00000000000E+00 0. -1.
         21    1    1    2  505  504  0.48236492234E+02 -0.26787698505E+02  0.35867561491E+02  0.65808980706E+02  0.00000000000E+00 0. -1.
         21    1    1    2  506  505 -0.42762985580E+02  0.74892354866E+02 -0.57806438344E+03  0.58446211952E+03  0.00000000000E+00 0.  1.
<scales pt_clust_3="86.01707" pt_clust_4="40.98297" pt_clust_5="47.95150" pt_clust_6="14000.00000"></scales>
<clustering>
<clus scale="   40.983">  1  4  2 -1</clus>
<clus scale="   47.951">  1  5  2 -1</clus>
<clus scale="   86.017">  1  3  2 -1</clus>
<clus scale="   40.983">  1  3  2 -1</clus>
</clustering>
</event>
<event>
 6    0  0.1344929E+003  0.1097807E+03  0.7546771E-02  0.1260977E+00
         21   -1    0    0  506  501  0.00000000000E+00  0.00000000000E+00  0.14418021255E+04  0.14418021255E+04  0.00000000000E+00 0.  1.
         21   -1    0    0  504  502 -0.00000000000E+00 -0.00000000000E+00 -0.22683126813E+03  0.22683126813E+03  0.00000000000E+00 0. -1.
         21    1    1    2  503  501 -0.11831480906E+03  0.60126381665E+02  0.75586997999E+03  0.76743273481E+03  0.00000000000E+00 0. -1.
         21    1    1    2  504  503  0.43556951735E+02 -0.59087000841E+02  0.34554980058E+02  0.81132782275E+02  0.00000000000E+00 0. -1.
         21    1    1    2  505  502  0.21637145204E+02 -0.43900901407E+02 -0.19282281879E+03  0.19893741388E+03  0.00000000000E+00 0. -1.
         21    1    1    2  506  505  0.53120712125E+02  0.42861520583E+02  0.61736871610E+03  0.62113046264E+03  0.00000000000E+00 0.  1.
<scales pt_clust_3="14000.00000" pt_clust_4="109.78068" pt_clust_5="48.94339" pt_clust_6="67.66658"></scales>
<clustering>
<clus scale="   48.943">  2  5  1 -1</clus>
<clus scale="   67.667">  1  6  2 -1</clus>
<clus scale="  109.781">  2  4  1 -1</clus>
<clus scale="   67.667">  1  3  2 -1</clus>
</clustering>
</event>
<event>
 6    0  0.1344929E+003  0.7350247E+02  0.7546771E-02  0.1348572E+00
         21   -1    0    0  505  501  0.00000000000E+00  0.00000000000E+00  0.75838734670E+03  0.75838734670E+03  0.00000000000E+00 0.  1.
         21   -1    0    0  503  502 -0.00000000000E+00 -0.00000000000E+00 -0.78902161888E+02  0.78902161888E+02  0.00000000000E+00 0. -1.
         21    1    1    2  503  506 -0.46498567243E+01  0.71023491216E+02  0.13555111317E+03  0.15310147535E+03  0.00000000000E+00 0.  1.
         21    1    1    2  504  502  0.33965020190E+02 -0.17815201588E+02 -0.27177724977E+02  0.47006730784E+02  0.00000000000E+00 0. -1.
         21    1    1    2  505  504 -0.10739100378E+02 -0.12078565411E+03  0.90050573476E+02  0.15104174356E+03  0.00000000000E+00 0.  1.
         21    1    1    2  506  501 -0.18576063087E+02  0.67577364478E+02  0.48106122315E+03  0.48613955890E+03  0.00000000000E+00 0.  1.
<scales pt_clust_3="67.33003" pt_clust_4="38.35367" pt_clust_5="14000.00000" pt_clust_6="73.50247"></scales>
<clustering>
<clus scale="   38.354">  2  4  1 -1</clus>
<clus scale="   67.330">  2  3  1 -1</clus>
<clus scale="   73.502">  1  6  2 -1</clus>
<clus scale="   73.502">  1  3  2 -1</clus>
</clustering>
</event>
<event>
 6    0  0.1344929E+003  0.2262589E+03  0.7546771E-02  0.1129301E+00
         21   -1    0    0  503  501  0.00000000000E+00  0.00000000000E+00  0.24584026686E+03  0.24584026686E+03  0.00000000000E+00 0.  1.
         21   -1    0    0  506  502 -0.00000000000E+00 -0.00000000000E+00 -0.23473885569E+04  0.23473885569E+04  0.00000000000E+00 0.  1.
         21    1    1    2  503  504 -0.30318983259E+02  0.20921371492E+02  0.37599306802E+02  0.52636987024E+02  0.00000000000E+00 0.  1.
         21    1    1    2  504  505  0.89446109243E+02 -0.17473531574E+03  0.66274942518E+02  0.20718447102E+03  0.00000000000E+00 0.  1.
         21    1    1    2  505  502  0.34112464044E+02 -0.20680379617E+03 -0.16585198619E+04  0.16717115788E+04  0.00000000000E+00 0.  1.
         21    1    1    2  506  501 -0.93239590027E+02  0.36061774042E+03 -0.54690267753E+03  0.66169578701E+03  0.00000000000E+00 0.  1.
<scales pt_clust_3="36.83673" pt_clust_4="174.60694" pt_clust_5="226.25888" pt_clust_6="14000.00000"></scales>
<clustering>
<clus scale="   36.837">  1  3  2 -1</clus>
<clus scale="  174.607">  1  4  2 -1</clus>
<clus scale="  226.259">  2  5  1 -1</clus>
<clus scale="   36.837">  1  3  2 -1</clus>
</clustering>
</event>
<event>
 6    0  0.1344929E+003  0.1755692E+03  0.7546771E-02  0.1172161E+00
         21   -1    0    0  506  501  0.00000000000E+00  0.00000000000E+00  0.42270980917E+03  0.42270980917E+03  0.00000000000E+00 0. -1.
         21   -1    0    0  505  502 -0.00000000000E+00 -0.00000000000E+00 -0.43850059523E+03  0.43850059523E+03  0.00000000000E+00 0. -1.
         21    1    1    2  503  504 -0.10844358210E+03  0.28084310429E+02 -0.19701281466E+03  0.22663359886E+03  0.00000000000E+00 0. -1.
         21    1    1    2  504  501 -0.40201094651E+02 -0.37616067316E+02  0.15656337608E+03  0.16596140292E+03  0.00000000000E+00 0.  1.
         21    1    1    2  505  503 -0.53886112447E+02 -0.14095197904E+02 -0.17475024889E+03  0.18341220571E+03  0.00000000000E+00 0. -1.
         21    1    1    2  506  502  0.20253078920E+03  0.23626954790E+02  0.19940890141E+03  0.28520319691E+03  0.00000000000E+00 0. -1.
<scales pt_clust_3="41.01431" pt_clust_4="55.05540" pt_clust_5="41.01431" pt_clust_6="165.65438"></scales>
<clustering>
<clus scale="   41.014">  3  5 -1 -1</clus>
<clus scale="   55.055">  1  4  2 -1</clus>
<clus scale="  165.654">  1  6  2 -1</clus>
<clus scale="   55.055">  1  3  2 -1</clus>
</clustering>
</event>
<event>
 6    0  0.1344929E+003  0.1336537E+03  0.7546771E-02  0.1222133E+00
         21   -1    0    0  503  501  0.00000000000E+00  0.00000000000E+00  0.21602266618E+03  0.21602266618E+03  0.00000000000E+00 0.  1.
         21   -1    0    0  504  502 -0.00000000000E+00 -0.00000000000E+00 -0.26540842108E+03  0.26540842108E+03  0.00000000000E+00 0.  1.
         21    1    1    2  503  505  0.81882069349E+02  0.54840803902E+02 -0.11242610561E+03  0.14950523829E+03  0.00000000000E+00 0.  1.
         21    1    1    2  504  506 -0.66925440949E+02 -0.23097368728E+02  0.99932835607E+02  0.12247070964E+03  0.00000000000E+00 0.  1.
         21    1    1    2  505  502  0.17458953383E+02  0.26234696049E+02 -0.10779007481E+03  0.11230215740E+03  0.00000000000E+00 0. -1.
         21    1    1    2  506  501 -0.32415581784E+02 -0.57978131223E+02  0.70897589912E+02  0.97152981930E+02  0.00000000000E+00 0.  1.
<scales pt_clust_3="123.50568" pt_clust_4="49.11243" pt_clust_5="31.51308" pt_clust_6="49.11243"></scales>
<clustering>
<clus scale="   31.513">  2  5  1 -1</clus>
<clus scale="   49.112">  4  6 -1 -1</clus>
<clus scale="  123.506">  2  3  1 -1</clus>
<clus scale="  133.654">  1  3  2 -1</clus>
</clustering>
</event>
<event>
 6    0  0.1344929E+003  0.1039619E+03  0.7546771E-02  0.1272178E+00
         21   -1    0    0  502  501  0.00000000000E+00  0.00000000000E+00  0.40460893300E+03  0.40460893300E+03  0.00000000000E+00 0. -1.
         21   -1    0    0  505  502 -0.00000000000E+00 -0.00000000000E+00 -0.10351371878E+03  0.10351371878E+03  0.00000000000E+00 0. -1.
         21    1    1    2  503  504  0.56110179749E+02  0.76629472012E+02  0.51038042390E+02  0.10782073095E+03  0.00000000000E+00 0. -1.
         21    1    1    2  504  506  0.20871998153E+02 -0.67977287943E+02  0.12902043118E+03  0.14731878239E+03  0.00000000000E+00 0. -1.
         21    1    1    2  505  503 -0.11680522766E+03 -0.30860904037E+02 -0.29795911125E+01  0.12085004994E+03  0.00000000000E+00 0. -1.
         21    1    1    2  506  501  0.39823049759E+02  0.22208719967E+02  0.12401633176E+03  0.13213308850E+03  0.00000000000E+00 0. -1.
<scales pt_clust_3="103.96192" pt_clust_4="69.98265" pt_clust_5="14000.00000" pt_clust_6="45.59718"></scales>
<clustering>
<clus scale="   45.597">  1  6  2 -1</clus>
<clus scale="   69.983">  1  4  2 -1</clus>
<clus scale="  103.962">  1  3  2 -1</clus>
<clus scale="   45.597">  1  3  2 -1</clus>
</clustering>
</event>
<event>
 6    0  0.1344929E+003  0.1226920E+03  0.7546771E-02  0.1238721E+00
         21   -1    0    0  503  501  0.00000000000E+00  0.00000000000E+00  0.27181839199E+02  0.27181839199E+02  0.00000000000E+00 0. -1.
         21   -1    0    0  505  502 -0.00000000000E+00 -0.00000000000E+00 -0.94407697132E+03  0.94407697132E+03  0.00000000000E+00 0.  1.
         21    1    1    2  503  506 -0.10273664337E+03 -0.69451388077E+02 -0.18325400899E+03  0.22126984659E+03  0.00000000000E+00 0. -1.
         21    1    1    2  504  501  0.51284579748E+02  0.31202379650E+02 -0.16009107046E+03  0.17097616050E+03  0.00000000000E+00 0.  1.
         21    1    1    2  505  504  0.41355414975E+02  0.49778275706E+01 -0.23315250066E+03  0.23684412106E+03  0.00000000000E+00 0.  1.
         21    1    1    2  506  502  0.10096648649E+02  0.33271180856E+02 -0.34039755200E+03  0.34216868238E+03  0.00000000000E+00 0.  1.
<scales pt_clust_3="115.18517" pt_clust_4="35.91381" pt_clust_5="35.91381" pt_clust_6="34.76944"></scales>
<clustering>
<clus scale="   34.769">  2  6  1 -1</clus>
<clus scale="   35.914">  4  5 -1 -1</clus>
<clus scale="  115.185">  1  3  2 -1</clus>
<clus scale="  115.185">  1  3  2 -1</clus>
</clustering>
</event>
<event>
 6    0  0.1344929E+003  0.1503798E+03  0.7546771E-02  0.1200007E+00
         21   -1    0    0  503  501  0.00000000000E+00  0.00000000000E+00  0.16234415246E+03  0.16234415246E+03  0.00000000000E+00 0.  1.
         21   -1    0    0  504  502 -0.00000000000E+00 -0.00000000000E+00 -0.23270831415E+03  0.23270831415E+03  0.00000000000E+00 0.  1.
         21    1    1    2  503  505 -0.28764357641E+02  0.80368397241E+02 -0.32039238300E+02  0.91175546812E+02  0.00000000000E+00 0.  1.
         21    1    1    2  504  506  0.11397377194E+03 -0.89393275337E+02 -0.45542044331E+02  0.15183957378E+03  0.00000000000E+00 0.  1.
         21    1    1    2  505  502 -0.51249710646E+02  0.30609697062E+02 -0.52856327723E+02  0.79732539003E+02  0.00000000000E+00 0.  1.
         21    1    1    2  506  501 -0.33959703648E+02 -0.21584818966E+02  0.60073448670E+02  0.72304807010E+02  0.00000000000E+00 0.  1.
<scales pt_clust_3="49.54670" pt_clust_4="139.03293" pt_clust_5="49.54670" pt_clust_6="40.23886"></scales>
<clustering>
<clus scale="   40.239">  1  6  2 -1</clus>
<clus scale="   49.547">  3  5 -1 -1</clus>
<clus scale="  139.033">  1  4  2 -1</clus>
<clus scale="   40.239">  1  3  2 -1</clus>
</clustering>
</event>
<event>
 6    0  0.1344929E+003  0.6419572E+02  0.7546771E-02  0.1381023E+00
         21   -1    0    0  503  501  0.00000000000E+00  0.00000000000E+00  0.44851457807E+03  0.44851457807E+03  0.00000000000E+00 0. -1.
         21   -1    0    0  504  502 -0.00000000000E+00 -0.00000000000E+00 -0.43369479108E+03  0.43369479108E+03  0.00000000000E+00 0. -1.
         21    1    1    2  503  502 -0.21405425628E+02 -0.54537609410E+02  0.24287003763E+02  0.63422406437E+02  0.00000000000E+00 0. -1.
         21    1    1    2  504  506  0.85590051403E+01 -0.61417994270E+02 -0.31199575865E+03  0.31809869539E+03  0.00000000000E+00 0. -1.
         21    1    1    2  505  501 -0.28459840035E+02  0.31744959484E+02  0.37793964974E+03  0.38033680310E+03  0.00000000000E+00 0. -1.
         21    1    1    2  506  505  0.41306260523E+02  0.84210644196E+02 -0.75411107848E+02  0.12035146423E+03  0.00000000000E+00 0. -1.
<scales pt_clust_3="52.34741" pt_clust_4="14000.00000" pt_clust_5="42.63455" pt_clust_6="64.19572"></scales>
<clustering>
<clus scale="   42.635">  1  5  2 -1</clus>
<clus scale="   52.347">  1  3  2 -1</clus>
<clus scale="   64.196">  1  6  2 -1</clus>
<clus scale="   42.635">  1  3  2 -1</clus>
</clustering>
</event>
<event>
 6    0  0.1344929E+003  0.9105928E+02  0.7546771E-02  0.1300307E+00
         21   -1    0    0  503  501  0.00000000000E+00  0.00000000000E+00  0.22889698363E+03  0.22889698363E+03  0.00000000000E+00 0. -1.
         21   -1    0    0  506  502 -0.00000000000E+00 -0.00000000000E+00 -0.51098290295E+03  0.51098290295E+03  0.00000000000E+00 0.  1.
         21    1    1    2  503  505  0.35577877829E+02  0.99079934141E+01  0.11327754910E+03  0.11914594770E+03  0.00000000000E+00 0. -1.
         21    1    1    2  504  501 -0.10031002008E+03  0.69394954072E+02  0.50011680753E+02  0.13182916214E+03  0.00000000000E+00 0. -1.
         21    1    1    2  505  502  0.41131017764E+02 -0.49496653525E+02 -0.28643340395E+02  0.70442318825E+02  0.00000000000E+00 0. -1.
         21    1    1    2  506  504  0.23601124487E+02 -0.29806293961E+02 -0.41673180878E+03  0.41846245792E+03  0.00000000000E+00 0.  1.
<scales pt_clust_3="36.93174" pt_clust_4="14000.00000" pt_clust_5="91.05928" pt_clust_6="38.12963"></scales>
<clustering>
<clus scale="   36.932">  1  3  2 -1</clus>
<clus scale="   38.130">  2  6  1 -1</clus>
<clus scale="   91.059">  2  5  1 -1</clus>
<clus scale="   36.932">  1  3  2 -1</clus>
</clustering>
</event>
<event>
 6    0  0.1344929E+003  0.1389972E+03  0.7546771E-02  0.1214685E+00
         21   -1    0    0  503  501  0.00000000000E+00  0.00000000000E+00  0.78566589112E+03  0.78566589112E+03  0.00000000000E+00 0. -1.
         21   -1    0    0  505  502 -0.00000000000E+00 -0.00000000000E+00 -0.95157453906E+03  0.95157453906E+03  0.00000000000E+00 0. -1.
         21    1    1    2  503  506  0.40436406091E+02 -0.14617822442E+02  0.72757008247E+03  0.72883949439E+03  0.00000000000E+00 0. -1.
         21    1    1    2  504  502  0.48123015211E+02  0.20585475088E+02 -0.57132219753E+03  0.57371477214E+03  0.00000000000E+00 0. -1.
         21    1    1    2  505  501 -0.17521838607E+02  0.13297373612E+03 -0.17214871943E+03  0.21822972054E+03  0.00000000000E+00 0. -1.
         21    1    1    2  506  504 -0.71037582696E+02 -0.13894138877E+03 -0.15000781346E+03  0.21645644312E+03  0.00000000000E+00 0. -1.
<scales pt_clust_3="42.99748" pt_clust_4="52.99889" pt_clust_5="138.99722" pt_clust_6="14000.00000"></scales>
<clustering>
<clus scale="   42.997">  1  3  2 -1</clus>
<clus scale="   52.999">  2  4  1 -1</clus>
<clus scale="  138.997">  1  5  2 -1</clus>
<clus scale="   42.997">  1  3  2 -1</clus>
</clustering>
</event>
<event>
 6    0  0.1344929E+003  0.1164778E+03  0.7546771E-02  0.1249023E+00
         21   -1    0    0  503  501  0.00000000000E+00  0.00000000000E+00  0.85853712690E+03  0.85853712690E+03  0.00000000000E+00 0.  1.
         21   -1    0    0  505  502 -0.00000000000E+00 -0.00000000000E+00 -0.85082283736E+03  0.85082283736E+03  0.00000000000E+00 0. -1.
         21    1    1    2  503  506  0.53877830253E+02  0.38873045118E+02  0.63247127916E+03  0.63595114057E+03  0.00000000000E+00 0.  1.
         21    1    1    2  504  501  0.65107652463E+02 -0.30241025563E+02  0.20341527227E+03  0.21571114721E+03  0.00000000000E+00 0. -1.
         21    1    1    2  505  504  0.30651000113E+02 -0.61762087721E+01 -0.23205939218E+02  0.38937706375E+02  0.00000000000E+00 0. -1.
         21    1    1    2  506  502 -0.14963648283E+03 -0.24558107835E+01 -0.80496632268E+03  0.81875997011E+03  0.00000000000E+00 0. -1.
<scales pt_clust_3="66.48255" pt_clust_4="14000.00000" pt_clust_5="31.26707" pt_clust_6="116.47783"></scales>
<clustering>
<clus scale="   31.267">  2  5  1 -1</clus>
<clus scale="   66.483">  1  3  2 -1</clus>
<clus scale="  116.478">  2  6  1 -1</clus>
<clus scale="   66.483">  1  3  2 -1</clus>
</clustering>
</event>
<event>
 6    0  0.1344929E+003  0.9577814E+02  0.7546771E-02  0.1289433E+00
         21   -1    0    0  503  501  0.00000000000E+00  0.00000000000E+00  0.32741654553E+03  0.32741654553E+03  0.00000000000E+00 0. -1.
         21   -1    0    0  506  502 -0.00000000000E+00 -0.00000000000E+00 -0.16610181098E+04  0.16610181098E+04  0.00000000000E+00 0. -1.
         21    1    1    2  503  504  0.12915333846E+03  0.29478818275E+02  0.71584434117E+02  0.15057860661E+03  0.00000000000E+00 0. -1.
         21    1    1    2  504  502  0.35536941992E+00 -0.35432485158E+02 -0.15697737158E+04  0.15701735911E+04  0.00000000000E+00 0. -1.
         21    1    1    2  505  501 -0.76818805527E+02 -0.41189629403E+02  0.17568076818E+03  0.19611590135E+03  0.00000000000E+00 0. -1.
         21    1    1    2  506  505 -0.52689902349E+02  0.47143296286E+02 -0.11093050680E+02  0.71566556209E+02  0.00000000000E+00 0. -1.
<scales pt_clust_3="14000.00000" pt_clust_4="35.43427" pt_clust_5="95.77814" pt_clust_6="61.02370"></scales>
<clustering>
<clus scale="   35.434">  2  4  1 -1</clus>
<clus scale="   61.024">  2  6  1 -1</clus>
<clus scale="   95.778">  1  5  2 -1</clus>
<clus scale="   95.778">  1  3  2 -1</clus>
</clustering>
</event>
<event>
 6    0  0.1344929E+003  0.1119769E+03  0.7546771E-02  0.1256952E+00
         21   -1    0    0  503  501  0.00000000000E+00  0.00000000000E+00  0.71613224909E+03  0.71613224909E+03  0.00000000000E+00 0.  1.
         21   -1    0    0  506  502 -0.00000000000E+00 -0.00000000000E+00 -0.38523552659E+03  0.38523552659E+03  0.00000000000E+00 0.  1.
         21    1    1    2  503  505 -0.45598347870E+02  0.13084442950E+03  0.51588879761E+02  0.14785427480E+03  0.00000000000E+00 0.  1.
         21    1    1    2  504  501  0.32784702725E+02  0.10286840768E+02  0.54057918080E+03  0.54167010859E+03  0.00000000000E+00 0.  1.
         21    1    1    2  505  502 -0.92221096041E+01 -0.48734247687E+02 -0.30376189335E+03  0.30778460334E+03  0.00000000000E+00 0.  1.
         21    1    1    2  506  504  0.22035754749E+02 -0.92397022585E+02  0.42490555284E+02  0.10405878895E+03  0.00000000000E+00 0.  1.
<scales pt_clust_3="14000.00000" pt_clust_4="34.36067" pt_clust_5="49.41414" pt_clust_6="111.97689"></scales>
<clustering>
<clus scale="   34.361">  1  4  2 -1</clus>
<clus scale="   49.414">  2  5  1 -1</clus>
<clus scale="  111.977">  1  6  2 -1</clus>
<clus scale="   34.361">  1  3  2 -1</clus>
</clustering>
</event>
<event>
 6    0  0.1344929E+003  0.8534901E+02  0.7546771E-02  0.1314522E+00
         21   -1    0    0  505  501  0.00000000000E+00  0.00000000000E+00  0.14736809009E+03  0.14736809009E+03  0.00000000000E+00 0.  1.
         21   -1    0    0  504  502 -0.00000000000E+00 -0.00000000000E+00 -0.18677462791E+03  0.18677462791E+03  0.00000000000E+00 0.  1.
         21    1    1    2  503  502  0.22604623605E+02  0.28733920226E+02 -0.22072861581E+02  0.42706186885E+02  0.00000000000E+00 0. -1.
         21    1    1    2  504  506 -0.39701247875E+02 -0.39358232039E+02 -0.84866693762E+02  0.10162487502E+03  0.00000000000E+00 0.  1.
         21    1    1    2  505  503  0.91718705272E+02 -0.20134281219E+02  0.19559617677E+02  0.95918136036E+02  0.00000000000E+00 0.  1.
         21    1    1    2  506  501 -0.74622081001E+02  0.30758593032E+02  0.47973399843E+02  0.93893520068E+02  0.00000000000E+00 0.  1.
<scales pt_clust_3="36.55964" pt_clust_4="34.09803" pt_clust_5="14000.00000" pt_clust_6="85.34901"></scales>
<clustering>
<clus scale="   36.560">  2  3  1 -1</clus>
<clus scale="   34.098">  2  4  1 -1</clus>
<clus scale="   85.349">  1  6  2 -1</clus>
<clus scale="   85.349">  1  3  2 -1</clus>
</clustering>
</event>
<event>
 6    0  0.1344929E+003  0.1194253E+03  0.7546771E-02  0.1244048E+00
         21   -1    0    0  506  501  0.00000000000E+00  0.00000000000E+00  0.21505174172E+03  0.21505174172E+03  0.00000000000E+00 0. -1.
         21   -1    0    0  505  502 -0.00000000000E+00 -0.00000000000E+00 -0.15745285575E+04  0.15745285575E+04  0.00000000000E+00 0. -1.
         21    1    1    2  503  501  0.90641864756E+01 -0.47891791384E+02  0.11311311119E+03  0.12316801160E+03  0.00000000000E+00 0. -1.
         21    1    1    2  504  503 -0.16230786104E+03  0.96429961690E+02 -0.16551894391E+03  0.25107588506E+03  0.00000000000E+00 0. -1.
         21    1    1    2  505  504  0.11685244477E+03  0.34887611114E+01 -0.13391212239E+04  0.13442143867E+04  0.00000000000E+00 0. -1.
         21    1    1    2  506  502  0.36391229791E+02 -0.52026931417E+02  0.32050240811E+02  0.71122015821E+02  0.00000000000E+00 0.  1.
<scales pt_clust_3="48.74201" pt_clust_4="14000.00000" pt_clust_5="119.42526" pt_clust_6="87.79579"></scales>
<clustering>
<clus scale="   48.742">  1  3  2 -1</clus>
<clus scale="   87.796">  1  6  2 -1</clus>
<clus scale="  119.425">  2  5  1 -1</clus>
<clus scale="   48.742">  1  3  2 -1</clus>
</clustering>
</event>
<event>
 6    0  0.1585925E+003  0.9000294E+02  0.7546771E-02  0.1302845E+00
         21   -1    0    0  503  501  0.00000000000E+00  0.00000000000E+00  0.30606302762E+03  0.30606302762E+03  0.00000000000E+00 0.  1.
         21   -1    0    0  505  502 -0.00000000000E+00 -0.00000000000E+00 -0.21326041354E+04  0.21326041354E+04  0.00000000000E+00 0.  1.
         21    1    1    2  503  504  0.68260077316E+02 -0.43779430057E+02  0.21751987865E+03  0.23214429620E+03  0.00000000000E+00 0.  1.
         21    1    1    2  504  502  0.40348533467E+01  0.90126252500E+02 -0.20838271108E+04  0.20857790988E+04  0.00000000000E+00 0.  1.
         21    1    1    2  505  506 -0.54283642560E+02 -0.15705056703E+01 -0.54879322185E+01  0.54582943651E+02  0.00000000000E+00 0.  1.
         21    1    1    2  506  501 -0.18011288103E+02 -0.44776316772E+02  0.45254056573E+02  0.66160824354E+02  0.00000000000E+00 0.  1.
<scales pt_clust_3="90.00294" pt_clust_4="14000.00000" pt_clust_5="56.36573" pt_clust_6="48.26308"></scales>
<clustering>
<clus scale="   48.263">  1  6  2 -1</clus>
<clus scale="   56.366">  1  5  2 -1</clus>
<clus scale="   90.003">  1  3  2 -1</clus>
<clus scale="   48.263">  1  3  2 -1</clus>
</clustering>
</event>
<event>
 6    0  0.1344929E+003  0.1024166E+03  0.7546771E-02  0.1275295E+00
         21   -1    0    0  505  501  0.00000000000E+00  0.00000000000E+00  0.16227612402E+03  0.16227612402E+03  0.00000000000E+00 0. -1.
         21   -1    0    0  504  502 -0.00000000000E+00 -0.00000000000E+00 -0.41719075517E+03  0.41719075517E+03  0.00000000000E+00 0. -1.
         21    1    1    2  503  502 -0.21351366147E+01 -0.37633242872E+02 -0.55719227943E+02  0.67271480882E+02  0.00000000000E+00 0. -1.
         21    1    1    2  504  506 -0.44966920570E+02  0.12484319930E+03 -0.29556453966E+03  0.32398494635E+03  0.00000000000E+00 0. -1.
         21    1    1    2  505  503 -0.42222277079E+02 -0.29735390787E+02  0.13191021331E+02  0.53300255072E+02  0.00000000000E+00 0. -1.
         21    1    1    2  506  501  0.89324334264E+02 -0.57474565643E+02  0.83178115123E+02  0.13491019688E+03  0.00000000000E+00 0. -1.
<scales pt_clust_3="37.69376" pt_clust_4="14000.00000" pt_clust_5="52.98851" pt_clust_6="102.41660"></scales>
<clustering>
<clus scale="   37.694">  2  3  1 -1</clus>
<clus scale="   52.989">  1  5  2 -1</clus>
<clus scale="  102.417">  1  6  2 -1</clus>
<clus scale="   52.989">  1  3  2 -1</clus>
</clustering>
</event>
<event>
 6    0  0.1344929E+003  0.1136429E+03  0.7546771E-02  0.1253969E+00
         21   -1    0    0  505  501  0.00000000000E+00  0.00000000000E+00  0.66955019377E+03  0.66955019377E+03  0.00000000000E+00 0. -1.
         21   -1    0    0  506  502 -0.00000000000E+00 -0.00000000000E+00 -0.27120920732E+03  0.27120920732E+03  0.00000000000E+00 0. -1.
         21    1    1    2  503  504 -0.22234349100E+02  0.50294719124E+02  0.27076713584E+03  0.27629471023E+03  0.00000000000E+00 0. -1.
         21    1    1    2  504  501  0.22748834381E+02  0.53576254530E+02  0.35663126372E+03  0.36134994504E+03  0.00000000000E+00 0. -1.
         21    1    1    2  505  502  0.51783790076E+02 -0.99022356027E+02 -0.61569101943E+02  0.12758425538E+03  0.00000000000E+00 0. -1.
         21    1    1    2  506  503 -0.52298275358E+02 -0.48486176269E+01 -0.16748831116E+03  0.17553049044E+03  0.00000000000E+00 0. -1.
<scales pt_clust_3="45.30439" pt_clust_4="45.30439" pt_clust_5="103.64460" pt_clust_6="52.52255"></scales>
<clustering>
<clus scale="   45.304">  3  4 -1 -1</clus>
<clus scale="   52.523">  2  6  1 -1</clus>
<clus scale="  103.645">  2  5  1 -1</clus>
<clus scale="  113.643">  1  3  2 -1</clus>
</clustering>
</event>
<event>
 6    0  0.1344929E+003  0.1517949E+03  0.7546771E-02  0.1198285E+00
         21   -1    0    0  505  501  0.00000000000E+00  0.00000000000E+00  0.10712758037E+04  0.10712758037E+04  0.00000000000E+00 0.  1.
         21   -1    0    0  503  502 -0.00000000000E+00 -0.00000000000E+00 -0.98342920528E+03  0.98342920528E+03  0.00000000000E+00 0.  1.
         21    1    1    2  503  501  0.11919172495E+03 -0.50319841565E+02  0.11341365494E+01  0.12938330656E+03  0.00000000000E+00 0. -1.
         21    1    1    2  504  506 -0.10730104384E+02 -0.99834666536E+02  0.92184522557E+03  0.92729753353E+03  0.00000000000E+00 0.  1.
         21    1    1    2  505  504 -0.24121937152E+02  0.18628636685E+02  0.71658473578E+02  0.77870602875E+02  0.00000000000E+00 0.  1.
         21    1    1    2  506  502 -0.84339683413E+02  0.13152587142E+03 -0.90679123728E+03  0.92015356602E+03  0.00000000000E+00 0.  1.
<scales pt_clust_3="14000.00000" pt_clust_4="88.94357" pt_clust_5="30.47776" pt_clust_6="151.79493"></scales>
<clustering>
<clus scale="   30.478">  1  5  2 -1</clus>
<clus scale="   88.944">  1  4  2 -1</clus>
<clus scale="  151.795">  2  6  1 -1</clus>
<clus scale="   30.478">  1  3  2 -1</clus>
</clustering>
</event>
<event>
 6    0  0.1344929E+003  0.7774927E+02  0.7546771E-02  0.1335563E+00
         21   -1    0    0  504  501  0.00000000000E+00  0.00000000000E+00  0.46279872750E+03  0.46279872750E+03  0.00000000000E+00 0. -1.
         21   -1    0    0  506  502 -0.00000000000E+00 -0.00000000000E+00 -0.85058075656E+02  0.85058075656E+02  0.00000000000E+00 0. -1.
         21    1    1    2  503  501  0.19856808971E+02 -0.76303483646E+02  0.81069674733E+02  0.11308760604E+03  0.00000000000E+00 0. -1.
         21    1    1    2  504  505  0.33895260570E+02 -0.18541554633E+02  0.28524383321E+03  0.28784843637E+03  0.00000000000E+00 0. -1.
         21    1    1    2  505  502 -0.57465939682E+02  0.16665799814E+02  0.29324119475E+02  0.66633228122E+02  0.00000000000E+00 0. -1.
         21    1    1    2  506  503  0.37138701408E+01  0.78179238465E+02 -0.17896975579E+02  0.80287532614E+02  0.00000000000E+00 0. -1.
<scales pt_clust_3="77.74927" pt_clust_4="38.63519" pt_clust_5="49.61857" pt_clust_6="14000.00000"></scales>
<clustering>
<clus scale="   38.635">  1  4  2 -1</clus>
<clus scale="   49.619">  1  5  2 -1</clus>
<clus scale="   77.749">  1  3  2 -1</clus>
<clus scale="   38.635">  1  3  2 -1</clus>
</clustering>
</event>
<event>
 6    0  0.1344929E+003  0.2158396E+03  0.7546771E-02  0.1137023E+00
         21   -1    0    0  505  501  0.00000000000E+00  0.00000000000E+00  0.53469039756E+03  0.53469039756E+03  0.00000000000E+00 0. -1.
         21   -1    0    0  503  502 -0.00000000000E+00 -0.00000000000E+00 -0.65574156261E+03  0.65574156261E+03  0.00000000000E+00 0. -1.
         21    1    1    2  503  504  0.18758234995E+03  0.15167758703E+03  0.21194878389E+03  0.32111604664E+03  0.00000000000E+00 0. -1.
         21    1    1    2  504  501 -0.59670991453E+01 -0.42102408710E+02  0.23678301731E+03  0.24057102149E+03  0.00000000000E+00 0. -1.
         21    1    1    2  505  506 -0.21063887377E+03 -0.86265461805E+02 -0.46926528153E+03  0.52155572041E+03  0.00000000000E+00 0. -1.
         21    1    1    2  506  502  0.29023622960E+02 -0.23309716510E+02 -0.10051768472E+03  0.10718917163E+03  0.00000000000E+00 0. -1.
<scales pt_clust_3="215.83957" pt_clust_4="42.58853" pt_clust_5="14000.00000" pt_clust_6="37.22517"></scales>
<clustering>
<clus scale="   37.225">  2  6  1 -1</clus>
<clus scale="   42.589">  1  4  2 -1</clus>
<clus scale="  215.840">  1  3  2 -1</clus>
<clus scale="   42.589">  1  3  2 -1</clus>
</clustering>
</event>
<event>
 6    0  0.1344929E+003  0.9093517E+02  0.7546771E-02  0.1300603E+00
         21   -1    0    0  506  501  0.00000000000E+00  0.00000000000E+00  0.40520287186E+03  0.40520287186E+03  0.00000000000E+00 0. -1.
         21   -1    0    0  504  502 -0.00000000000E+00 -0.00000000000E+00 -0.11181819697E+04  0.11181819697E+04  0.00000000000E+00 0.  1.
         21    1    1    2  503  501  0.38795101261E+02  0.99067697012E+02  0.34895400031E+03  0.36481277775E+03  0.00000000000E+00 0. -1.
         21    1    1    2  504  503 -0.13193909516E+03 -0.59997882992E+02 -0.16624325780E+03  0.22055496267E+03  0.00000000000E+00 0. -1.
         21    1    1    2  505  502  0.74617427927E+02 -0.17134108391E+00 -0.89162374411E+03  0.89474057188E+03  0.00000000000E+00 0.  1.
         21    1    1    2  506  505  0.18526565967E+02 -0.38898472937E+02 -0.40660962023E+01  0.43276529224E+02  0.00000000000E+00 0.  1.
<scales pt_clust_3="90.93517" pt_clust_4="14000.00000" pt_clust_5="74.69303" pt_clust_6="43.08509"></scales>
<clustering>
<clus scale="   43.085">  1  6  2 -1</clus>
<clus scale="   74.693">  2  5  1 -1</clus>
<clus scale="   90.935">  1  3  2 -1</clus>
<clus scale="   43.085">  1  3  2 -1</clus>
</clustering>
</event>
<event>
 6    0  0.1344929E+003  0.1494319E+03  0.7546771E-02  0.1201173E+00
         21   -1    0    0  506  501  0.00000000000E+00  0.00000000000E+00  0.37887864519E+03  0.37887864519E+03  0.00000000000E+00 0. -1.
         21   -1    0    0  504  502 -0.00000000000E+00 -0.00000000000E+00 -0.55408926128E+03  0.55408926128E+03  0.00000000000E+00 0.  1.
         21    1    1    2  503  502 -0.97744191472E+02 -0.10951044116E+03 -0.35099115511E+03  0.38044875431E+03  0.00000000000E+00 0.  1.
         21    1    1    2  504  505  0.99223831399E+02  0.12043583909E+03 -0.13109325783E+03  0.20380285156E+03  0.00000000000E+00 0.  1.
         21    1    1    2  505  501  0.32504714727E+02  0.47459051486E+02  0.26050126752E+03  0.26677673891E+03  0.00000000000E+00 0. -1.
         21    1    1    2  506  503 -0.33984354654E+02 -0.58384449420E+02  0.46372529326E+02  0.81939561698E+02  0.00000000000E+00 0.  1.
<scales pt_clust_3="149.43194" pt_clust_4="14000.00000" pt_clust_5="57.52320" pt_clust_6="35.69428"></scales>
<clustering>
<clus scale="   57.523">  1  5  2 -1</clus>
<clus scale="   35.694">  1  6  2 -1</clus>
<clus scale="  149.432">  2  3  1 -1</clus>
<clus scale="   57.523">  1  3  2 -1</clus>
</clustering>
</event>
<event>
 6    0  0.1344929E+003  0.1261246E+03  0.7546771E-02  0.1233322E+00
         21   -1    0    0  505  501  0.00000000000E+00  0.00000000000E+00  0.13841106903E+02  0.13841106903E+02  0.00000000000E+00 0.  1.
         21   -1    0    0  503  502 -0.00000000000E+00 -0.00000000000E+00 -0.26854008186E+04  0.26854008186E+04  0.00000000000E+00 0.  1.
         21    1    1    2  503  506  0.38506706876E+02 -0.19591834070E+02 -0.87743911535E+03  0.87850213863E+03  0.00000000000E+00 0. -1.
         21    1    1    2  504  502  0.59079708775E+02  0.10868207981E+03 -0.87489461240E+03  0.88359650818E+03  0.00000000000E+00 0.  1.
         21    1    1    2  505  504 -0.36035642890E+02  0.23940606748E+02 -0.11872442639E+03  0.12636142462E+03  0.00000000000E+00 0.  1.
         21    1    1    2  506  501 -0.61550772760E+02 -0.11303085249E+03 -0.80050155760E+03  0.81078185411E+03  0.00000000000E+00 0.  1.
<scales pt_clust_3="43.20424" pt_clust_4="126.12463" pt_clust_5="40.35517" pt_clust_6="14000.00000"></scales>
<clustering>
<clus scale="   43.204">  2  3  1 -1</clus>
<clus scale="   40.355">  1  5  2 -1</clus>
<clus scale="  126.125">  2  4  1 -1</clus>
<clus scale="   40.355">  1  3  2 -1</clus>
</clustering>
</event>
<event>
 6    0  0.1344929E+003  0.1182751E+03  0.7546771E-02  0.1245970E+00
         21   -1    0    0  505  501  0.00000000000E+00  0.00000000000E+00  0.77747339801E+03  0.77747339801E+03  0.00000000000E+00 0. -1.
         21   -1    0    0  504  502 -0.00000000000E+00 -0.00000000000E+00 -0.16349328692E+03  0.16349328692E+03  0.00000000000E+00 0. -1.
         21    1    1    2  503  501  0.20275133531E+02  0.11646585122E+03  0.40248047130E+03  0.41948290230E+03  0.00000000000E+00 0. -1.
         21    1    1    2  504  506  0.59145462393E+01 -0.67111832930E+02  0.17619828049E+03  0.18863937560E+03  0.00000000000E+00 0.  1.
         21    1    1    2  505  502 -0.63246420853E+02 -0.16634006557E+02 -0.13795641499E+03  0.15267210735E+03  0.00000000000E+00 0. -1.
         21    1    1    2  506  503  0.37056741082E+02 -0.32720011735E+02  0.17325777428E+03  0.18017229969E+03  0.00000000000E+00 0.  1.
<scales pt_clust_3="109.08442" pt_clust_4="39.15681" pt_clust_5="65.39725" pt_clust_6="39.15681"></scales>
<clustering>
<clus scale="   39.157">  4  6 -1 -1</clus>
<clus scale="   65.397">  2  5  1 -1</clus>
<clus scale="  109.084">  1  3  2 -1</clus>
<clus scale="  109.084">  1  3  2 -1</clus>
</clustering>
</event>
<event>
 6    0  0.1344929E+003  0.7431512E+02  0.7546771E-02  0.1346005E+00
         21   -1    0    0  504  501  0.00000000000E+00  0.00000000000E+00  0.33358484498E+03  0.33358484498E+03  0.00000000000E+00 0. -1.
         21   -1    0    0  506  502 -0.00000000000E+00 -0.00000000000E+00 -0.84794920688E+02  0.84794920688E+02  0.00000000000E+00 0.  1.
         21    1    1    2  503  501 -0.12975423817E+02  0.63625355059E+02  0.90129544490E+02  0.11108502248E+03  0.00000000000E+00 0. -1.
         21    1    1    2  504  502 -0.15564547740E+02 -0.88385191146E+02  0.13213725871E+03  0.15973243972E+03  0.00000000000E+00 0.  1.
         21    1    1    2  505  503  0.78336786268E+02  0.41775601838E+02  0.32628009861E+02  0.94585622687E+02  0.00000000000E+00 0.  1.
         21    1    1    2  506  505 -0.49796814710E+02 -0.17015765751E+02 -0.61048887677E+01  0.52976680778E+02  0.00000000000E+00 0.  1.
<scales pt_clust_3="14000.00000" pt_clust_4="74.31512" pt_clust_5="59.84206" pt_clust_6="52.62375"></scales>
<clustering>
<clus scale="   52.624">  2  6  1 -1</clus>
<clus scale="   59.842">  2  5  1 -1</clus>
<clus scale="   74.315">  2  4  1 -1</clus>
<clus scale="   74.315">  1  3  2 -1</clus>
</clustering>
</event>
<event>
 6    0  0.1344929E+003  0.1406337E+03  0.7546771E-02  0.1212479E+00
         21   -1    0    0  506  501  0.00000000000E+00  0.00000000000E+00  0.12818803411E+04  0.12818803411E+04  0.00000000000E+00 0. -1.
         21   -1    0    0  504  502 -0.00000000000E+00 -0.00000000000E+00 -0.20663060452E+03  0.20663060452E+03  0.00000000000E+00 0. -1.
         21    1    1    2  503  501  0.71109267504E+02 -0.28369162850E+01  0.26301956788E+03  0.27247728182E+03  0.00000000000E+00 0. -1.
         21    1    1    2  504  505  0.53234818888E+01 -0.36855653618E+02 -0.66254426161E+01  0.37822944794E+02  0.00000000000E+00 0. -1.
         21    1    1    2  505  503 -0.90038234961E+02  0.14402502596E+03  0.97513273096E+03  0.98981510134E+03  0.00000000000E+00 0. -1.
         21    1    1    2  506  502  0.13605485568E+02 -0.10433245606E+03 -0.15627711965E+03  0.18839561765E+03  0.00000000000E+00 0. -1.
<scales pt_clust_3="71.34609" pt_clust_4="37.23813" pt_clust_5="140.63368" pt_clust_6="14000.00000"></scales>
<clustering>
<clus scale="   37.238">  2  4  1 -1</clus>
<clus scale="   71.346">  1  3  2 -1</clus>
<clus scale="  140.634">  1  5  2 -1</clus>
<clus scale="   71.346">  1  3  2 -1</clus>
</clustering>
</event>
<event>
 6    0  0.1344929E+003  0.1039318E+03  0.7546771E-02  0.1272239E+00
         21   -1    0    0  504  501  0.00000000000E+00  0.00000000000E+00  0.87317275941E+02  0.87317275941E+02  0.00000000000E+00 0.  1.
         21   -1    0    0  503  502 -0.00000000000E+00 -0.00000000000E+00 -0.92514085438E+03  0.92514085438E+03  0.00000000000E+00 0. -1.
         21    1    1    2  503  505 -0.16078903026E+02 -0.54741383843E+02 -0.11441787868E+03  0.12785382743E+03  0.00000000000E+00 0.  1.
         21    1    1    2  504  506  0.95513947715E+02  0.28662390738E+02 -0.36986589271E+02  0.10636002368E+03  0.00000000000E+00 0.  1.
         21    1    1    2  505  501 -0.22490235510E+02  0.63004032809E+02  0.19019070823E+02  0.69548859793E+02  0.00000000000E+00 0.  1.
         21    1    1    2  506  502 -0.56944809178E+02 -0.36925039704E+02 -0.70543818131E+03  0.70869541942E+03  0.00000000000E+00 0. -1.
<scales pt_clust_3="57.05392" pt_clust_4="14000.00000" pt_clust_5="65.45612" pt_clust_6="103.93175"></scales>
<clustering>
<clus scale="   57.054">  2  3  1 -1</clus>
<clus scale="   65.456">  1  5  2 -1</clus>
<clus scale="  103.932">  2  6  1 -1</clus>
<clus scale="   65.456">  1  3  2 -1</clus>
</clustering>
</event>
<event>
 6    0  0.1344929E+003  0.1296144E+03  0.7546771E-02  0.1228029E+00
         21   -1    0    0  505  501  0.00000000000E+00  0.00000000000E+00  0.26185091490E+04  0.26185091490E+04  0.00000000000E+00 0.  1.
         21   -1    0    0  506  502 -0.00000000000E+00 -0.00000000000E+00 -0.13631693650E+04  0.13631693650E+04  0.00000000000E+00 0.  1.
         21    1    1    2  503  504  0.59514621913E+02 -0.48711713602E+02 -0.16287902559E+03  0.18012328622E+03  0.00000000000E+00 0.  1.
         21    1    1    2  504  502  0.39300827098E+02  0.17080261391E+02 -0.11154563817E+04  0.11162791899E+04  0.00000000000E+00 0.  1.
         21    1    1    2  505  503 -0.12994176843E+03  0.89397397959E+01  0.26028461039E+04  0.26061029570E+04  0.00000000000E+00 0.  1.
         21    1    1    2  506  501  0.31126319416E+02  0.22691712416E+02 -0.69170912704E+02  0.79173080886E+02  0.00000000000E+00 0.  1.
<scales pt_clust_3="129.61441" pt_clust_4="75.74470" pt_clust_5="14000.00000" pt_clust_6="38.51963"></scales>
<clustering>
<clus scale="   38.520">  2  6  1 -1</clus>
<clus scale="   75.745">  2  4  1 -1</clus>
<clus scale="  129.614">  2  3  1 -1</clus>
<clus scale="  129.614">  1  3  2 -1</clus>
</clustering>
</event>
<event>
 6    0  0.1344929E+003  0.6682674E+02  0.7546771E-02  0.1371229E+00
         21   -1    0    0  504  501  0.00000000000E+00  0.00000000000E+00  0.11659058709E+03  0.11659058709E+03  0.00000000000E+00 0. -1.
         21   -1    0    0  505  502 -0.00000000000E+00 -0.00000000000E+00 -0.48031217556E+03  0.48031217556E+03  0.00000000000E+00 0. -1.
         21    1    1    2  503  506 -0.36460789391E+02 -0.35112405573E+02 -0.70476092825E+02  0.86770673894E+02  0.00000000000E+00 0. -1.
         21    1    1    2  504  502  0.83596290304E+02  0.89165541422E+02 -0.10559927234E+03  0.16152411538E+03  0.00000000000E+00 0. -1.
         21    1    1    2  505  503 -0.39705877351E+02  0.89932237810E+01 -0.25372815800E+03  0.25697356465E+03  0.00000000000E+00 0. -1.
         21    1    1    2  506  501 -0.74296235616E+01 -0.63046359630E+02  0.66081934698E+02  0.91634408724E+02  0.00000000000E+00 0. -1.
<scales pt_clust_3="59.63169" pt_clust_4="14000.00000" pt_clust_5="40.71160" pt_clust_6="66.82674"></scales>
<clustering>
<clus scale="   40.712">  2  5  1 -1</clus>
<clus scale="   59.632">  2  3  1 -1</clus>
<clus scale="   66.827">  1  6  2 -1</clus>
<clus scale="   66.827">  1  3  2 -1</clus>
</clustering>
</event>
<event>
 6    0  0.1344929E+003  0.1037189E+03  0.7546771E-02  0.1272665E+00
         21   -1    0    0  504  501  0.00000000000E+00  0.00000000000E+00  0.10622150422E+04  0.10622150422E+04  0.00000000000E+00 0. -1.
         21   -1    0    0  505  502 -0.00000000000E+00 -0.00000000000E+00 -0.11520558398E+03  0.11520558398E+03  0.00000000000E+00 0.  1.
         21    1    1    2  503  506 -0.47605108857E+02  0.72958992222E+02  0.27712069961E+02  0.91417830629E+02  0.00000000000E+00 0. -1.
         21    1    1    2  504  502  0.12431757841E+03 -0.52318905412E+02  0.16865233680E+02  0.13592852634E+03  0.00000000000E+00 0.  1.
         21    1    1    2  505  503 -0.42657573990E+02 -0.25029098227E+02  0.25360068353E+01  0.49523284498E+02  0.00000000000E+00 0.  1.
         21    1    1    2  506  501 -0.34054895567E+02  0.43890114163E+01  0.89989614771E+03  0.90055098468E+03  0.00000000000E+00 0. -1.
<scales pt_clust_3="103.71885" pt_clust_4="14000.00000" pt_clust_5="53.92696" pt_clust_6="34.33656"></scales>
<clustering>
<clus scale="   34.337">  1  6  2 -1</clus>
<clus scale="   53.927">  2  5  1 -1</clus>
<clus scale="  103.719">  1  3  2 -1</clus>
<clus scale="   34.337">  1  3  2 -1</clus>
</clustering>
</event>
<event>
 6    0  0.1344929E+003  0.1335989E+03  0.7546771E-02  0.1222211E+00
         21   -1    0    0  502  501  0.00000000000E+00  0.00000000000E+00  0.17487745374E+04  0.17487745374E+04  0.00000000000E+00 0.  1.
         21   -1    0    0  506  502 -0.00000000000E+00 -0.00000000000E+00 -0.25325620276E+02  0.25325620276E+02  0.00000000000E+00 0.  1.
         21    1    1    2  503  505  0.44962881818E+02  0.21935336805E+02  0.42154141002E+02  0.65420114229E+02  0.00000000000E+00 0.  1.
         21    1    1    2  504  501 -0.30735854992E+02  0.32007522704E+02  0.34398327547E+03  0.34683377588E+03  0.00000000000E+00 0.  1.
         21    1    1    2  505  504 -0.85065097366E+02 -0.87037681711E+02  0.11791495751E+04  0.11854135773E+04  0.00000000000E+00 0.  1.
         21    1    1    2  506  503  0.70838070540E+02  0.33094822202E+02  0.15816192560E+03  0.17643269029E+03  0.00000000000E+00 0.  1.
<scales pt_clust_3="35.12370" pt_clust_4="44.37538" pt_clust_5="126.17680" pt_clust_6="35.12370"></scales>
<clustering>
<clus scale="   35.124">  3  6 -1 -1</clus>
<clus scale="   44.375">  1  4  2 -1</clus>
<clus scale="  126.177">  1  5  2 -1</clus>
<clus scale="   44.375">  1  3  2 -1</clus>
</clustering>
</event>
<event>
 6    0  0.1344929E+003  0.9598147E+02  0.7546771E-02  0.1288981E+00
         21   -1    0    0  504  501  0.00000000000E+00  0.00000000000E+00  0.38140705093E+03  0.38140705093E+03  0.00000000000E+00 0. -1.
         21   -1    0    0  505  502 -0.00000000000E+00 -0.00000000000E+00 -0.47469522704E+03  0.47469522704E+03  0.00000000000E+00 0. -1.
         21    1    1    2  503  501  0.10413807625E+01  0.93578389588E+02  0.30474780286E+03  0.31879338579E+03  0.00000000000E+00 0. -1.
         21    1    1    2  504  502  0.60103447561E+02 -0.14714934582E+03 -0.10853438775E+03  0.19247095289E+03  0.00000000000E+00 0. -1.
         21    1    1    2  505  506 -0.42409659373E+01  0.37037698869E+02 -0.28275054680E+03  0.28519756073E+03  0.00000000000E+00 0. -1.
         21    1    1    2  506  503 -0.56903862386E+02  0.16533257358E+02 -0.67510444166E+01  0.59640378554E+02  0.00000000000E+00 0.  1.
<scales pt_clust_3="95.98147" pt_clust_4="14000.00000" pt_clust_5="37.27971" pt_clust_6="62.05380"></scales>
<clustering>
<clus scale="   37.280">  2  5  1 -1</clus>
<clus scale="   62.054">  2  6  1 -1</clus>
<clus scale="   95.981">  1  3  2 -1</clus>
<clus scale="   95.981">  1  3  2 -1</clus>
</clustering>
</event>
<event>
 6    0  0.2990912E+003  0.1889408E+03  0.7546771E-02  0.1159420E+00
         21   -1    0    0  506  501  0.00000000000E+00  0.00000000000E+00  0.41913663818E+03  0.41913663818E+03  0.00000000000E+00 0.  1.
         21   -1    0    0  504  502 -0.00000000000E+00 -0.00000000000E+00 -0.20878750627E+04  0.20878750627E+04  0.00000000000E+00 0. -1.
         21    1    1    2  503  501  0.35151886362E+02  0.16218502129E+02 -0.52514760819E+01  0.39067543142E+02  0.00000000000E+00 0.  1.
         21    1    1    2  504  505 -0.44698808940E+02  0.79245819108E+02 -0.17668466076E+04  0.17691876153E+04  0.00000000000E+00 0. -1.
         21    1    1    2  505  503  0.10410991683E+03  0.10771514873E+03 -0.24344434809E+03  0.28584362624E+03  0.00000000000E+00 0. -1.
         21    1    1    2  506  502 -0.94562994251E+02 -0.20317946997E+03  0.34680400726E+03  0.41291291618E+03  0.00000000000E+00 0.  1.
<scales pt_clust_3="38.71298" pt_clust_4="90.97380" pt_clust_5="188.94081" pt_clust_6="14000.00000"></scales>
<clustering>
<clus scale="   38.713">  1  3  2 -1</clus>
<clus scale="   90.974">  2  4  1 -1</clus>
<clus scale="  188.941">  2  5  1 -1</clus>
<clus scale="   38.713">  1  3  2 -1</clus>
</clustering>
</event>
<event>
 6    0  0.1344929E+003  0.1755253E+03  0.7546771E-02  0.1172205E+00
         21   -1    0    0  504  501  0.00000000000E+00  0.00000000000E+00  0.58140820835E+03  0.58140820835E+03  0.00000000000E+00 0. -1.
         21   -1    0    0  505  502 -0.00000000000E+00 -0.00000000000E+00 -0.91890829903E+02  0.91890829903E+02  0.00000000000E+00 0. -1.
         21    1    1    2  503  502 -0.38113440932E+02 -0.14610219006E+02  0.32685226334E+02  0.52291652293E+02  0.00000000000E+00 0.  1.
         21    1    1    2  504  503  0.77981026275E+02 -0.18142257083E+03  0.15642015743E+03  0.25191755658E+03  0.00000000000E+00 0. -1.
         21    1    1    2  505  506 -0.78188904453E+01  0.32521327323E+02  0.11127210689E+02  0.35250341791E+02  0.00000000000E+00 0.  1.
         21    1    1    2  506  501 -0.32048694898E+02  0.16351146252E+03  0.28928478400E+03  0.33383948759E+03  0.00000000000E+00 0. -1.
<scales pt_clust_3="40.49022" pt_clust_4="175.52527" pt_clust_5="33.44805" pt_clust_6="14000.00000"></scales>
<clustering>
<clus scale="   33.448">  2  5  1 -1</clus>
<clus scale="   40.490">  2  3  1 -1</clus>
<clus scale="  175.525">  2  4  1 -1</clus>
<clus scale="  175.525">  1  3  2 -1</clus>
</clustering>
</event>
<event>
 6    0  0.1344929E+003  0.1107136E+03  0.7546771E-02  0.1259254E+00
         21   -1    0    0  506  501  0.00000000000E+00  0.00000000000E+00  0.48964700229E+03  0.48964700229E+03  0.00000000000E+00 0. -1.
         21   -1    0    0  503  502 -0.00000000000E+00 -0.00000000000E+00 -0.63991101435E+02  0.63991101435E+02  0.00000000000E+00 0. -1.
         21    1    1    2  503  505 -0.22620226853E+02 -0.28741912221E+02  0.62067159620E+01  0.37098456896E+02  0.00000000000E+00 0. -1.
         21    1    1    2  504  501  0.32633840446E+02 -0.26175041806E+02  0.17322130902E+03  0.17820135313E+03  0.00000000000E+00 0. -1.
         21    1    1    2  505  504 -0.46843921582E+01 -0.86696180074E+02  0.12290584739E+03  0.15047929589E+03  0.00000000000E+00 0. -1.
         21    1    1    2  506  502 -0.53292214342E+01  0.14161313410E+03  0.12332202848E+03  0.18785899782E+03  0.00000000000E+00 0. -1.
<scales pt_clust_3="36.57557" pt_clust_4="41.89356" pt_clust_5="14000.00000" pt_clust_6="110.71356"></scales>
<clustering>
<clus scale="   36.576">  2  3  1 -1</clus>
<clus scale="   41.894">  1  4  2 -1</clus>
<clus scale="  110.714">  2  6  1 -1</clus>
<clus scale="   41.894">  1  3  2 -1</clus>
</clustering>
</event>
<event>
 6    0  0.1344929E+003  0.1306042E+03  0.7546771E-02  0.1226562E+00
         21   -1    0    0  506  501  0.00000000000E+00  0.00000000000E+00  0.13549862360E+04  0.13549862360E+04  0.00000000000E+00 0.  1.
         21   -1    0    0  504  502 -0.00000000000E+00 -0.00000000000E+00 -0.89216319167E+02  0.89216319167E+02  0.00000000000E+00 0. -1.
         21    1    1    2  503  502  0.30951068341E+02  0.69464647145E+01 -0.29970737708E+02  0.43640200758E+02  0.00000000000E+00 0. -1.
         21    1    1    2  504  501  0.19518029830E+02  0.44525756289E+02  0.24263114750E+03  0.24745377386E+03  0.00000000000E+00 0. -1.
         21    1    1    2  505  503  0.40343228034E+02  0.10209800260E+03  0.28960169661E+02  0.11353532318E+03  0.00000000000E+00 0. -1.
         21    1    1    2  506  505 -0.90812326204E+02 -0.15357022361E+03  0.10241493374E+04  0.10395732574E+04  0.00000000000E+00 0.  1.
<scales pt_clust_3="31.72100" pt_clust_4="49.49418" pt_clust_5="130.60418" pt_clust_6="14000.00000"></scales>
<clustering>
<clus scale="   31.721">  2  3  1 -1</clus>
<clus scale="   49.494">  1  4  2 -1</clus>
<clus scale="  130.604">  2  5  1 -1</clus>
<clus scale="   49.494">  1  3  2 -1</clus>
</clustering>
</event>
<event>
 6    0  0.1344929E+003  0.1811791E+03  0.7546771E-02  0.1166667E+00
         21   -1    0    0  506  501  0.00000000000E+00  0.00000000000E+00  0.79433309731E+03  0.79433309731E+03  0.00000000000E+00 0.  1.
         21   -1    0    0  505  502 -0.00000000000E+00 -0.00000000000E+00 -0.13279292277E+03  0.13279292277E+03  0.00000000000E+00 0.  1.
         21    1    1    2  503  501 -0.12368050159E+02  0.30028951053E+02  0.19425225075E+03  0.19694832695E+03  0.00000000000E+00 0.  1.
         21    1    1    2  504  503 -0.78167643107E+02  0.92329931233E+02  0.28109479897E+03  0.30602170289E+03  0.00000000000E+00 0.  1.
         21    1    1    2  505  504 -0.80401449030E+02  0.72795123213E+02  0.66649291791E+01  0.10866436514E+03  0.00000000000E+00 0.  1.
         21    1    1    2  506  502  0.17093714230E+03 -0.19515400550E+03  0.17952819563E+03  0.31549162510E+03  0.00000000000E+00 0.  1.
<scales pt_clust_3="32.17230" pt_clust_4="32.17230" pt_clust_5="108.45978" pt_clust_6="170.20643"></scales>
<clustering>
<clus scale="   32.172">  3  4 -1 -1</clus>
<clus scale="  108.460">  2  5  1 -1</clus>
<clus scale="  170.206">  2  6  1 -1</clus>
<clus scale="  181.179">  1  3  2 -1</clus>
</clustering>
</event>
<event>
 6    0  0.1344929E+003  0.1369600E+03  0.7546771E-02  0.1217479E+00
         21   -1    0    0  505  501  0.00000000000E+00  0.00000000000E+00  0.11811739492E+03  0.11811739492E+03  0.00000000000E+00 0. -1.
         21   -1    0    0  503  502 -0.00000000000E+00 -0.00000000000E+00 -0.10671300887E+04  0.10671300887E+04  0.00000000000E+00 0. -1.
         21    1    1    2  503  504  0.39585297447E+02  0.13140628846E+03 -0.94709849609E+03  0.95699016177E+03  0.00000000000E+00 0. -1.
         21    1    1    2  504  506 -0.14114044515E+02 -0.90097430029E+02  0.52526737015E+02  0.10524168020E+03  0.00000000000E+00 0. -1.
         21    1    1    2  505  502 -0.44771738335E+02 -0.17004193368E+01 -0.63811206812E+02  0.77969674196E+02  0.00000000000E+00 0. -1.
         21    1    1    2  506  501  0.19300485403E+02 -0.39608439091E+02  0.93702721075E+01  0.45045967449E+02  0.00000000000E+00 0.  1.
<scales pt_clust_3="129.82076" pt_clust_4="30.33483" pt_clust_5="44.80402" pt_clust_6="30.33483"></scales>
<clustering>
<clus scale="   30.335">  4  6 -1 -1</clus>
<clus scale="   44.804">  2  5  1 -1</clus>
<clus scale="  129.821">  2  3  1 -1</clus>
<clus scale="  136.960">  1  3  2 -1</clus>
</clustering>
</event>
<event>
 6    0  0.1344929E+003  0.1025028E+03  0.7546771E-02  0.1275119E+00
         21   -1    0    0  503  501  0.00000000000E+00  0.00000000000E+00  0.14150136715E+03  0.14150136715E+03  0.00000000000E+00 0.  1.
         21   -1    0    0  504  502 -0.00000000000E+00 -0.00000000000E+00 -0.25423413348E+03  0.25423413348E+03  0.00000000000E+00 0.  1.
         21    1    1    2  503  502  0.16614006491E+01  0.10415195206E+03 -0.77690376335E+02  0.12994685047E+03  0.00000000000E+00 0.  1.
         21    1    1    2  504  506 -0.22846513993E+02  0.23506607844E+02 -0.92216700570E+02  0.97869523744E+02  0.00000000000E+00 0.  1.
         21    1    1    2  505  501 -0.20673917643E+02 -0.42938957932E+02  0.55842076399E+02  0.73413230930E+02  0.00000000000E+00 0.  1.
         21    1    1    2  506  505  0.41859030987E+02 -0.84719601977E+02  0.13322341708E+01  0.94505895489E+02  0.00000000000E+00 0. -1.
<scales pt_clust_3="14000.00000" pt_clust_4="32.77993" pt_clust_5="47.06551" pt_clust_6="102.50285"></scales>
<clustering>
<clus scale="   32.780">  2  4  1 -1</clus>
<clus scale="   47.066">  1  5  2 -1</clus>
<clus scale="  102.503">  1  6  2 -1</clus>
<clus scale="   47.066">  1  3  2 -1</clus>
</clustering>
</event>
<event>
 6    0  0.1344929E+003  0.8623736E+02  0.7546771E-02  0.1312228E+00
         21   -1    0    0  506  501  0.00000000000E+00  0.00000000000E+00  0.59844431164E+03  0.59844431164E+03  0.00000000000E+00 0. -1.
         21   -1    0    0  504  502 -0.00000000000E+00 -0.00000000000E+00 -0.14359594157E+03  0.14359594157E+03  0.00000000000E+00 0. -1.
         21    1    1    2  503  502 -0.48698676433E+02  0.42707183442E+02 -0.49123898952E+02  0.81293431789E+02  0.00000000000E+00 0. -1.
         21    1    1    2  504  505  0.70358414523E+02 -0.11750675242E+03  0.68160865474E+01  0.13712987419E+03  0.00000000000E+00 0. -1.
         21    1    1    2  505  501  0.49113090940E+02  0.23553223641E+02  0.76067721901E+02  0.93558261852E+02  0.00000000000E+00 0. -1.
         21    1    1    2  506  503 -0.70772829029E+02  0.51246345338E+02  0.42108846058E+03  0.43005868538E+03  0.00000000000E+00 0. -1.
<scales pt_clust_3="64.12157" pt_clust_4="86.23736" pt_clust_5="54.46880" pt_clust_6="14000.00000"></scales>
<clustering>
<clus scale="   54.469">  1  5  2 -1</clus>
<clus scale="   64.122">  2  3  1 -1</clus>
<clus scale="   86.237">  2  4  1 -1</clus>
<clus scale="   54.469">  1  3  2 -1</clus>
</clustering>
</event>
<event>
 6    0  0.1344929E+003  0.6639185E+02  0.7546771E-02  0.1372811E+00
         21   -1    0    0  505  501  0.00000000000E+00  0.00000000000E+00  0.18709279139E+03  0.18709279139E+03  0.00000000000E+00 0. -1.
         21   -1    0    0  503  502 -0.00000000000E+00 -0.00000000000E+00 -0.11555379780E+04  0.11555379780E+04  0.00000000000E+00 0. -1.
         21    1    1    2  503  504 -0.41192506994E+02 -0.52131343353E+02 -0.11028966904E+04  0.11048961984E+04  0.00000000000E+00 0. -1.
         21    1    1    2  504  501 -0.13034081702E+02  0.87297195069E+02  0.97464811581E+02  0.13149173757E+03  0.00000000000E+00 0. -1.
         21    1    1    2  505  506  0.27991494794E+02  0.22190252833E+02  0.69737152801E+01  0.36394557374E+02  0.00000000000E+00 0. -1.
         21    1    1    2  506  502  0.26235093901E+02 -0.57356104550E+02  0.30012976925E+02  0.69848276035E+02  0.00000000000E+00 0. -1.
<scales pt_clust_3="66.39185" pt_clust_4="14000.00000" pt_clust_5="35.72018" pt_clust_6="61.39405"></scales>
<clustering>
<clus scale="   35.720">  1  5  2 -1</clus>
<clus scale="   61.394">  1  6  2 -1</clus>
<clus scale="   66.392">  2  3  1 -1</clus>
<clus scale="   35.720">  1  3  2 -1</clus>
</clustering>
</event>
<event>
 6    0  0.1344929E+003  0.1535837E+03  0.7546771E-02  0.1196137E+00
         21   -1    0    0  505  501  0.00000000000E+00  0.00000000000E+00  0.94732311693E+03  0.94732311693E+03  0.00000000000E+00 0.  1.
         21   -1    0    0  506  502 -0.00000000000E+00 -0.00000000000E+00 -0.68267639170E+03  0.68267639170E+03  0.00000000000E+00 0.  1.
         21    1    1    2  503  502  0.44530720106E+02  0.16409969608E+02 -0.57345324933E+03  0.57541367841E+03  0.00000000000E+00 0.  1.
         21    1    1    2  504  503  0.10888050667E+03 -0.86281833863E+02 -0.81782587856E+01  0.13916322612E+03  0.00000000000E+00 0.  1.
         21    1    1    2  505  504 -0.40871030829E+02 -0.39761137164E+02  0.69494187772E+03  0.69727727813E+03  0.00000000000E+00 0.  1.
         21    1    1    2  506  501 -0.11254019595E+03  0.10963300142E+03  0.15133635563E+03  0.21814532596E+03  0.00000000000E+00 0.  1.
<scales pt_clust_3="47.45811" pt_clust_4="153.58367" pt_clust_5="56.55357" pt_clust_6="14000.00000"></scales>
<clustering>
<clus scale="   47.458">  2  3  1 -1</clus>
<clus scale="   56.554">  1  5  2 -1</clus>
<clus scale="  153.584">  2  4  1 -1</clus>
<clus scale="   56.554">  1  3  2 -1</clus>
</clustering>
</event>
<event>
 6    0  0.1344929E+003  0.1328509E+03  0.7546771E-02  0.1223286E+00
         21   -1    0    0  502  501  0.00000000000E+00  0.00000000000E+00  0.14729263609E+04  0.14729263609E+04  0.00000000000E+00 0. -1.
         21   -1    0    0  503  502 -0.00000000000E+00 -0.00000000000E+00 -0.13856323489E+03  0.13856323489E+03  0.00000000000E+00 0. -1.
         21    1    1    2  503  506  0.27489641909E+02 -0.12467313637E+02 -0.56990194674E+02  0.64490283071E+02  0.00000000000E+00 0. -1.
         21    1    1    2  504  501  0.24918637348E+02 -0.47669809159E+02  0.10792816900E+04  0.10806212637E+04  0.00000000000E+00 0. -1.
         21    1    1    2  505  504  0.73772612596E+02 -0.52359189132E+02  0.28008334839E+03  0.29433070703E+03  0.00000000000E+00 0. -1.
         21    1    1    2  506  505 -0.12618089185E+03  0.11249631193E+03  0.31988282251E+02  0.17204734194E+03  0.00000000000E+00 0. -1.
<scales pt_clust_3="30.18467" pt_clust_4="53.99479" pt_clust_5="132.85088" pt_clust_6="14000.00000"></scales>
<clustering>
<clus scale="   30.185">  2  3  1 -1</clus>
<clus scale="   53.995">  1  4  2 -1</clus>
<clus scale="  132.851">  1  5  2 -1</clus>
<clus scale="   53.995">  1  3  2 -1</clus>
</clustering>
</event>
<event>
 6    0  0.1344929E+003  0.1305977E+03  0.7546771E-02  0.1226572E+00
         21   -1    0    0  503  501  0.00000000000E+00  0.00000000000E+00  0.25416771972E+03  0.25416771972E+03  0.00000000000E+00 0. -1.
         21   -1    0    0  506  502 -0.00000000000E+00 -0.00000000000E+00 -0.16423048964E+03  0.16423048964E+03  0.00000000000E+00 0. -1.
         21    1    1    2  503  504 -0.92267750785E+02  0.38660359152E+02  0.89351394519E+01  0.10043803026E+03  0.00000000000E+00 0. -1.
         21    1    1    2  504  502 -0.39017224049E+02 -0.40220843442E+01 -0.88093023589E+02  0.96430813229E+02  0.00000000000E+00 0. -1.
         21    1    1    2  505  501  0.60324862485E+02 -0.37111205869E+02  0.99261873390E+02  0.12193953479E+03  0.00000000000E+00 0. -1.
         21    1    1    2  506  505  0.70960112349E+02  0.24729310610E+01  0.69833240821E+02  0.99589831088E+02  0.00000000000E+00 0. -1.
<scales pt_clust_3="122.51208" pt_clust_4="39.22398" pt_clust_5="44.15912" pt_clust_6="44.15912"></scales>
<clustering>
<clus scale="   39.224">  2  4  1 -1</clus>
<clus scale="   44.159">  5  6 -1 -1</clus>
<clus scale="  122.512">  2  3  1 -1</clus>
<clus scale="  130.598">  1  3  2 -1</clus>
</clustering>
</event>
<event>
 6    0  0.1344929E+003  0.8157625E+02  0.7546771E-02  0.1324637E+00
         21   -1    0    0  506  501  0.00000000000E+00  0.00000000000E+00  0.30490518575E+03  0.30490518575E+03  0.00000000000E+00 0.  1.
         21   -1    0    0  505  502 -0.00000000000E+00 -0.00000000000E+00 -0.62047792590E+03  0.62047792590E+03  0.00000000000E+00 0. -1.
         21    1    1    2  503  502 -0.86765154512E+02  0.82302460666E+02 -0.37976289284E+03  0.39814788942E+03  0.00000000000E+00 0. -1.
         21    1    1    2  504  501  0.43872346747E+02 -0.35209218654E+02 -0.17804234595E+03  0.18671783214E+03  0.00000000000E+00 0. -1.
         21    1    1    2  505  504  0.54961701409E+01 -0.35429985618E+02 -0.41070679327E+02  0.54518735014E+02  0.00000000000E+00 0. -1.
         21    1    1    2  506  503  0.37396637624E+02 -0.11663256393E+02  0.28330317798E+03  0.28599865508E+03  0.00000000000E+00 0.  1.
<scales pt_clust_3="81.57625" pt_clust_4="14000.00000" pt_clust_5="35.85376" pt_clust_6="39.21045"></scales>
<clustering>
<clus scale="   35.854">  2  5  1 -1</clus>
<clus scale="   39.210">  1  6  2 -1</clus>
<clus scale="   81.576">  2  3  1 -1</clus>
<clus scale="   39.210">  1  3  2 -1</clus>
</clustering>
</event>
<event>
 6    0  0.1344929E+003  0.7848766E+02  0.7546771E-02  0.1333399E+00
         21   -1    0    0  504  501  0.00000000000E+00  0.00000000000E+00  0.66333800458E+02  0.66333800458E+02  0.00000000000E+00 0.  1.
         21   -1    0    0  505  502 -0.00000000000E+00 -0.00000000000E+00 -0.75688848828E+03  0.75688848828E+03  0.00000000000E+00 0.  1.
         21    1    1    2  503  501  0.62235680676E+02  0.98146263216E+01  0.25203742373E+02  0.67858938016E+02  0.00000000000E+00 0.  1.
         21    1    1    2  504  506  0.18631524532E+01  0.33120649457E+02 -0.15800153308E+02  0.36743619882E+02  0.00000000000E+00 0. -1.
         21    1    1    2  505  503  0.39874838139E+02  0.15916689324E+02 -0.20475939549E+03  0.20921222182E+03  0.00000000000E+00 0.  1.
         21    1    1    2  506  502 -0.10397367127E+03 -0.58851965103E+02 -0.49519888139E+03  0.50940750902E+03  0.00000000000E+00 0.  1.
<scales pt_clust_3="14000.00000" pt_clust_4="33.17301" pt_clust_5="43.50902" pt_clust_6="78.48766"></scales>
<clustering>
<clus scale="   33.173">  1  4  2 -1</clus>
<clus scale="   43.509">  2  5  1 -1</clus>
<clus scale="   78.488">  2  6  1 -1</clus>
<clus scale="   33.173">  1  3  2 -1</clus>
</clustering>
</event>
<event>
 6    0  0.1344929E+003  0.1326418E+03  0.7546771E-02  0.1223588E+00
         21   -1    0    0  506  501  0.00000000000E+00  0.00000000000E+00  0.82195443056E+03  0.82195443056E+03  0.00000000000E+00 0.  1.
         21   -1    0    0  504  502 -0.00000000000E+00 -0.00000000000E+00 -0.30540645205E+03  0.30540645205E+03  0.00000000000E+00 0.  1.
         21    1    1    2  503  502 -0.11063396102E+03  0.51430271008E+01 -0.15029250890E+03  0.18669269479E+03  0.00000000000E+00 0.  1.
         21    1    1    2  504  505  0.19272094434E+02  0.97427252933E+02 -0.91908048486E+02  0.13531656445E+03  0.00000000000E+00 0.  1.
         21    1    1    2  505  501  0.14270434670E+03 -0.87080746385E+02  0.72009314039E+03  0.73924401776E+03  0.00000000000E+00 0.  1.
         21    1    1    2  506  503 -0.51342480113E+02 -0.15489533649E+02  0.38655395502E+02  0.66107605601E+02  0.00000000000E+00 0.  1.
<scales pt_clust_3="14000.00000" pt_clust_4="98.61458" pt_clust_5="132.64182" pt_clust_6="53.62813"></scales>
<clustering>
<clus scale="   53.628">  1  6  2 -1</clus>
<clus scale="   98.615">  2  4  1 -1</clus>
<clus scale="  132.642">  1  5  2 -1</clus>
<clus scale="   53.628">  1  3  2 -1</clus>
</clustering>
</event>
<event>
 6    0  0.1344929E+003  0.2936272E+03  0.7546771E-02  0.1088470E+00
         21   -1    0    0  504  501  0.00000000000E+00  0.00000000000E+00  0.21297888220E+04  0.21297888220E+04  0.00000000000E+00 0.  1.
         21   -1    0    0  503  502 -0.00000000000E+00 -0.00000000000E+00 -0.41966559800E+03  0.41966559800E+03  0.00000000000E+00 0. -1.
         21    1    1    2  503  506 -0.66563629527E+02 -0.25299947531E+02 -0.15675685744E+03  0.17217292608E+03  0.00000000000E+00 0.  1.
         21    1    1    2  504  505 -0.48480160418E+02  0.26271234104E+01  0.12603333934E+04  0.12612682071E+04  0.00000000000E+00 0.  1.
         21    1    1    2  505  502 -0.24094939171E+03 -0.51992540934E+02  0.69859601701E+03  0.74080782168E+03  0.00000000000E+00 0.  1.
         21    1    1    2  506  501  0.35599318165E+03  0.74665365054E+02 -0.92049328944E+02  0.37520546515E+03  0.00000000000E+00 0. -1.
<scales pt_clust_3="71.60348" pt_clust_4="48.55129" pt_clust_5="293.62720" pt_clust_6="14000.00000"></scales>
<clustering>
<clus scale="   48.551">  1  4  2 -1</clus>
<clus scale="   71.603">  2  3  1 -1</clus>
<clus scale="  293.627">  1  5  2 -1</clus>
<clus scale="   48.551">  1  3  2 -1</clus>
</clustering>
</event>
<event>
 6    0  0.1344929E+003  0.9314782E+02  0.7546771E-02  0.1295403E+00
         21   -1    0    0  504  501  0.00000000000E+00  0.00000000000E+00  0.38108668178E+02  0.38108668178E+02  0.00000000000E+00 0. -1.
         21   -1    0    0  503  502 -0.00000000000E+00 -0.00000000000E+00 -0.13536732649E+04  0.13536732649E+04  0.00000000000E+00 0. -1.
         21    1    1    2  503  501  0.50459376490E+02 -0.99481095255E+01 -0.15018745762E+03  0.15874944404E+03  0.00000000000E+00 0. -1.
         21    1    1    2  504  506 -0.68940192598E+02 -0.27168417775E+02 -0.10728252756E+03  0.13038563494E+03  0.00000000000E+00 0.  1.
         21    1    1    2  505  502  0.53611986697E+02 -0.30767727932E+02 -0.10109564219E+04  0.10128444033E+04  0.00000000000E+00 0. -1.
         21    1    1    2  506  505 -0.35131170589E+02  0.67884255233E+02 -0.47138189647E+02  0.89802450850E+02  0.00000000000E+00 0. -1.
<scales pt_clust_3="51.43067" pt_clust_4="69.86401" pt_clust_5="14000.00000" pt_clust_6="93.14782"></scales>
<clustering>
<clus scale="   51.431">  2  3  1 -1</clus>
<clus scale="   69.864">  1  4  2 -1</clus>
<clus scale="   93.148">  1  6  2 -1</clus>
<clus scale="   69.864">  1  3  2 -1</clus>
</clustering>
</event>
<event>
 6    0  0.1344929E+003  0.9499384E+02  0.7546771E-02  0.1291190E+00
         21   -1    0    0  506  501  0.00000000000E+00  0.00000000000E+00  0.33193556981E+03  0.33193556981E+03  0.00000000000E+00 0.  1.
         21   -1    0    0  504  502 -0.00000000000E+00 -0.00000000000E+00 -0.19244194539E+03  0.19244194539E+03  0.00000000000E+00 0. -1.
         21    1    1    2  503  501 -0.35895510884E+02 -0.23001251599E+02  0.21734846626E+03  0.22149018277E+03  0.00000000000E+00 0.  1.
         21    1    1    2  504  505  0.39988194836E+02  0.10388596745E+03 -0.14147293780E+03  0.18001650505E+03  0.00000000000E+00 0. -1.
         21    1    1    2  505  503  0.23937658583E+02 -0.63376280782E+02  0.25416005535E+02  0.72357016256E+02  0.00000000000E+00 0.  1.
         21    1    1    2  506  502 -0.28030342535E+02 -0.17508435072E+02  0.38202090420E+02  0.50513811119E+02  0.00000000000E+00 0.  1.
<scales pt_clust_3="67.84784" pt_clust_4="94.99384" pt_clust_5="14000.00000" pt_clust_6="33.04914"></scales>
<clustering>
<clus scale="   33.049">  1  6  2 -1</clus>
<clus scale="   67.848">  1  3  2 -1</clus>
<clus scale="   94.994">  2  4  1 -1</clus>
<clus scale="   33.049">  1  3  2 -1</clus>
</clustering>
</event>
<event>
 6    0  0.1344929E+003  0.9938070E+02  0.7546771E-02  0.1281604E+00
         21   -1    0    0  504  501  0.00000000000E+00  0.00000000000E+00  0.46133255745E+02  0.46133255745E+02  0.00000000000E+00 0.  1.
         21   -1    0    0  505  502 -0.00000000000E+00 -0.00000000000E+00 -0.16041629746E+04  0.16041629746E+04  0.00000000000E+00 0.  1.
         21    1    1    2  503  506 -0.72767943229E+01 -0.77782009592E+02 -0.53056704779E+03  0.53628759538E+03  0.00000000000E+00 0.  1.
         21    1    1    2  504  502  0.22728102656E+02  0.95615455701E+02 -0.20266067092E+03  0.22523372207E+03  0.00000000000E+00 0.  1.
         21    1    1    2  505  503 -0.38605380691E+02 -0.37654981081E+02 -0.84847181870E+03  0.85018392137E+03  0.00000000000E+00 0. -1.
         21    1    1    2  506  501  0.23154072357E+02  0.19821534972E+02  0.23669818571E+02  0.38590991521E+02  0.00000000000E+00 0.  1.
<scales pt_clust_3="99.38070" pt_clust_4="14000.00000" pt_clust_5="52.19305" pt_clust_6="30.47957"></scales>
<clustering>
<clus scale="   30.480">  1  6  2 -1</clus>
<clus scale="   52.193">  2  5  1 -1</clus>
<clus scale="   99.381">  2  3  1 -1</clus>
<clus scale="   30.480">  1  3  2 -1</clus>
</clustering>
</event>
<event>
 6    0  0.1344929E+003  0.1332563E+03  0.7546771E-02  0.1222702E+00
         21   -1    0    0  505  501  0.00000000000E+00  0.00000000000E+00  0.96512945727E+03  0.96512945727E+03  0.00000000000E+00 0. -1.
         21   -1    0    0  504  502 -0.00000000000E+00 -0.00000000000E+00 -0.13287492497E+04  0.13287492497E+04  0.00000000000E+00 0.  1.
         21    1    1    2  503  501  0.69976343120E+02 -0.97074458021E+02  0.18735054556E+03  0.22230691829E+03  0.00000000000E+00 0. -1.
         21    1    1    2  504  503 -0.10887709733E+03  0.11786434834E+03 -0.25579484766E+03  0.30195567725E+03  0.00000000000E+00 0. -1.
         21    1    1    2  505  506  0.32911036105E+02  0.12854717362E+02  0.73651389411E+03  0.73736089961E+03  0.00000000000E+00 0. -1.
         21    1    1    2  506  502  0.59897181076E+01 -0.33644607684E+02 -0.10316893845E+04  0.10322552118E+04  0.00000000000E+00 0.  1.
<scales pt_clust_3="14000.00000" pt_clust_4="133.25633" pt_clust_5="35.32295" pt_clust_6="34.17362"></scales>
<clustering>
<clus scale="   34.174">  2  6  1 -1</clus>
<clus scale="   35.323">  1  5  2 -1</clus>
<clus scale="  133.256">  2  4  1 -1</clus>
<clus scale="   35.323">  1  3  2 -1</clus>
</clustering>
</event>
<event>
 6    0  0.1344929E+003  0.1678998E+03  0.7546771E-02  0.1180056E+00
         21   -1    0    0  506  501  0.00000000000E+00  0.00000000000E+00  0.16454640321E+03  0.16454640321E+03  0.00000000000E+00 0. -1.
         21   -1    0    0  504  502 -0.00000000000E+00 -0.00000000000E+00 -0.56590620078E+03  0.56590620078E+03  0.00000000000E+00 0.  1.
         21    1    1    2  503  505  0.72185019268E+02  0.97780954839E+01 -0.12529649589E+03  0.14493274316E+03  0.00000000000E+00 0.  1.
         21    1    1    2  504  503  0.70027435096E+02 -0.56717320418E+02 -0.24159064394E+03  0.25785021882E+03  0.00000000000E+00 0.  1.
         21    1    1    2  505  501 -0.69054234969E+01 -0.34159901358E+02  0.10899877148E+03  0.11443476709E+03  0.00000000000E+00 0. -1.
         21    1    1    2  506  502 -0.13530703087E+03  0.81099126292E+02 -0.14347142922E+03  0.21323487494E+03  0.00000000000E+00 0.  1.
<scales pt_clust_3="63.09705" pt_clust_4="63.09705" pt_clust_5="34.85088" pt_clust_6="151.62479"></scales>
<clustering>
<clus scale="   34.851">  1  5  2 -1</clus>
<clus scale="   63.097">  3  4 -1 -1</clus>
<clus scale="  151.625">  1  6  2 -1</clus>
<clus scale="   34.851">  1  3  2 -1</clus>
</clustering>
</event>
<event>
 6    0  0.1344929E+003  0.1204550E+03  0.7546771E-02  0.1242348E+00
         21   -1    0    0  504  501  0.00000000000E+00  0.00000000000E+00  0.16690450572E+03  0.16690450572E+03  0.00000000000E+00 0. -1.
         21   -1    0    0  503  502 -0.00000000000E+00 -0.00000000000E+00 -0.96340628946E+03  0.96340628946E+03  0.00000000000E+00 0. -1.
         21    1    1    2  503  506  0.76762104547E+02  0.11323329017E+03 -0.48353007486E+02  0.14509380425E+03  0.00000000000E+00 0.  1.
         21    1    1    2  504  505 -0.18175488321E+02 -0.74453177096E+02 -0.59891769972E+03  0.60380132080E+03  0.00000000000E+00 0. -1.
         21    1    1    2  505  502 -0.38392298037E+02 -0.14695116697E+02 -0.26156077661E+03  0.26477151445E+03  0.00000000000E+00 0.  1.
         21    1    1    2  506  501 -0.20194318189E+02 -0.24084996381E+02  0.11232970007E+03  0.11664415569E+03  0.00000000000E+00 0. -1.
<scales pt_clust_3="107.98697" pt_clust_4="39.15105" pt_clust_5="39.15105" pt_clust_6="31.43084"></scales>
<clustering>
<clus scale="   31.431">  1  6  2 -1</clus>
<clus scale="   39.151">  4  5 -1 -1</clus>
<clus scale="  107.987">  1  3  2 -1</clus>
<clus scale="   31.431">  1  3  2 -1</clus>
</clustering>
</event>
<event>
 6    0  0.1344929E+003  0.1558917E+03  0.7546771E-02  0.1193415E+00
         21   -1    0    0  502  501  0.00000000000E+00  0.00000000000E+00  0.57559653440E+03  0.57559653440E+03  0.00000000000E+00 0.  1.
         21   -1    0    0  503  502 -0.00000000000E+00 -0.00000000000E+00 -0.20658775781E+03  0.20658775781E+03  0.00000000000E+00 0. -1.
         21    1    1    2  503  504 -0.10828457080E+03 -0.55714668297E+02 -0.10850260118E+03  0.16310268851E+03  0.00000000000E+00 0. -1.
         21    1    1    2  504  506  0.95485235658E+02 -0.60786598293E+01  0.56517017048E+01  0.95845302786E+02  0.00000000000E+00 0. -1.
         21    1    1    2  505  501 -0.79575129693E+02  0.75466696022E+02  0.36599074650E+03  0.38206890739E+03  0.00000000000E+00 0.  1.
         21    1    1    2  506  505  0.92374464834E+02 -0.13673367896E+02  0.10586892957E+03  0.14116739351E+03  0.00000000000E+00 0. -1.
<scales pt_clust_3="127.45768" pt_clust_4="88.67518" pt_clust_5="109.66961" pt_clust_6="88.67518"></scales>
<clustering>
<clus scale="   88.675">  4  6 -1 -1</clus>
<clus scale="  109.670">  1  5  2 -1</clus>
<clus scale="  127.458">  2  3  1 -1</clus>
<clus scale="  109.670">  1  3  2 -1</clus>
</clustering>
</event>
<event>
 6    0  0.1344929E+003  0.8856570E+02  0.7546771E-02  0.1306363E+00
         21   -1    0    0  503  501  0.00000000000E+00  0.00000000000E+00  0.22159655697E+03  0.22159655697E+03  0.00000000000E+00 0.  1.
         21   -1    0    0  504  502 -0.00000000000E+00 -0.00000000000E+00 -0.34746957202E+03  0.34746957202E+03  0.00000000000E+00 0.  1.
         21    1    1    2  503  505  0.49146300265E+02 -0.37220448586E+02  0.83220915908E+02  0.10356853512E+03  0.00000000000E+00 0.  1.
         21    1    1    2  504  501 -0.11171173371E+02 -0.69722413733E+02  0.66499887186E+02  0.96996108618E+02  0.00000000000E+00 0. -1.
         21    1    1    2  505  506  0.48283892720E+01  0.95412989523E+02 -0.64729379375E+01  0.95754116560E+02  0.00000000000E+00 0.  1.
         21    1    1    2  506  502 -0.42803516166E+02  0.11529872796E+02 -0.26912088020E+03  0.27274736868E+03  0.00000000000E+00 0.  1.
<scales pt_clust_3="56.23239" pt_clust_4="14000.00000" pt_clust_5="88.56570" pt_clust_6="44.32921"></scales>
<clustering>
<clus scale="   44.329">  2  6  1 -1</clus>
<clus scale="   56.232">  1  3  2 -1</clus>
<clus scale="   88.566">  2  5  1 -1</clus>
<clus scale="   56.232">  1  3  2 -1</clus>
</clustering>
</event>
<event>
 6    0  0.1344929E+003  0.9619376E+02  0.7546771E-02  0.1288510E+00
         21   -1    0    0  505  501  0.00000000000E+00  0.00000000000E+00  0.44646733925E+02  0.44646733925E+02  0.00000000000E+00 0.  1.
         21   -1    0    0  504  502 -0.00000000000E+00 -0.00000000000E+00 -0.52792332475E+03  0.52792332475E+03  0.00000000000E+00 0.  1.
         21    1    1    2  503  501  0.72534251955E+02  0.66100924811E+02 -0.84614987149E+02  0.12957718170E+03  0.00000000000E+00 0.  1.
         21    1    1    2  504  506 -0.31283986990E+02 -0.16083733321E+02 -0.17244823052E+03  0.17599933673E+03  0.00000000000E+00 0.  1.
         21    1    1    2  505  502 -0.17940178459E+02  0.41741399749E+02 -0.54906041152E+02  0.71266175786E+02  0.00000000000E+00 0.  1.
         21    1    1    2  506  503 -0.23310086506E+02 -0.91758591238E+02 -0.17130733200E+03  0.19572736445E+03  0.00000000000E+00 0.  1.
<scales pt_clust_3="14000.00000" pt_clust_4="35.17633" pt_clust_5="45.43432" pt_clust_6="96.19376"></scales>
<clustering>
<clus scale="   35.176">  2  4  1 -1</clus>
<clus scale="   45.434">  1  5  2 -1</clus>
<clus scale="   96.194">  2  6  1 -1</clus>
<clus scale="   45.434">  1  3  2 -1</clus>
</clustering>
</event>
<event>
 6    0  0.1344929E+003  0.7957021E+02  0.7546771E-02  0.1330276E+00
         21   -1    0    0  505  501  0.00000000000E+00  0.00000000000E+00  0.69417455202E+02  0.69417455202E+02  0.00000000000E+00 0.  1.
         21   -1    0    0  506  502 -0.00000000000E+00 -0.00000000000E+00 -0.11946462528E+04  0.11946462528E+04  0.00000000000E+00 0.  1.
         21    1    1    2  503  501 -0.33355110114E+01 -0.78021773957E+02  0.17499980323E+02  0.80029820420E+02  0.00000000000E+00 0.  1.
         21    1    1    2  504  503 -0.86077671452E+02  0.43013254780E+01 -0.12677172323E+03  0.15329362914E+03  0.00000000000E+00 0. -1.
         21    1    1    2  505  502  0.45096067857E+02  0.10057419301E+03 -0.49036001512E+03  0.50259503386E+03  0.00000000000E+00 0.  1.
         21    1    1    2  506  504  0.44317114606E+02 -0.26853744527E+02 -0.52559703953E+03  0.52814522454E+03  0.00000000000E+00 0.  1.
<scales pt_clust_3="79.57021" pt_clust_4="76.79587" pt_clust_5="14000.00000" pt_clust_6="51.81824"></scales>
<clustering>
<clus scale="   51.818">  2  6  1 -1</clus>
<clus scale="   76.796">  2  4  1 -1</clus>
<clus scale="   79.570">  1  3  2 -1</clus>
<clus scale="   79.570">  1  3  2 -1</clus>
</clustering>
</event>
<event>
 6    0  0.1344929E+003  0.1030170E+03  0.7546771E-02  0.1274077E+00
         21   -1    0    0  504  501  0.00000000000E+00  0.00000000000E+00  0.18209235638E+04  0.18209235638E+04  0.00000000000E+00 0. -1.
         21   -1    0    0  506  502 -0.00000000000E+00 -0.00000000000E+00 -0.62127019634E+02  0.62127019634E+02  0.00000000000E+00 0.  1.
         21    1    1    2  503  501 -0.66484404622E+02  0.26376169638E+02  0.47504669714E+03  0.48040112702E+03  0.00000000000E+00 0. -1.
         21    1    1    2  504  505 -0.28414616926E+02  0.40470196731E+02  0.11080291426E+04  0.11091320066E+04  0.00000000000E+00 0. -1.
         21    1    1    2  505  502  0.52461483243E+02  0.33561314205E+02  0.17366102840E+03  0.18449043829E+03  0.00000000000E+00 0. -1.
         21    1    1    2  506  503  0.42437538305E+02 -0.10040768057E+03  0.20596760552E+01  0.10902701152E+03  0.00000000000E+00 0.  1.
<scales pt_clust_3="14000.00000" pt_clust_4="49.44924" pt_clust_5="62.98025" pt_clust_6="103.01697"></scales>
<clustering>
<clus scale="   49.449">  1  4  2 -1</clus>
<clus scale="   62.980">  1  5  2 -1</clus>
<clus scale="  103.017">  2  6  1 -1</clus>
<clus scale="   49.449">  1  3  2 -1</clus>
</clustering>
</event>
<event>
 6    0  0.1344929E+003  0.9576372E+02  0.7546771E-02  0.1289465E+00
         21   -1    0    0  504  501  0.00000000000E+00  0.00000000000E+00  0.17700232844E+03  0.17700232844E+03  0.00000000000E+00 0.  1.
         21   -1    0    0  503  502 -0.00000000000E+00 -0.00000000000E+00 -0.96091064522E+03  0.96091064522E+03  0.00000000000E+00 0.  1.
         21    1    1    2  503  505 -0.99191615334E+02  0.86571229202E+02  0.46330246297E+02  0.13957093537E+03  0.00000000000E+00 0.  1.
         21    1    1    2  504  506  0.20042382763E+02  0.25889938439E+02  0.87594855331E+00  0.32752912925E+02  0.00000000000E+00 0.  1.
         21    1    1    2  505  501  0.46338420699E+01 -0.53872124517E+02  0.53408805895E+02  0.76001176567E+02  0.00000000000E+00 0.  1.
         21    1    1    2  506  502  0.74515390501E+02 -0.58589043123E+02 -0.88452331753E+03  0.88958794880E+03  0.00000000000E+00 0.  1.
<scales pt_clust_3="14000.00000" pt_clust_4="32.74120" pt_clust_5="45.24211" pt_clust_6="95.76372"></scales>
<clustering>
<clus scale="   32.741">  1  4  2 -1</clus>
<clus scale="   45.242">  1  5  2 -1</clus>
<clus scale="   95.764">  2  6  1 -1</clus>
<clus scale="   32.741">  1  3  2 -1</clus>
</clustering>
</event>
<event>
 6    0  0.1344929E+003  0.2209235E+03  0.7546771E-02  0.1133196E+00
         21   -1    0    0  502  501  0.00000000000E+00  0.00000000000E+00  0.58586565983E+02  0.58586565983E+02  0.00000000000E+00 0.  1.
         21   -1    0    0  505  502 -0.00000000000E+00 -0.00000000000E+00 -0.23205080932E+04  0.23205080932E+04  0.00000000000E+00 0.  1.
         21    1    1    2  503  504 -0.20837510515E+03  0.18391514029E+02 -0.49672357632E+03  0.53897378740E+03  0.00000000000E+00 0.  1.
         21    1    1    2  504  501 -0.30857962116E+02 -0.10698271124E+02  0.10073953762E+02  0.34178229553E+02  0.00000000000E+00 0.  1.
         21    1    1    2  505  506  0.12321748492E+02 -0.31624489091E+02 -0.92397919844E+03  0.92460234314E+03  0.00000000000E+00 0.  1.
         21    1    1    2  506  503  0.22691131877E+03  0.23931246185E+02 -0.85129270624E+03  0.88134029911E+03  0.00000000000E+00 0.  1.
<scales pt_clust_3="220.92348" pt_clust_4="32.65987" pt_clust_5="33.93075" pt_clust_6="14000.00000"></scales>
<clustering>
<clus scale="   32.660">  1  4  2 -1</clus>
<clus scale="   33.931">  2  5  1 -1</clus>
<clus scale="  220.923">  1  3  2 -1</clus>
<clus scale="   32.660">  1  3  2 -1</clus>
</clustering>
</event>
<event>
 6    0  0.1344929E+003  0.1356987E+03  0.7546771E-02  0.1219237E+00
         21   -1    0    0  506  501  0.00000000000E+00  0.00000000000E+00  0.83702399600E+03  0.83702399600E+03  0.00000000000E+00 0. -1.
         21   -1    0    0  503  502 -0.00000000000E+00 -0.00000000000E+00 -0.82121548573E+03  0.82121548573E+03  0.00000000000E+00 0.  1.
         21    1    1    2  503  504 -0.24342262060E+02  0.38248662448E+02 -0.59956618448E+03  0.60127790204E+03  0.00000000000E+00 0.  1.
         21    1    1    2  504  505 -0.10499716107E+03 -0.50237476729E+02 -0.16430096836E+03  0.20135296398E+03  0.00000000000E+00 0.  1.
         21    1    1    2  505  501  0.13128933433E+03 -0.40156690841E+02  0.79048477729E+03  0.80231890932E+03  0.00000000000E+00 0. -1.
         21    1    1    2  506  502 -0.19499111978E+01  0.52145505122E+02 -0.10809114179E+02  0.53289706393E+02  0.00000000000E+00 0.  1.
<scales pt_clust_3="45.33769" pt_clust_4="135.69869" pt_clust_5="14000.00000" pt_clust_6="57.95748"></scales>
<clustering>
<clus scale="   45.338">  2  3  1 -1</clus>
<clus scale="   57.957">  2  6  1 -1</clus>
<clus scale="  135.699">  2  4  1 -1</clus>
<clus scale="  135.699">  1  3  2 -1</clus>
</clustering>
</event>
<event>
 6    0  0.1344929E+003  0.6541305E+02  0.7546771E-02  0.1376424E+00
         21   -1    0    0  505  501  0.00000000000E+00  0.00000000000E+00  0.11511239131E+04  0.11511239131E+04  0.00000000000E+00 0. -1.
         21   -1    0    0  501  502 -0.00000000000E+00 -0.00000000000E+00 -0.10112577806E+03  0.10112577806E+03  0.00000000000E+00 0.  1.
         21    1    1    2  503  506  0.48538967384E+02 -0.77883893868E+02  0.29151835389E+03  0.30562212442E+03  0.00000000000E+00 0.  1.
         21    1    1    2  504  502 -0.15315267580E+02  0.44347596761E+02 -0.66132646169E+02  0.81085101276E+02  0.00000000000E+00 0.  1.
         21    1    1    2  505  503  0.56693502899E+01  0.63175515977E+02  0.81275450080E+03  0.81522583737E+03  0.00000000000E+00 0. -1.
         21    1    1    2  506  504 -0.38893050094E+02 -0.29639218870E+02  0.11857926518E+02  0.50316628088E+02  0.00000000000E+00 0.  1.
<scales pt_clust_3="65.41305" pt_clust_4="46.91766" pt_clust_5="14000.00000" pt_clust_6="49.61408"></scales>
<clustering>
<clus scale="   46.918">  2  4  1 -1</clus>
<clus scale="   49.614">  2  6  1 -1</clus>
<clus scale="   65.413">  2  3  1 -1</clus>
<clus scale="   65.413">  1  3  2 -1</clus>
</clustering>
</event>
<event>
 6    0  0.1344929E+003  0.1421379E+03  0.7546771E-02  0.1210481E+00
         21   -1    0    0  505  501  0.00000000000E+00  0.00000000000E+00  0.72142291893E+02  0.72142291893E+02  0.00000000000E+00 0.  1.
         21   -1    0    0  504  502 -0.00000000000E+00 -0.00000000000E+00 -0.11427935400E+04  0.11427935400E+04  0.00000000000E+00 0.  1.
         21    1    1    2  503  501  0.30506319281E+02  0.16082921605E+02  0.21095675945E+02  0.40426766220E+02  0.00000000000E+00 0.  1.
         21    1    1    2  504  503  0.11350127675E+03  0.11502825429E+03 -0.27630086376E+03  0.32008781049E+03  0.00000000000E+00 0.  1.
         21    1    1    2  505  506 -0.24366596013E+02 -0.62738374673E+02 -0.72984684098E+02  0.99280404768E+02  0.00000000000E+00 0. -1.
         21    1    1    2  506  502 -0.11964100001E+03 -0.68372801221E+02 -0.74246137616E+03  0.75514085039E+03  0.00000000000E+00 0.  1.
<scales pt_clust_3="34.48617" pt_clust_4="142.13789" pt_clust_5="59.46728" pt_clust_6="14000.00000"></scales>
<clustering>
<clus scale="   34.486">  1  3  2 -1</clus>
<clus scale="   59.467">  1  5  2 -1</clus>
<clus scale="  142.138">  1  4  2 -1</clus>
<clus scale="   34.486">  1  3  2 -1</clus>
</clustering>
</event>
<event>
 6    0  0.1344929E+003  0.7724884E+02  0.7546771E-02  0.1337045E+00
         21   -1    0    0  505  501  0.00000000000E+00  0.00000000000E+00  0.28923805443E+03  0.28923805443E+03  0.00000000000E+00 0. -1.
         21   -1    0    0  506  502 -0.00000000000E+00 -0.00000000000E+00 -0.47744938276E+03  0.47744938276E+03  0.00000000000E+00 0.  1.
         21    1    1    2  503  502  0.82757552803E+02  0.20470448235E+02 -0.33248762322E+03  0.34324316657E+03  0.00000000000E+00 0.  1.
         21    1    1    2  504  501  0.24968159795E+01  0.74885043449E+02  0.19774834616E+03  0.21146728406E+03  0.00000000000E+00 0. -1.
         21    1    1    2  505  503 -0.76254237195E+02 -0.40305199058E+02  0.46134985098E+02  0.97814388570E+02  0.00000000000E+00 0.  1.
         21    1    1    2  506  504 -0.90001315876E+01 -0.55050292626E+02 -0.99607036365E+02  0.11416259799E+03  0.00000000000E+00 0.  1.
<scales pt_clust_3="77.24884" pt_clust_4="73.90276" pt_clust_5="14000.00000" pt_clust_6="55.78115"></scales>
<clustering>
<clus scale="   55.781">  2  6  1 -1</clus>
<clus scale="   73.903">  1  4  2 -1</clus>
<clus scale="   77.249">  2  3  1 -1</clus>
<clus scale="   73.903">  1  3  2 -1</clus>
</clustering>
</event>
<event>
 6    0  0.2998194E+003  0.1271975E+03  0.7546771E-02  0.1231674E+00
         21   -1    0    0  506  501  0.00000000000E+00  0.00000000000E+00  0.13720639522E+04  0.13720639522E+04  0.00000000000E+00 0. -1.
         21   -1    0    0  505  502 -0.00000000000E+00 -0.00000000000E+00 -0.13657347953E+04  0.13657347953E+04  0.00000000000E+00 0. -1.
         21    1    1    2  503  502 -0.10436305516E+03  0.75261879687E+02 -0.13360662036E+04  0.13422477037E+04  0.00000000000E+00 0. -1.
         21    1    1    2  504  503  0.74071488037E+02 -0.24048237342E+02  0.97584435753E+02  0.12485041113E+03  0.00000000000E+00 0. -1.
         21    1    1    2  505  501 -0.18459215344E+02 -0.24297098573E+02  0.65763138647E+01  0.31214412284E+02  0.00000000000E+00 0. -1.
         21    1    1    2  506  504  0.48750782469E+02 -0.26916543772E+02  0.12382346108E+04  0.12394862204E+04  0.00000000000E+00 0. -1.
<scales pt_clust_3="127.19745" pt_clust_4="14000.00000" pt_clust_5="30.51379" pt_clust_6="58.57729"></scales>
<clustering>
<clus scale="   30.514">  1  5  2 -1</clus>
<clus scale="   58.577">  1  6  2 -1</clus>
<clus scale="  127.197">  2  3  1 -1</clus>
<clus scale="   30.514">  1  3  2 -1</clus>
</clustering>
</event>
<event>
 6    0  0.1344929E+003  0.7978373E+02  0.7546771E-02  0.1329666E+00
         21   -1    0    0  503  501  0.00000000000E+00  0.00000000000E+00  0.13210572914E+03  0.13210572914E+03  0.00000000000E+00 0. -1.
         21   -1    0    0  504  502 -0.00000000000E+00 -0.00000000000E+00 -0.30700121996E+03  0.30700121996E+03  0.00000000000E+00 0. -1.
         21    1    1    2  503  505  0.39278676292E+02 -0.41513274957E+02  0.72512533407E+02  0.92326777860E+02  0.00000000000E+00 0. -1.
         21    1    1    2  504  501 -0.11361146784E+03  0.26024687550E+02 -0.53280633498E+02  0.12815489024E+03  0.00000000000E+00 0. -1.
         21    1    1    2  505  506  0.62526756969E+02 -0.13755540414E+02 -0.94655570931E+02  0.11427373862E+03  0.00000000000E+00 0. -1.
         21    1    1    2  506  502  0.11806034579E+02  0.29244127821E+02 -0.99471819796E+02  0.10435154238E+03  0.00000000000E+00 0. -1.
<scales pt_clust_3="56.53317" pt_clust_4="14000.00000" pt_clust_5="79.78373" pt_clust_6="31.53730"></scales>
<clustering>
<clus scale="   31.537">  2  6  1 -1</clus>
<clus scale="   56.533">  1  3  2 -1</clus>
<clus scale="   79.784">  2  5  1 -1</clus>
<clus scale="   56.533">  1  3  2 -1</clus>
</clustering>
</event>
<event>
 6    0  0.1344929E+003  0.7212969E+02  0.7546771E-02  0.1352997E+00
         21   -1    0    0  503  501  0.00000000000E+00  0.00000000000E+00  0.66595534627E+03  0.66595534627E+03  0.00000000000E+00 0.  1.
         21   -1    0    0  505  502 -0.00000000000E+00 -0.00000000000E+00 -0.56957325809E+02  0.56957325809E+02  0.00000000000E+00 0. -1.
         21    1    1    2  503  504 -0.39885395932E+02 -0.83077691757E+02  0.42390607925E+03  0.43380768977E+03  0.00000000000E+00 0.  1.
         21    1    1    2  504  502  0.77993027796E+01 -0.35410608207E+02 -0.21423418013E+02  0.42115355119E+02  0.00000000000E+00 0. -1.
         21    1    1    2  505  506  0.23850764492E+02  0.86098273838E+02  0.94290216616E+02  0.12989386696E+03  0.00000000000E+00 0. -1.
         21    1    1    2  506  501  0.82353286595E+01  0.32390026126E+02  0.11222514260E+03  0.11709576022E+03  0.00000000000E+00 0. -1.
<scales pt_clust_3="72.12969" pt_clust_4="35.70008" pt_clust_5="14000.00000" pt_clust_6="33.42057"></scales>
<clustering>
<clus scale="   33.421">  1  6  2 -1</clus>
<clus scale="   35.700">  2  4  1 -1</clus>
<clus scale="   72.130">  1  3  2 -1</clus>
<clus scale="   33.421">  1  3  2 -1</clus>
</clustering>
</event>
<event>
 6    0  0.1344929E+003  0.9529549E+02  0.7546771E-02  0.1290512E+00
         21   -1    0    0  506  501  0.00000000000E+00  0.00000000000E+00  0.13884527484E+03  0.13884527484E+03  0.00000000000E+00 0.  1.
         21   -1    0    0  504  502 -0.00000000000E+00 -0.00000000000E+00 -0.11620500284E+04  0.11620500284E+04  0.00000000000E+00 0. -1.
         21    1    1    2  503  501  0.10167968894E+02 -0.38009930691E+02 -0.29343312510E+02  0.49083321114E+02  0.00000000000E+00 0. -1.
         21    1    1    2  504  503 -0.34373330243E+02  0.69719801542E+02 -0.51634799480E+03  0.52216628414E+03  0.00000000000E+00 0. -1.
         21    1    1    2  505  502  0.12094457527E+03 -0.89633336573E+02 -0.56640298969E+03  0.58606661058E+03  0.00000000000E+00 0. -1.
         21    1    1    2  506  505 -0.96739213917E+02  0.57923465721E+02  0.88889543473E+02  0.14357908737E+03  0.00000000000E+00 0.  1.
<scales pt_clust_3="39.34644" pt_clust_4="76.86254" pt_clust_5="14000.00000" pt_clust_6="95.29549"></scales>
<clustering>
<clus scale="   39.346">  1  3  2 -1</clus>
<clus scale="   76.863">  2  4  1 -1</clus>
<clus scale="   95.295">  1  6  2 -1</clus>
<clus scale="   39.346">  1  3  2 -1</clus>
</clustering>
</event>
<event>
 6    0  0.1344929E+003  0.9556317E+02  0.7546771E-02  0.1289913E+00
         21   -1    0    0  503  501  0.00000000000E+00  0.00000000000E+00  0.34460999430E+03  0.34460999430E+03  0.00000000000E+00 0.  1.
         21   -1    0    0  505  502 -0.00000000000E+00 -0.00000000000E+00 -0.45187297920E+03  0.45187297920E+03  0.00000000000E+00 0. -1.
         21    1    1    2  503  504  0.13784082615E+02  0.86365629435E+02  0.31164340561E+03  0.32368292378E+03  0.00000000000E+00 0.  1.
         21    1    1    2  504  502  0.79734289969E+02 -0.15796371925E+01 -0.22186999329E+03  0.23576756811E+03  0.00000000000E+00 0. -1.
         21    1    1    2  505  506 -0.47964082677E+02 -0.56046594309E+02 -0.14204028048E+03  0.16005378858E+03  0.00000000000E+00 0. -1.
         21    1    1    2  506  501 -0.45554289907E+02 -0.28739397934E+02 -0.54996116739E+02  0.76978693019E+02  0.00000000000E+00 0. -1.
<scales pt_clust_3="87.78163" pt_clust_4="79.74994" pt_clust_5="32.27560" pt_clust_6="32.27560"></scales>
<clustering>
<clus scale="   32.276">  5  6 -1 -1</clus>
<clus scale="   79.750">  2  4  1 -1</clus>
<clus scale="   87.782">  1  3  2 -1</clus>
<clus scale="   87.782">  1  3  2 -1</clus>
</clustering>
</event>
<event>
 6    0  0.1344929E+003  0.1376789E+03  0.7546771E-02  0.1216487E+00
         21   -1    0    0  503  501  0.00000000000E+00  0.00000000000E+00  0.90501794112E+03  0.90501794112E+03  0.00000000000E+00 0. -1.
         21   -1    0    0  506  502 -0.00000000000E+00 -0.00000000000E+00 -0.76855623363E+03  0.76855623363E+03  0.00000000000E+00 0. -1.
         21    1    1    2  503  502 -0.36697878820E+02 -0.43631401844E+02  0.12144465184E+02  0.58291693845E+02  0.00000000000E+00 0.  1.
         21    1    1    2  504  501  0.10502856865E+03 -0.80612259764E+02  0.84469656848E+03  0.85500972477E+03  0.00000000000E+00 0. -1.
         21    1    1    2  505  504 -0.11798929527E+03  0.51776559652E+02 -0.24471471325E+03  0.27656387474E+03  0.00000000000E+00 0. -1.
         21    1    1    2  506  505  0.49658605444E+02  0.72467101956E+02 -0.47566461292E+03  0.48370888140E+03  0.00000000000E+00 0. -1.
<scales pt_clust_3="57.01257" pt_clust_4="137.67890" pt_clust_5="14000.00000" pt_clust_6="87.58671"></scales>
<clustering>
<clus scale="   57.013">  1  3  2 -1</clus>
<clus scale="   87.587">  2  6  1 -1</clus>
<clus scale="  137.679">  1  4  2 -1</clus>
<clus scale="   57.013">  1  3  2 -1</clus>
</clustering>
</event>
<event>
 6    0  0.1344929E+003  0.1809396E+03  0.7546771E-02  0.1166897E+00
         21   -1    0    0  504  501  0.00000000000E+00  0.00000000000E+00  0.10005913416E+04  0.10005913416E+04  0.00000000000E+00 0. -1.
         21   -1    0    0  503  502 -0.00000000000E+00 -0.00000000000E+00 -0.28145892203E+03  0.28145892203E+03  0.00000000000E+00 0. -1.
         21    1    1    2  503  501 -0.81139383309E+02 -0.15426530515E+03 -0.60523149934E+02  0.18451134267E+03  0.00000000000E+00 0. -1.
         21    1    1    2  504  505  0.57841901746E+02  0.98513701421E+01  0.81122287278E+03  0.81334204638E+03  0.00000000000E+00 0. -1.
         21    1    1    2  505  506  0.52861439311E+02  0.16522642472E+03  0.61735318219E+02  0.18413406178E+03  0.00000000000E+00 0. -1.
         21    1    1    2  506  502 -0.29563957748E+02 -0.20812489708E+02 -0.93302621499E+02  0.10006281279E+03  0.00000000000E+00 0. -1.
<scales pt_clust_3="180.93963" pt_clust_4="58.48773" pt_clust_5="14000.00000" pt_clust_6="36.15505"></scales>
<clustering>
<clus scale="   36.155">  2  6  1 -1</clus>
<clus scale="   58.488">  1  4  2 -1</clus>
<clus scale="  180.940">  2  3  1 -1</clus>
<clus scale="   58.488">  1  3  2 -1</clus>
</clustering>
</event>
<event>
 6    0  0.1344929E+003  0.9575489E+02  0.7546771E-02  0.1289485E+00
         21   -1    0    0  506  501  0.00000000000E+00  0.00000000000E+00  0.26007422391E+03  0.26007422391E+03  0.00000000000E+00 0.  1.
         21   -1    0    0  503  502 -0.00000000000E+00 -0.00000000000E+00 -0.19223796530E+03  0.19223796530E+03  0.00000000000E+00 0.  1.
         21    1    1    2  503  504 -0.31338990964E+02 -0.21160065339E+02 -0.13315940797E+03  0.13842437881E+03  0.00000000000E+00 0.  1.
         21    1    1    2  504  501 -0.89215131446E+02  0.46800927838E+02  0.98039230497E+02  0.14057509467E+03  0.00000000000E+00 0.  1.
         21    1    1    2  505  502  0.10200750323E+03  0.34103114144E+01  0.91263348265E+02  0.13691661577E+03  0.00000000000E+00 0.  1.
         21    1    1    2  506  505  0.18546619185E+02 -0.29051173913E+02  0.11693087809E+02  0.36396099948E+02  0.00000000000E+00 0.  1.
<scales pt_clust_3="37.82559" pt_clust_4="14000.00000" pt_clust_5="95.75489" pt_clust_6="34.46662"></scales>
<clustering>
<clus scale="   34.467">  1  6  2 -1</clus>
<clus scale="   37.826">  2  3  1 -1</clus>
<clus scale="   95.755">  2  5  1 -1</clus>
<clus scale="   34.467">  1  3  2 -1</clus>
</clustering>
</event>
<event>
 6    0  0.1344929E+003  0.8567486E+02  0.7546771E-02  0.1313677E+00
         21   -1    0    0  504  501  0.00000000000E+00  0.00000000000E+00  0.65396162587E+03  0.65396162587E+03  0.00000000000E+00 0. -1.
         21   -1    0    0  506  502 -0.00000000000E+00 -0.00000000000E+00 -0.25495779099E+03  0.25495779099E+03  0.00000000000E+00 0.  1.
         21    1    1    2  503  502  0.16576189942E+02 -0.67735537494E+02 -0.18863792026E+03  0.20111473857E+03  0.00000000000E+00 0.  1.
         21    1    1    2  504  505  0.37506612000E+02 -0.13537129324E+02  0.38905054872E+03  0.39108864631E+03  0.00000000000E+00 0. -1.
         21    1    1    2  505  503  0.50969069513E+01  0.90340957065E+02  0.23138810479E+03  0.24845104553E+03  0.00000000000E+00 0.  1.
         21    1    1    2  506  501 -0.59179708893E+02 -0.90682902478E+01 -0.32796898376E+02  0.68264986456E+02  0.00000000000E+00 0.  1.
<scales pt_clust_3="14000.00000" pt_clust_4="39.87480" pt_clust_5="85.67486" pt_clust_6="57.53108"></scales>
<clustering>
<clus scale="   39.875">  1  4  2 -1</clus>
<clus scale="   57.531">  2  6  1 -1</clus>
<clus scale="   85.675">  1  5  2 -1</clus>
<clus scale="   39.875">  1  3  2 -1</clus>
</clustering>
</event>
<event>
 6    0  0.1344929E+003  0.1267126E+03  0.7546771E-02  0.1232417E+00
         21   -1    0    0  503  501  0.00000000000E+00  0.00000000000E+00  0.18010745839E+03  0.18010745839E+03  0.00000000000E+00 0.  1.
         21   -1    0    0  506  502 -0.00000000000E+00 -0.00000000000E+00 -0.33508302509E+03  0.33508302509E+03  0.00000000000E+00 0.  1.
         21    1    1    2  503  505 -0.40887538833E+02  0.80528128704E+02  0.49311006513E+02  0.10289871577E+03  0.00000000000E+00 0.  1.
         21    1    1    2  504  502  0.32277340390E+02 -0.80750748673E+02 -0.24656627162E+03  0.26145255098E+03  0.00000000000E+00 0.  1.
         21    1    1    2  505  504 -0.38016920857E+01 -0.36577535155E+02 -0.43330191698E+02  0.56831984422E+02  0.00000000000E+00 0.  1.
         21    1    1    2  506  501  0.12411890528E+02  0.36800155124E+02  0.85609890103E+02  0.94007232312E+02  0.00000000000E+00 0.  1.
<scales pt_clust_3="115.61910" pt_clust_4="33.71677" pt_clust_5="33.71677" pt_clust_6="38.83692"></scales>
<clustering>
<clus scale="   33.717">  4  5 -1 -1</clus>
<clus scale="   38.837">  1  6  2 -1</clus>
<clus scale="  115.619">  1  3  2 -1</clus>
<clus scale="   38.837">  1  3  2 -1</clus>
</clustering>
</event>
<event>
 6    0  0.1344929E+003  0.8547543E+02  0.7546771E-02  0.1314194E+00
         21   -1    0    0  506  501  0.00000000000E+00  0.00000000000E+00  0.15019546170E+03  0.15019546170E+03  0.00000000000E+00 0.  1.
         21   -1    0    0  504  502 -0.00000000000E+00 -0.00000000000E+00 -0.34540403872E+03  0.34540403872E+03  0.00000000000E+00 0.  1.
         21    1    1    2  503  501  0.25546788888E+02 -0.21728969267E+02  0.37941291713E+02  0.50639195735E+02  0.00000000000E+00 0. -1.
         21    1    1    2  504  503  0.95029064651E+01  0.43171226533E+02  0.11105569468E+02  0.45578434647E+02  0.00000000000E+00 0.  1.
         21    1    1    2  505  502  0.75765152950E+02  0.31841267867E+02 -0.26251052644E+03  0.27507453759E+03  0.00000000000E+00 0.  1.
         21    1    1    2  506  505 -0.11081484830E+03 -0.53283525134E+02  0.18255088235E+02  0.12430733245E+03  0.00000000000E+00 0.  1.
<scales pt_clust_3="33.53784" pt_clust_4="40.77339" pt_clust_5="85.47543" pt_clust_6="14000.00000"></scales>
<clustering>
<clus scale="   33.538">  1  3  2 -1</clus>
<clus scale="   40.773">  1  4  2 -1</clus>
<clus scale="   85.475">  2  5  1 -1</clus>
<clus scale="   33.538">  1  3  2 -1</clus>
</clustering>
</event>
<event>
 6    0  0.1344929E+003  0.5294398E+02  0.7546771E-02  0.1430080E+00
         21   -1    0    0  504  501  0.00000000000E+00  0.00000000000E+00  0.10773065415E+04  0.10773065415E+04  0.00000000000E+00 0.  1.
         21   -1    0    0  503  502 -0.00000000000E+00 -0.00000000000E+00 -0.34653520785E+03  0.34653520785E+03  0.00000000000E+00 0. -1.
         21    1    1    2  503  506 -0.18887630816E+02  0.35236385844E+02 -0.15640009962E+02  0.42929656379E+02  0.00000000000E+00 0. -1.
         21    1    1    2  504  502  0.48503411969E+02 -0.60129148077E+02 -0.28788586773E+03  0.29807107921E+03  0.00000000000E+00 0. -1.
         21    1    1    2  505  501  0.10258140029E+02 -0.51057753277E+02  0.97986366349E+03  0.98124661663E+03  0.00000000000E+00 0.  1.
         21    1    1    2  506  505 -0.39873921182E+02  0.75950515511E+02  0.54433547826E+02  0.10159439712E+03  0.00000000000E+00 0. -1.
<scales pt_clust_3="39.97931" pt_clust_4="41.54401" pt_clust_5="52.94398" pt_clust_6="14000.00000"></scales>
<clustering>
<clus scale="   39.979">  2  3  1 -1</clus>
<clus scale="   41.544">  2  4  1 -1</clus>
<clus scale="   52.944">  1  5  2 -1</clus>
<clus scale="   52.944">  1  3  2 -1</clus>
</clustering>
</event>
<event>
 6    0  0.1344929E+003  0.1030698E+03  0.7546771E-02  0.1273970E+00
         21   -1    0    0  506  501  0.00000000000E+00  0.00000000000E+00  0.49200950401E+03  0.49200950401E+03  0.00000000000E+00 0.  1.
         21   -1    0    0  505  502 -0.00000000000E+00 -0.00000000000E+00 -0.72409846717E+02  0.72409846717E+02  0.00000000000E+00 0.  1.
         21    1    1    2  503  502 -0.50041123602E+02  0.37320299080E+02 -0.28236668915E+02  0.68514438231E+02  0.00000000000E+00 0.  1.
         21    1    1    2  504  501  0.20051950009E+02 -0.41576765250E+02  0.15554796160E+03  0.16225250835E+03  0.00000000000E+00 0.  1.
         21    1    1    2  505  504 -0.11908065493E+02 -0.68956871307E+02  0.18063967258E+03  0.19372027110E+03  0.00000000000E+00 0.  1.
         21    1    1    2  506  503  0.41897239086E+02  0.73213337477E+02  0.11164869202E+03  0.13993213304E+03  0.00000000000E+00 0.  1.
<scales pt_clust_3="62.42531" pt_clust_4="30.50256" pt_clust_5="30.50256" pt_clust_6="95.98379"></scales>
<clustering>
<clus scale="   30.503">  4  5 -1 -1</clus>
<clus scale="   62.425">  2  3  1 -1</clus>
<clus scale="   95.984">  2  6  1 -1</clus>
<clus scale="  103.070">  1  3  2 -1</clus>
</clustering>
</event>
<event>
 6    0  0.1344929E+003  0.9821545E+02  0.7546771E-02  0.1284094E+00
         21   -1    0    0  504  501  0.00000000000E+00  0.00000000000E+00  0.49095320043E+02  0.49095320043E+02  0.00000000000E+00 0.  1.
         21   -1    0    0  503  502 -0.00000000000E+00 -0.00000000000E+00 -0.88714917008E+03  0.88714917008E+03  0.00000000000E+00 0.  1.
         21    1    1    2  503  506 -0.67482141341E+02 -0.35055301666E+02 -0.15488416664E+03  0.17254512062E+03  0.00000000000E+00 0.  1.
         21    1    1    2  504  505  0.18736897040E+01 -0.55110917714E+02 -0.85822332734E+02  0.10201076786E+03  0.00000000000E+00 0.  1.
         21    1    1    2  505  502  0.11834130371E+03  0.49359582724E+01 -0.52470422118E+03  0.53790663463E+03  0.00000000000E+00 0.  1.
         21    1    1    2  506  501 -0.52732852075E+02  0.85230261108E+02 -0.72643129487E+02  0.12378196702E+03  0.00000000000E+00 0.  1.
<scales pt_clust_3="98.21545" pt_clust_4="55.14276" pt_clust_5="14000.00000" pt_clust_6="72.42778"></scales>
<clustering>
<clus scale="   55.143">  1  4  2 -1</clus>
<clus scale="   72.428">  1  6  2 -1</clus>
<clus scale="   98.215">  1  3  2 -1</clus>
<clus scale="   55.143">  1  3  2 -1</clus>
</clustering>
</event>
<event>
 6    0  0.1344929E+003  0.1173137E+03  0.7546771E-02  0.1247595E+00
         21   -1    0    0  505  501  0.00000000000E+00  0.00000000000E+00  0.25990759300E+03  0.25990759300E+03  0.00000000000E+00 0. -1.
         21   -1    0    0  503  502 -0.00000000000E+00 -0.00000000000E+00 -0.96849086187E+03  0.96849086187E+03  0.00000000000E+00 0. -1.
         21    1    1    2  503  504  0.65299304163E+02 -0.71821966213E+02 -0.44118792265E+03  0.45174016542E+03  0.00000000000E+00 0. -1.
         21    1    1    2  504  501 -0.48513664870E+01  0.13484190681E+03  0.86996093297E+02  0.16054343910E+03  0.00000000000E+00 0. -1.
         21    1    1    2  505  506 -0.95120047696E+02 -0.82483987363E+02  0.99507315553E+02  0.16047784113E+03  0.00000000000E+00 0. -1.
         21    1    1    2  506  502  0.34672110021E+02  0.19464046767E+02 -0.45389875506E+03  0.45563700923E+03  0.00000000000E+00 0. -1.
<scales pt_clust_3="110.09977" pt_clust_4="14000.00000" pt_clust_5="117.31373" pt_clust_6="39.76185"></scales>
<clustering>
<clus scale="   39.762">  2  6  1 -1</clus>
<clus scale="  110.100">  2  3  1 -1</clus>
<clus scale="  117.314">  1  5  2 -1</clus>
<clus scale="  117.314">  1  3  2 -1</clus>
</clustering>
</event>
<event>
 6    0  0.1344929E+003  0.9079818E+02  0.7546771E-02  0.1300930E+00
         21   -1    0    0  503  501  0.00000000000E+00  0.00000000000E+00  0.46149093087E+02  0.46149093087E+02  0.00000000000E+00 0. -1.
         21   -1    0    0  506  502 -0.00000000000E+00 -0.00000000000E+00 -0.19102701369E+04  0.19102701369E+04  0.00000000000E+00 0. -1.
         21    1    1    2  503  504  0.18665313474E+02 -0.10861025098E+03 -0.78536167846E+02  0.13532372374E+03  0.00000000000E+00 0. -1.
         21    1    1    2  504  502 -0.58389304993E+01  0.49103218364E+02 -0.12584594010E+04  0.12594305393E+04  0.00000000000E+00 0. -1.
         21    1    1    2  505  501 -0.88995155089E+02  0.30006202735E+02 -0.15969454760E+03  0.18526429328E+03  0.00000000000E+00 0. -1.
         21    1    1    2  506  505  0.76168772114E+02  0.29500829884E+02 -0.36743092727E+03  0.37640067365E+03  0.00000000000E+00 0. -1.
<scales pt_clust_3="90.79818" pt_clust_4="49.44916" pt_clust_5="14000.00000" pt_clust_6="92.82067"></scales>
<clustering>
<clus scale="   49.449">  2  4  1 -1</clus>
<clus scale="   92.821">  2  6  1 -1</clus>
<clus scale="   90.798">  1  3  2 -1</clus>
<clus scale="   90.798">  1  3  2 -1</clus>
</clustering>
</event>
<event>
 6    0  0.1344929E+003  0.8813426E+02  0.7546771E-02  0.1307434E+00
         21   -1    0    0  506  501  0.00000000000E+00  0.00000000000E+00  0.23977265866E+03  0.23977265866E+03  0.00000000000E+00 0.  1.
         21   -1    0    0  505  502 -0.00000000000E+00 -0.00000000000E+00 -0.95883313647E+02  0.95883313647E+02  0.00000000000E+00 0.  1.
         21    1    1    2  503  504  0.21366860724E+02 -0.88023923624E+02  0.97476699108E+02  0.13306562568E+03  0.00000000000E+00 0.  1.
         21    1    1    2  504  502 -0.71275661088E+01  0.10636077768E+03  0.13884062212E+02  0.10749969493E+03  0.00000000000E+00 0.  1.
         21    1    1    2  505  501  0.16783823915E+02 -0.31738807852E+02 -0.13179898828E+02  0.38246024659E+02  0.00000000000E+00 0. -1.
         21    1    1    2  506  503 -0.31023118530E+02  0.13401953799E+02  0.45708482517E+02  0.56844627037E+02  0.00000000000E+00 0.  1.
<scales pt_clust_3="14000.00000" pt_clust_4="88.13426" pt_clust_5="34.18029" pt_clust_6="33.79417"></scales>
<clustering>
<clus scale="   33.794">  1  6  2 -1</clus>
<clus scale="   34.180">  2  5  1 -1</clus>
<clus scale="   88.134">  2  4  1 -1</clus>
<clus scale="   33.794">  1  3  2 -1</clus>
</clustering>
</event>
<event>
 6    0  0.1344929E+003  0.1128359E+03  0.7546771E-02  0.1255407E+00
         21   -1    0    0  503  501  0.00000000000E+00  0.00000000000E+00  0.67725458823E+03  0.67725458823E+03  0.00000000000E+00 0. -1.
         21   -1    0    0  504  502 -0.00000000000E+00 -0.00000000000E+00 -0.26248602174E+03  0.26248602174E+03  0.00000000000E+00 0. -1.
         21    1    1    2  503  506  0.85792624479E+02  0.28884499832E+02  0.54190016194E+03  0.54940920474E+03  0.00000000000E+00 0. -1.
         21    1    1    2  504  505 -0.11027478016E+03  0.42687289989E+02  0.41643074366E+02  0.12536697136E+03  0.00000000000E+00 0. -1.
         21    1    1    2  505  501  0.34257072758E+02 -0.22798108790E+02  0.35729881017E+02  0.54497020064E+02  0.00000000000E+00 0. -1.
         21    1    1    2  506  502 -0.97749170752E+01 -0.48773681030E+02 -0.20450455082E+03  0.21046741380E+03  0.00000000000E+00 0. -1.
<scales pt_clust_3="14000.00000" pt_clust_4="112.83593" pt_clust_5="41.14974" pt_clust_6="49.81755"></scales>
<clustering>
<clus scale="   41.150">  1  5  2 -1</clus>
<clus scale="   49.818">  2  6  1 -1</clus>
<clus scale="  112.836">  2  4  1 -1</clus>
<clus scale="   41.150">  1  3  2 -1</clus>
</clustering>
</event>
<event>
 6    0  0.1344929E+003  0.1685367E+03  0.7546771E-02  0.1179383E+00
         21   -1    0    0  505  501  0.00000000000E+00  0.00000000000E+00  0.34815662880E+03  0.34815662880E+03  0.00000000000E+00 0.  1.
         21   -1    0    0  503  502 -0.00000000000E+00 -0.00000000000E+00 -0.88051827740E+03  0.88051827740E+03  0.00000000000E+00 0. -1.
         21    1    1    2  503  501  0.16092171790E+02 -0.28664985556E+02  0.93873759512E+01  0.34187164508E+02  0.00000000000E+00 0.  1.
         21    1    1    2  504  502  0.54150215482E+01  0.42474860396E+02 -0.64911404101E+03  0.65052476852E+03  0.00000000000E+00 0. -1.
         21    1    1    2  505  506  0.98524948139E+02  0.14270374432E+03  0.24735942499E+03  0.30208973697E+03  0.00000000000E+00 0.  1.
         21    1    1    2  506  504 -0.12003214148E+03 -0.15651361916E+03 -0.13999440852E+03  0.24187323620E+03  0.00000000000E+00 0.  1.
<scales pt_clust_3="32.87308" pt_clust_4="42.76161" pt_clust_5="14000.00000" pt_clust_6="168.53666"></scales>
<clustering>
<clus scale="   32.873">  1  3  2 -1</clus>
<clus scale="   42.762">  2  4  1 -1</clus>
<clus scale="  168.537">  2  6  1 -1</clus>
<clus scale="   32.873">  1  3  2 -1</clus>
</clustering>
</event>
<event>
 6    0  0.1344929E+003  0.9095720E+02  0.7546771E-02  0.1300550E+00
         21   -1    0    0  503  501  0.00000000000E+00  0.00000000000E+00  0.33255956687E+03  0.33255956687E+03  0.00000000000E+00 0. -1.
         21   -1    0    0  505  502 -0.00000000000E+00 -0.00000000000E+00 -0.27868709551E+03  0.27868709551E+03  0.00000000000E+00 0.  1.
         21    1    1    2  503  504  0.58296033860E+02  0.74931572896E+02  0.21258646468E+03  0.23282219212E+03  0.00000000000E+00 0. -1.
         21    1    1    2  504  502 -0.27199578890E+00  0.43160071106E+02 -0.16206717073E+02  0.46103398984E+02  0.00000000000E+00 0. -1.
         21    1    1    2  505  506 -0.93234299095E+02 -0.29468059618E+02 -0.19882709715E+03  0.22156988881E+03  0.00000000000E+00 0.  1.
         21    1    1    2  506  501  0.35210261024E+02 -0.88623584383E+02  0.56319820914E+02  0.11075118247E+03  0.00000000000E+00 0. -1.
<scales pt_clust_3="14000.00000" pt_clust_4="43.16093" pt_clust_5="90.10895" pt_clust_6="90.95720"></scales>
<clustering>
<clus scale="   43.161">  2  4  1 -1</clus>
<clus scale="   90.957">  1  6  2 -1</clus>
<clus scale="   90.109">  2  5  1 -1</clus>
<clus scale="   90.957">  1  3  2 -1</clus>
</clustering>
</event>
<event>
 6    0  0.1344929E+003  0.1463836E+03  0.7546771E-02  0.1204989E+00
         21   -1    0    0  504  501  0.00000000000E+00  0.00000000000E+00  0.22385841364E+03  0.22385841364E+03  0.00000000000E+00 0. -1.
         21   -1    0    0  505  502 -0.00000000000E+00 -0.00000000000E+00 -0.26383112726E+04  0.26383112726E+04  0.00000000000E+00 0. -1.
         21    1    1    2  503  501  0.56036337808E+02 -0.17564087231E+01  0.12345191154E+03  0.13558587902E+03  0.00000000000E+00 0. -1.
         21    1    1    2  504  506 -0.17212448894E+03 -0.92496527523E+02 -0.67936749782E+02  0.20687641062E+03  0.00000000000E+00 0.  1.
         21    1    1    2  505  503  0.50764802825E+02  0.11170301808E+03 -0.12998479832E+03  0.17874752376E+03  0.00000000000E+00 0.  1.
         21    1    1    2  506  502  0.65323348311E+02 -0.17450081837E+02 -0.23399832224E+04  0.23409598728E+04  0.00000000000E+00 0. -1.
<scales pt_clust_3="56.06386" pt_clust_4="14000.00000" pt_clust_5="146.38359" pt_clust_6="67.89655"></scales>
<clustering>
<clus scale="   56.064">  1  3  2 -1</clus>
<clus scale="   67.897">  2  6  1 -1</clus>
<clus scale="  146.384">  2  5  1 -1</clus>
<clus scale="   56.064">  1  3  2 -1</clus>
</clustering>
</event>
<event>
 6    0  0.1344929E+003  0.6934762E+02  0.7546771E-02  0.1362326E+00
         21   -1    0    0  503  501  0.00000000000E+00  0.00000000000E+00  0.10452480396E+04  0.10452480396E+04  0.00000000000E+00 0. -1.
         21   -1    0    0  504  502 -0.00000000000E+00 -0.00000000000E+00 -0.22003173430E+02  0.22003173430E+02  0.00000000000E+00 0. -1.
         21    1    1    2  503  506  0.93187707759E+01  0.10008977408E+03  0.61507786570E+03  0.62323798283E+03  0.00000000000E+00 0. -1.
         21    1    1    2  504  505  0.30370874986E+02  0.59443616864E+01  0.53631297988E+02  0.61919638300E+02  0.00000000000E+00 0. -1.
         21    1    1    2  505  501  0.75006502471E+01 -0.45508224962E+02  0.23886494162E+03  0.24327704090E+03  0.00000000000E+00 0.  1.
         21    1    1    2  506  502 -0.47190296009E+02 -0.60525910800E+02  0.11567076088E+03  0.13881655103E+03  0.00000000000E+00 0. -1.
<scales pt_clust_3="69.34762" pt_clust_4="30.94714" pt_clust_5="46.16621" pt_clust_6="14000.00000"></scales>
<clustering>
<clus scale="   30.947">  2  4  1 -1</clus>
<clus scale="   46.166">  1  5  2 -1</clus>
<clus scale="   69.348">  1  3  2 -1</clus>
<clus scale="   46.166">  1  3  2 -1</clus>
</clustering>
</event>
<event>
 6    0  0.1344929E+003  0.6912035E+02  0.7546771E-02  0.1363110E+00
         21   -1    0    0  504  501  0.00000000000E+00  0.00000000000E+00  0.18940521836E+04  0.18940521836E+04  0.00000000000E+00 0.  1.
         21   -1    0    0  505  502 -0.00000000000E+00 -0.00000000000E+00 -0.89812740583E+02  0.89812740583E+02  0.00000000000E+00 0. -1.
         21    1    1    2  503  506  0.34597109905E+02 -0.72705062651E+02  0.20112034365E+03  0.21663882104E+03  0.00000000000E+00 0. -1.
         21    1    1    2  504  503  0.21017231698E+02  0.61559533303E+02  0.15413208403E+04  0.15426928511E+04  0.00000000000E+00 0.  1.
         21    1    1    2  505  501 -0.68378081610E+02  0.49774234710E+02  0.12406727415E+03  0.15015233931E+03  0.00000000000E+00 0.  1.
         21    1    1    2  506  502  0.12763740007E+02 -0.38628705363E+02 -0.62269015082E+02  0.74380912715E+02  0.00000000000E+00 0. -1.
<scales pt_clust_3="69.12035" pt_clust_4="64.01782" pt_clust_5="14000.00000" pt_clust_6="40.68280"></scales>
<clustering>
<clus scale="   40.683">  2  6  1 -1</clus>
<clus scale="   64.018">  1  4  2 -1</clus>
<clus scale="   69.120">  1  3  2 -1</clus>
<clus scale="   64.018">  1  3  2 -1</clus>
</clustering>
</event>
<event>
 6    0  0.1344929E+003  0.1537067E+03  0.7546771E-02  0.1195991E+00
         21   -1    0    0  506  501  0.00000000000E+00  0.00000000000E+00  0.37573032449E+02  0.37573032449E+02  0.00000000000E+00 0. -1.
         21   -1    0    0  505  502 -0.00000000000E+00 -0.00000000000E+00 -0.17287534222E+04  0.17287534222E+04  0.00000000000E+00 0. -1.
         21    1    1    2  503  501 -0.51922537942E+02 -0.29488103138E+02 -0.51795364913E+02  0.79045923358E+02  0.00000000000E+00 0. -1.
         21    1    1    2  504  503 -0.19263179501E+02 -0.61448145274E+02 -0.87358065650E+02  0.10852822802E+03  0.00000000000E+00 0. -1.
         21    1    1    2  505  504  0.36059482506E+02  0.14748411547E+03 -0.14433067081E+04  0.14512705138E+04  0.00000000000E+00 0. -1.
         21    1    1    2  506  502  0.35126234936E+02 -0.56547867052E+02 -0.10872025107E+03  0.12748178945E+03  0.00000000000E+00 0. -1.
<scales pt_clust_3="47.98846" pt_clust_4="47.98846" pt_clust_5="145.40351" pt_clust_6="66.56962"></scales>
<clustering>
<clus scale="   47.988">  3  4 -1 -1</clus>
<clus scale="   66.570">  1  6  2 -1</clus>
<clus scale="  145.404">  2  5  1 -1</clus>
<clus scale="   66.570">  1  3  2 -1</clus>
</clustering>
</event>
<event>
 6    0  0.1344929E+003  0.9011387E+02  0.7546771E-02  0.1302576E+00
         21   -1    0    0  505  501  0.00000000000E+00  0.00000000000E+00  0.62892119670E+03  0.62892119670E+03  0.00000000000E+00 0. -1.
         21   -1    0    0  503  502 -0.00000000000E+00 -0.00000000000E+00 -0.74663844496E+03  0.74663844496E+03  0.00000000000E+00 0. -1.
         21    1    1    2  503  504  0.13613423183E+02  0.49205494461E+02 -0.16675458339E+03  0.17439494562E+03  0.00000000000E+00 0. -1.
         21    1    1    2  504  501 -0.56592660815E+02  0.64505951999E+02 -0.35292781712E+03  0.36321039522E+03  0.00000000000E+00 0. -1.
         21    1    1    2  505  506  0.59211139254E+02 -0.67982939812E+02  0.61392601476E+03  0.62051010525E+03  0.00000000000E+00 0. -1.
         21    1    1    2  506  502 -0.16231901621E+02 -0.45728506648E+02 -0.21196086252E+03  0.21744419558E+03  0.00000000000E+00 0. -1.
<scales pt_clust_3="35.55051" pt_clust_4="90.11387" pt_clust_5="14000.00000" pt_clust_6="48.52392"></scales>
<clustering>
<clus scale="   48.524">  2  6  1 -1</clus>
<clus scale="   35.551">  2  3  1 -1</clus>
<clus scale="   90.114">  2  4  1 -1</clus>
<clus scale="   90.114">  1  3  2 -1</clus>
</clustering>
</event>
<event>
 6    0  0.1344929E+003  0.2020315E+03  0.7546771E-02  0.1148036E+00
         21   -1    0    0  503  501  0.00000000000E+00  0.00000000000E+00  0.15055053985E+03  0.15055053985E+03  0.00000000000E+00 0.  1.
         21   -1    0    0  505  502 -0.00000000000E+00 -0.00000000000E+00 -0.98798531488E+03  0.98798531488E+03  0.00000000000E+00 0.  1.
         21    1    1    2  503  506 -0.15806237084E+03  0.64541309681E+02 -0.96178670427E+02  0.19595823630E+03  0.00000000000E+00 0.  1.
         21    1    1    2  504  501  0.26473959609E+03  0.60370734512E+02 -0.12512061951E+03  0.29897633477E+03  0.00000000000E+00 0.  1.
         21    1    1    2  505  504 -0.51975539335E+02 -0.64829753146E+02 -0.46147176279E+03  0.46889288909E+03  0.00000000000E+00 0.  1.
         21    1    1    2  506  502 -0.54701685924E+02 -0.60082291047E+02 -0.15466372229E+03  0.17470839457E+03  0.00000000000E+00 0.  1.
<scales pt_clust_3="202.03154" pt_clust_4="14000.00000" pt_clust_5="128.94431" pt_clust_6="81.25365"></scales>
<clustering>
<clus scale="   81.254">  2  6  1 -1</clus>
<clus scale="  128.944">  2  5  1 -1</clus>
<clus scale="  202.032">  1  3  2 -1</clus>
<clus scale="  202.032">  1  3  2 -1</clus>
</clustering>
</event>
<event>
 6    0  0.1344929E+003  0.9224760E+02  0.7546771E-02  0.1297498E+00
         21   -1    0    0  504  501  0.00000000000E+00  0.00000000000E+00  0.94095701117E+03  0.94095701117E+03  0.00000000000E+00 0.  1.
         21   -1    0    0  506  502 -0.00000000000E+00 -0.00000000000E+00 -0.79164555303E+03  0.79164555303E+03  0.00000000000E+00 0.  1.
         21    1    1    2  503  501 -0.28466566000E+02  0.77859945902E+02  0.69243082441E+03  0.69737576897E+03  0.00000000000E+00 0.  1.
         21    1    1    2  504  505  0.11706807140E+03 -0.48253789001E+02  0.22099224629E+03  0.25469773147E+03  0.00000000000E+00 0.  1.
         21    1    1    2  505  502 -0.23136455527E+02  0.19527193444E+02 -0.55711030882E+03  0.55793234631E+03  0.00000000000E+00 0.  1.
         21    1    1    2  506  503 -0.65465049872E+02 -0.49133350346E+02 -0.20700130374E+03  0.22259671746E+03  0.00000000000E+00 0.  1.
<scales pt_clust_3="83.17837" pt_clust_4="92.24760" pt_clust_5="30.27552" pt_clust_6="14000.00000"></scales>
<clustering>
<clus scale="   30.276">  2  5  1 -1</clus>
<clus scale="   83.178">  1  3  2 -1</clus>
<clus scale="   92.248">  1  4  2 -1</clus>
<clus scale="   83.178">  1  3  2 -1</clus>
</clustering>
</event>
<event>
 6    0  0.1344929E+003  0.6960158E+02  0.7546771E-02  0.1361453E+00
         21   -1    0    0  504  501  0.00000000000E+00  0.00000000000E+00  0.14714419114E+03  0.14714419114E+03  0.00000000000E+00 0.  1.
         21   -1    0    0  506  502 -0.00000000000E+00 -0.00000000000E+00 -0.29937590399E+03  0.29937590399E+03  0.00000000000E+00 0. -1.
         21    1    1    2  503  502  0.17831086940E+02  0.41284015641E+02 -0.76536252148E+02  0.88770014655E+02  0.00000000000E+00 0. -1.
         21    1    1    2  504  505  0.15360242834E+02  0.43152179471E+02  0.80769947792E+02  0.92853821243E+02  0.00000000000E+00 0. -1.
         21    1    1    2  505  503  0.50178499829E+02 -0.20252483256E+02 -0.15002459160E+03  0.15948486765E+03  0.00000000000E+00 0. -1.
         21    1    1    2  506  501 -0.83369829603E+02 -0.64183711856E+02 -0.64408168939E+01  0.10541139159E+03  0.00000000000E+00 0.  1.
<scales pt_clust_3="44.97019" pt_clust_4="47.05552" pt_clust_5="69.60158" pt_clust_6="14000.00000"></scales>
<clustering>
<clus scale="   44.970">  2  3  1 -1</clus>
<clus scale="   47.056">  1  4  2 -1</clus>
<clus scale="   69.602">  2  5  1 -1</clus>
<clus scale="   47.056">  1  3  2 -1</clus>
</clustering>
</event>
<event>
 6    0  0.1344929E+003  0.1836539E+03  0.7546771E-02  0.1164313E+00
         21   -1    0    0  504  501  0.00000000000E+00  0.00000000000E+00  0.27430453252E+03  0.27430453252E+03  0.00000000000E+00 0.  1.
         21   -1    0    0  503  502 -0.00000000000E+00 -0.00000000000E+00 -0.63276766144E+03  0.63276766144E+03  0.00000000000E+00 0. -1.
         21    1    1    2  503  501 -0.23257008158E+03  0.15760738885E+02 -0.36842767590E+03  0.43597728852E+03  0.00000000000E+00 0. -1.
         21    1    1    2  504  506  0.16389288431E+03 -0.75572937133E+02  0.19162579387E+03  0.26323485945E+03  0.00000000000E+00 0.  1.
         21    1    1    2  505  502  0.31857808723E+02  0.52246824467E+02 -0.13273576992E+03  0.14616235924E+03  0.00000000000E+00 0. -1.
         21    1    1    2  506  505  0.36819388541E+02  0.75653737815E+01 -0.48925476968E+02  0.61697686743E+02  0.00000000000E+00 0. -1.
<scales pt_clust_3="183.65388" pt_clust_4="14000.00000" pt_clust_5="101.01975" pt_clust_6="34.26084"></scales>
<clustering>
<clus scale="   34.261">  5  6 -1 -1</clus>
<clus scale="  101.020">  2  5  1 -1</clus>
<clus scale="  183.654">  2  3  1 -1</clus>
<clus scale="  183.654">  1  3  2 -1</clus>
</clustering>
</event>
<event>
 6    0  0.1344929E+003  0.1271040E+03  0.7546771E-02  0.1231817E+00
         21   -1    0    0  504  501  0.00000000000E+00  0.00000000000E+00  0.11800386256E+04  0.11800386256E+04  0.00000000000E+00 0. -1.
         21   -1    0    0  505  502 -0.00000000000E+00 -0.00000000000E+00 -0.67702411681E+02  0.67702411681E+02  0.00000000000E+00 0. -1.
         21    1    1    2  503  506  0.92901493804E+02 -0.43682621685E+02  0.10736258403E+03  0.14854488695E+03  0.00000000000E+00 0. -1.
         21    1    1    2  504  503 -0.85818638881E+02 -0.11516549518E+03  0.81828231287E+03  0.83079111311E+03  0.00000000000E+00 0. -1.
         21    1    1    2  505  501  0.11419791107E+02  0.10159822109E+03  0.18111835210E+03  0.20798189254E+03  0.00000000000E+00 0. -1.
         21    1    1    2  506  502 -0.18502646030E+02  0.57249895770E+02  0.55729649160E+01  0.60423144686E+02  0.00000000000E+00 0.  1.
<scales pt_clust_3="84.67819" pt_clust_4="127.10398" pt_clust_5="14000.00000" pt_clust_6="60.16559"></scales>
<clustering>
<clus scale="   60.166">  2  6  1 -1</clus>
<clus scale="   84.678">  2  3  1 -1</clus>
<clus scale="  127.104">  1  4  2 -1</clus>
<clus scale="  127.104">  1  3  2 -1</clus>
</clustering>
</event>
<event>
 6    0  0.1344929E+003  0.1064383E+03  0.7546771E-02  0.1267311E+00
         21   -1    0    0  506  501  0.00000000000E+00  0.00000000000E+00  0.48669216584E+02  0.48669216584E+02  0.00000000000E+00 0. -1.
         21   -1    0    0  503  502 -0.00000000000E+00 -0.00000000000E+00 -0.79448701982E+03  0.79448701982E+03  0.00000000000E+00 0. -1.
         21    1    1    2  503  504 -0.20272896532E+02  0.44260245527E+02 -0.31945906552E+03  0.32314710924E+03  0.00000000000E+00 0. -1.
         21    1    1    2  504  501 -0.62206802541E+02 -0.12023969115E+03 -0.12985545140E+03  0.18758919976E+03  0.00000000000E+00 0. -1.
         21    1    1    2  505  502  0.50241257501E+02 -0.20884696475E+01 -0.18972000276E+03  0.19627079535E+03  0.00000000000E+00 0.  1.
         21    1    1    2  506  505  0.32238441572E+02  0.78067915271E+02 -0.10678328356E+03  0.13614913205E+03  0.00000000000E+00 0. -1.
<scales pt_clust_3="48.68223" pt_clust_4="106.43827" pt_clust_5="44.90595" pt_clust_6="14000.00000"></scales>
<clustering>
<clus scale="   48.682">  2  3  1 -1</clus>
<clus scale="   44.906">  2  5  1 -1</clus>
<clus scale="  106.438">  2  4  1 -1</clus>
<clus scale="  106.438">  1  3  2 -1</clus>
</clustering>
</event>
<event>
 6    0  0.1344929E+003  0.6188601E+02  0.7546771E-02  0.1390083E+00
         21   -1    0    0  504  501  0.00000000000E+00  0.00000000000E+00  0.15285312640E+04  0.15285312640E+04  0.00000000000E+00 0.  1.
         21   -1    0    0  503  502 -0.00000000000E+00 -0.00000000000E+00 -0.83664529230E+02  0.83664529230E+02  0.00000000000E+00 0.  1.
         21    1    1    2  503  506 -0.30049634939E+02 -0.45222636639E+02 -0.40591740607E+02  0.67792011550E+02  0.00000000000E+00 0.  1.
         21    1    1    2  504  505  0.38763127981E+02 -0.48683586875E+02  0.13239621922E+04  0.13254239164E+04  0.00000000000E+00 0.  1.
         21    1    1    2  505  502  0.46915147984E+02  0.68735797697E+02  0.11632716204E+03  0.14303024025E+03  0.00000000000E+00 0.  1.
         21    1    1    2  506  501 -0.55628641025E+02  0.25170425817E+02  0.45169121054E+02  0.75949624982E+02  0.00000000000E+00 0.  1.
<scales pt_clust_3="54.29611" pt_clust_4="61.88601" pt_clust_5="58.62621" pt_clust_6="14000.00000"></scales>
<clustering>
<clus scale="   54.296">  2  3  1 -1</clus>
<clus scale="   58.626">  2  5  1 -1</clus>
<clus scale="   61.886">  1  4  2 -1</clus>
<clus scale="   61.886">  1  3  2 -1</clus>
</clustering>
</event>
<event>
 6    0  0.1344929E+003  0.1055949E+03  0.7546771E-02  0.1268952E+00
         21   -1    0    0  505  501  0.00000000000E+00  0.00000000000E+00  0.30679490170E+03  0.30679490170E+03  0.00000000000E+00 0.  1.
         21   -1    0    0  503  502 -0.00000000000E+00 -0.00000000000E+00 -0.12380627886E+04  0.12380627886E+04  0.00000000000E+00 0. -1.
         21    1    1    2  503  506 -0.12891176057E+03  0.38857455474E+02 -0.10266355046E+04  0.10354267734E+04  0.00000000000E+00 0. -1.
         21    1    1    2  504  501  0.28903199145E+02 -0.19105013003E+02  0.22368172726E+03  0.22634909223E+03  0.00000000000E+00 0.  1.
         21    1    1    2  505  502  0.21672504882E+02 -0.40009528770E+02 -0.18093127187E+03  0.18656522989E+03  0.00000000000E+00 0. -1.
         21    1    1    2  506  504  0.78336056547E+02  0.20257086299E+02  0.52617162282E+02  0.96516594777E+02  0.00000000000E+00 0.  1.
<scales pt_clust_3="14000.00000" pt_clust_4="34.64674" pt_clust_5="46.55855" pt_clust_6="105.59491"></scales>
<clustering>
<clus scale="   34.647">  1  4  2 -1</clus>
<clus scale="   46.559">  2  5  1 -1</clus>
<clus scale="  105.595">  1  6  2 -1</clus>
<clus scale="   34.647">  1  3  2 -1</clus>
</clustering>
</event>
<event>
 6    0  0.1344929E+003  0.9017775E+02  0.7546771E-02  0.1302422E+00
         21   -1    0    0  506  501  0.00000000000E+00  0.00000000000E+00  0.17555757528E+04  0.17555757528E+04  0.00000000000E+00 0.  1.
         21   -1    0    0  503  502 -0.00000000000E+00 -0.00000000000E+00 -0.47616511423E+02  0.47616511423E+02  0.00000000000E+00 0. -1.
         21    1    1    2  503  504 -0.29966204271E+02 -0.45349049741E+02  0.55497702139E+03  0.55763249904E+03  0.00000000000E+00 0.  1.
         21    1    1    2  504  501 -0.36834914875E+02  0.13556322519E+02  0.50714380561E+03  0.50866042150E+03  0.00000000000E+00 0.  1.
         21    1    1    2  505  502  0.75531526990E+01  0.92452882974E+02  0.76207014778E+01  0.93073416059E+02  0.00000000000E+00 0. -1.
         21    1    1    2  506  505  0.59247966447E+02 -0.60660155752E+02  0.63821771291E+03  0.64382592763E+03  0.00000000000E+00 0.  1.
<scales pt_clust_3="60.80197" pt_clust_4="39.25028" pt_clust_5="90.17775" pt_clust_6="14000.00000"></scales>
<clustering>
<clus scale="   39.250">  1  4  2 -1</clus>
<clus scale="   60.802">  1  3  2 -1</clus>
<clus scale="   90.178">  2  5  1 -1</clus>
<clus scale="   39.250">  1  3  2 -1</clus>
</clustering>
</event>
<event>
 6    0  0.1344929E+003  0.1420471E+03  0.7546771E-02  0.1210601E+00
         21   -1    0    0  504  501  0.00000000000E+00  0.00000000000E+00  0.18076287193E+03  0.18076287193E+03  0.00000000000E+00 0.  1.
         21   -1    0    0  503  502 -0.00000000000E+00 -0.00000000000E+00 -0.14616405694E+04  0.14616405694E+04  0.00000000000E+00 0.  1.
         21    1    1    2  503  501  0.56237133230E+02  0.11060965488E+03 -0.16576375808E+02  0.12518740808E+03  0.00000000000E+00 0.  1.
         21    1    1    2  504  506 -0.75606027088E+01  0.30505797527E+02  0.11916565019E+03  0.12324049084E+03  0.00000000000E+00 0.  1.
         21    1    1    2  505  502  0.14668301750E+02 -0.47383870813E+02 -0.64371377028E+03  0.64562203210E+03  0.00000000000E+00 0.  1.
         21    1    1    2  506  505 -0.63344832271E+02 -0.93731581591E+02 -0.73975320158E+03  0.74835351032E+03  0.00000000000E+00 0.  1.
<scales pt_clust_3="142.04714" pt_clust_4="31.42875" pt_clust_5="49.09968" pt_clust_6="14000.00000"></scales>
<clustering>
<clus scale="   31.429">  1  4  2 -1</clus>
<clus scale="   49.100">  2  5  1 -1</clus>
<clus scale="  142.047">  1  3  2 -1</clus>
<clus scale="   31.429">  1  3  2 -1</clus>
</clustering>
</event>
<event>
 6    0  0.1344929E+003  0.8775560E+02  0.7546771E-02  0.1308380E+00
         21   -1    0    0  504  501  0.00000000000E+00  0.00000000000E+00  0.74752547757E+02  0.74752547757E+02  0.00000000000E+00 0.  1.
         21   -1    0    0  503  502 -0.00000000000E+00 -0.00000000000E+00 -0.44678333175E+03  0.44678333175E+03  0.00000000000E+00 0.  1.
         21    1    1    2  503  505  0.30663890955E+02 -0.28204793170E+02 -0.19337462308E+03  0.19781185358E+03  0.00000000000E+00 0. -1.
         21    1    1    2  504  502 -0.37275383847E+02 -0.69234620049E+02 -0.13742184628E+03  0.15832766874E+03  0.00000000000E+00 0.  1.
         21    1    1    2  505  506  0.58171489530E+02  0.78075301113E+02 -0.50283621184E+02  0.10958155592E+03  0.00000000000E+00 0.  1.
         21    1    1    2  506  501 -0.51559996638E+02  0.19364112106E+02  0.90493065528E+01  0.55814801263E+02  0.00000000000E+00 0.  1.
<scales pt_clust_3="41.66275" pt_clust_4="87.75560" pt_clust_5="14000.00000" pt_clust_6="51.50157"></scales>
<clustering>
<clus scale="   41.663">  2  3  1 -1</clus>
<clus scale="   51.502">  1  6  2 -1</clus>
<clus scale="   87.756">  2  4  1 -1</clus>
<clus scale="   51.502">  1  3  2 -1</clus>
</clustering>
</event>
<event>
 6    0  0.1344929E+003  0.2239678E+03  0.7546771E-02  0.1130959E+00
         21   -1    0    0  505  501  0.00000000000E+00  0.00000000000E+00  0.53150539484E+03  0.53150539484E+03  0.00000000000E+00 0.  1.
         21   -1    0    0  501  502 -0.00000000000E+00 -0.00000000000E+00 -0.89769054975E+03  0.89769054975E+03  0.00000000000E+00 0. -1.
         21    1    1    2  503  502  0.60405985753E+00 -0.36772254873E+02 -0.42181564165E+03  0.42341587022E+03  0.00000000000E+00 0. -1.
         21    1    1    2  504  503  0.20625644472E+03  0.10942236704E+03 -0.38777827907E+03  0.45264441797E+03  0.00000000000E+00 0.  1.
         21    1    1    2  505  506  0.41972235770E+02  0.36719409842E+02  0.49602340233E+02  0.74634950200E+02  0.00000000000E+00 0.  1.
         21    1    1    2  506  504 -0.24883274035E+03 -0.10936952201E+03  0.39380642557E+03  0.47850070620E+03  0.00000000000E+00 0.  1.
<scales pt_clust_3="36.77722" pt_clust_4="14000.00000" pt_clust_5="55.14627" pt_clust_6="223.96784"></scales>
<clustering>
<clus scale="   36.777">  2  3  1 -1</clus>
<clus scale="   55.146">  1  5  2 -1</clus>
<clus scale="  223.968">  1  6  2 -1</clus>
<clus scale="   55.146">  1  3  2 -1</clus>
</clustering>
</event>
<event>
 6    0  0.1344929E+003  0.8517103E+02  0.7546771E-02  0.1314986E+00
         21   -1    0    0  506  501  0.00000000000E+00  0.00000000000E+00  0.54410246859E+03  0.54410246859E+03  0.00000000000E+00 0. -1.
         21   -1    0    0  503  502 -0.00000000000E+00 -0.00000000000E+00 -0.91072158593E+03  0.91072158593E+03  0.00000000000E+00 0. -1.
         21    1    1    2  503  501  0.73697309346E+02  0.34150488146E+02  0.44243434050E+03  0.44982851721E+03  0.00000000000E+00 0. -1.
         21    1    1    2  504  505  0.15261217431E+02  0.59727663967E+02 -0.34153017268E+03  0.34704921474E+03  0.00000000000E+00 0. -1.
         21    1    1    2  505  502  0.40010728966E+02 -0.28671394548E+02 -0.50600555877E+03  0.50839407236E+03  0.00000000000E+00 0. -1.
         21    1    1    2  506  504 -0.12896925574E+03 -0.65206757565E+02  0.38482273614E+02  0.14955225021E+03  0.00000000000E+00 0.  1.
<scales pt_clust_3="85.17103" pt_clust_4="60.69480" pt_clust_5="49.22304" pt_clust_6="14000.00000"></scales>
<clustering>
<clus scale="   49.223">  2  5  1 -1</clus>
<clus scale="   60.695">  2  4  1 -1</clus>
<clus scale="   85.171">  1  3  2 -1</clus>
<clus scale="   85.171">  1  3  2 -1</clus>
</clustering>
</event>
<event>
 6    0  0.1344929E+003  0.1551370E+03  0.7546771E-02  0.1194299E+00
         21   -1    0    0  503  501  0.00000000000E+00  0.00000000000E+00  0.86048109912E+03  0.86048109912E+03  0.00000000000E+00 0.  1.
         21   -1    0    0  506  502 -0.00000000000E+00 -0.00000000000E+00 -0.41539736229E+03  0.41539736229E+03  0.00000000000E+00 0. -1.
         21    1    1    2  503  502 -0.96212120907E+02 -0.46616453940E+02  0.26922969943E+03  0.28967999076E+03  0.00000000000E+00 0.  1.
         21    1    1    2  504  505 -0.13707899781E+03  0.34291062365E+01 -0.20562122537E+03  0.24714873808E+03  0.00000000000E+00 0. -1.
         21    1    1    2  505  501  0.22590623480E+03 -0.39364214089E+02  0.52523477096E+03  0.57310970407E+03  0.00000000000E+00 0.  1.
         21    1    1    2  506  504  0.73848839194E+01  0.82551561792E+02 -0.14375950819E+03  0.16594002850E+03  0.00000000000E+00 0. -1.
<scales pt_clust_3="105.27407" pt_clust_4="155.13699" pt_clust_5="14000.00000" pt_clust_6="82.88122"></scales>
<clustering>
<clus scale="   82.881">  2  6  1 -1</clus>
<clus scale="  105.274">  1  3  2 -1</clus>
<clus scale="  155.137">  2  4  1 -1</clus>
<clus scale="  105.274">  1  3  2 -1</clus>
</clustering>
</event>
<event>
 6    0  0.1344929E+003  0.1178199E+03  0.7546771E-02  0.1246738E+00
         21   -1    0    0  505  501  0.00000000000E+00  0.00000000000E+00  0.56944659525E+03  0.56944659525E+03  0.00000000000E+00 0.  1.
         21   -1    0    0  504  502 -0.00000000000E+00 -0.00000000000E+00 -0.35806066565E+03  0.35806066565E+03  0.00000000000E+00 0. -1.
         21    1    1    2  503  502 -0.31788606127E+02  0.10196464680E+03 -0.10111185342E+03  0.14707451029E+03  0.00000000000E+00 0. -1.
         21    1    1    2  504  506  0.44803259947E+02 -0.79217530284E+01 -0.67764064672E+02  0.81621411001E+02  0.00000000000E+00 0. -1.
         21    1    1    2  505  503 -0.45311707491E+02  0.39489595566E+02  0.50780594369E+03  0.51135061889E+03  0.00000000000E+00 0.  1.
         21    1    1    2  506  501  0.32297053671E+02 -0.13353248934E+03 -0.12754409600E+03  0.18746072071E+03  0.00000000000E+00 0. -1.
<scales pt_clust_3="117.81988" pt_clust_4="45.49820" pt_clust_5="59.86111" pt_clust_6="14000.00000"></scales>
<clustering>
<clus scale="   45.498">  2  4  1 -1</clus>
<clus scale="   59.861">  1  5  2 -1</clus>
<clus scale="  117.820">  2  3  1 -1</clus>
<clus scale="   59.861">  1  3  2 -1</clus>
</clustering>
</event>
<event>
 6    0  0.1344929E+003  0.7419896E+02  0.7546771E-02  0.1346370E+00
         21   -1    0    0  505  501  0.00000000000E+00  0.00000000000E+00  0.77719438131E+03  0.77719438131E+03  0.00000000000E+00 0.  1.
         21   -1    0    0  503  502 -0.00000000000E+00 -0.00000000000E+00 -0.11503533903E+03  0.11503533903E+03  0.00000000000E+00 0.  1.
         21    1    1    2  503  504 -0.11104490314E+03  0.52464288860E+02 -0.26174106198E+02  0.12557291091E+03  0.00000000000E+00 0.  1.
         21    1    1    2  504  506 -0.19559520802E+02 -0.72745810627E+02  0.35821219051E+03  0.36604712982E+03  0.00000000000E+00 0.  1.
         21    1    1    2  505  502  0.61574861540E+02  0.45918818909E+01 -0.12532072274E+01  0.61758557960E+02  0.00000000000E+00 0.  1.
         21    1    1    2  506  501  0.69029562407E+02  0.15689639876E+02  0.33137416519E+03  0.33885112164E+03  0.00000000000E+00 0.  1.
<scales pt_clust_3="74.19896" pt_clust_4="14000.00000" pt_clust_5="61.74584" pt_clust_6="73.52417"></scales>
<clustering>
<clus scale="   61.746">  2  5  1 -1</clus>
<clus scale="   73.524">  1  6  2 -1</clus>
<clus scale="   74.199">  2  3  1 -1</clus>
<clus scale="   73.524">  1  3  2 -1</clus>
</clustering>
</event>
<event>
 6    0  0.1344929E+003  0.8293893E+02  0.7546771E-02  0.1320912E+00
         21   -1    0    0  504  501  0.00000000000E+00  0.00000000000E+00  0.31515111360E+03  0.31515111360E+03  0.00000000000E+00 0.  1.
         21   -1    0    0  506  502 -0.00000000000E+00 -0.00000000000E+00 -0.36276030229E+03  0.36276030229E+03  0.00000000000E+00 0.  1.
         21    1    1    2  503  505 -0.13023720336E+03  0.29142622138E+02 -0.88582168320E+02  0.16018059217E+03  0.00000000000E+00 0.  1.
         21    1    1    2  504  503  0.31444880485E+02  0.25588228416E+02  0.15157527774E+03  0.15690316365E+03  0.00000000000E+00 0.  1.
         21    1    1    2  505  502  0.66379524583E+02 -0.34935548114E+02 -0.22664094177E+03  0.23873175385E+03  0.00000000000E+00 0.  1.
         21    1    1    2  506  501  0.32412798289E+02 -0.19795302440E+02  0.11603864367E+03  0.12209590622E+03  0.00000000000E+00 0.  1.
<scales pt_clust_3="82.93893" pt_clust_4="57.81516" pt_clust_5="14000.00000" pt_clust_6="37.97951"></scales>
<clustering>
<clus scale="   37.980">  1  6  2 -1</clus>
<clus scale="   57.815">  1  4  2 -1</clus>
<clus scale="   82.939">  1  3  2 -1</clus>
<clus scale="   37.980">  1  3  2 -1</clus>
</clustering>
</event>
<event>
 6    0  0.1344929E+003  0.8622161E+02  0.7546771E-02  0.1312268E+00
         21   -1    0    0  505  501  0.00000000000E+00  0.00000000000E+00  0.15848613858E+03  0.15848613858E+03  0.00000000000E+00 0. -1.
         21   -1    0    0  504  502 -0.00000000000E+00 -0.00000000000E+00 -0.82467751554E+03  0.82467751554E+03  0.00000000000E+00 0.  1.
         21    1    1    2  503  506 -0.56782730690E+02 -0.52737877847E+02 -0.44720993748E+03  0.45387475194E+03  0.00000000000E+00 0.  1.
         21    1    1    2  504  503  0.31376777583E+02 -0.30355062710E+02 -0.32463769508E+03  0.32756001751E+03  0.00000000000E+00 0.  1.
         21    1    1    2  505  502  0.31897899613E+01  0.11712430940E+03  0.11018230593E+03  0.16083662254E+03  0.00000000000E+00 0. -1.
         21    1    1    2  506  501  0.22216163146E+02 -0.34031368840E+02 -0.45260503286E+01  0.40892262124E+02  0.00000000000E+00 0.  1.
<scales pt_clust_3="14000.00000" pt_clust_4="44.06979" pt_clust_5="86.22161" pt_clust_6="40.64101"></scales>
<clustering>
<clus scale="   40.641">  1  6  2 -1</clus>
<clus scale="   44.070">  2  4  1 -1</clus>
<clus scale="   86.222">  1  5  2 -1</clus>
<clus scale="   40.641">  1  3  2 -1</clus>
</clustering>
</event>
<event>
 6    0  0.1344929E+003  0.1321861E+03  0.7546771E-02  0.1224248E+00
         21   -1    0    0  505  501  0.00000000000E+00  0.00000000000E+00  0.85081146818E+02  0.85081146818E+02  0.00000000000E+00 0.  1.
         21   -1    0    0  504  502 -0.00000000000E+00 -0.00000000000E+00 -0.14160749612E+04  0.14160749612E+04  0.00000000000E+00 0.  1.
         21    1    1    2  503  501 -0.36471666289E+02 -0.27286506858E+02  0.52745304553E+02  0.69690767328E+02  0.00000000000E+00 0.  1.
         21    1    1    2  504  506  0.25420390465E+02  0.66224176210E+02 -0.45249279920E+03  0.45801918202E+03  0.00000000000E+00 0.  1.
         21    1    1    2  505  502 -0.12678905763E+03  0.12850268964E+02 -0.55428839190E+03  0.56874969534E+03  0.00000000000E+00 0.  1.
         21    1    1    2  506  503  0.13784033345E+03 -0.51787938316E+02 -0.37695792782E+03  0.40469646333E+03  0.00000000000E+00 0.  1.
<scales pt_clust_3="45.54927" pt_clust_4="66.53167" pt_clust_5="14000.00000" pt_clust_6="132.18606"></scales>
<clustering>
<clus scale="   45.549">  1  3  2 -1</clus>
<clus scale="   66.532">  2  4  1 -1</clus>
<clus scale="  132.186">  1  6  2 -1</clus>
<clus scale="   45.549">  1  3  2 -1</clus>
</clustering>
</event>
<event>
 6    0  0.1344929E+003  0.1052201E+03  0.7546771E-02  0.1269687E+00
         21   -1    0    0  505  501  0.00000000000E+00  0.00000000000E+00  0.58230661444E+03  0.58230661444E+03  0.00000000000E+00 0.  1.
         21   -1    0    0  504  502 -0.00000000000E+00 -0.00000000000E+00 -0.22068196433E+03  0.22068196433E+03  0.00000000000E+00 0.  1.
         21    1    1    2  503  501  0.19379610211E+02  0.22992250584E+02  0.33199390502E+03  0.33335291487E+03  0.00000000000E+00 0.  1.
         21    1    1    2  504  503  0.70168049202E+02  0.37583824966E+02  0.16090668167E+03  0.17951896622E+03  0.00000000000E+00 0. -1.
         21    1    1    2  505  506 -0.89788600048E+02 -0.14388518709E+03 -0.58233683988E+02  0.17932122494E+03  0.00000000000E+00 0.  1.
         21    1    1    2  506  502  0.24094063417E+00  0.83309111544E+02 -0.73042252587E+02  0.11079547275E+03  0.00000000000E+00 0.  1.
<scales pt_clust_3="30.07013" pt_clust_4="105.22005" pt_clust_5="14000.00000" pt_clust_6="85.06484"></scales>
<clustering>
<clus scale="   30.070">  1  3  2 -1</clus>
<clus scale="   85.065">  2  6  1 -1</clus>
<clus scale="  105.220">  1  4  2 -1</clus>
<clus scale="   30.070">  1  3  2 -1</clus>
</clustering>
</event>
<event>
 6    0  0.1344929E+003  0.1643261E+03  0.7546771E-02  0.1183897E+00
         21   -1    0    0  504  501  0.00000000000E+00  0.00000000000E+00  0.22796939521E+03  0.22796939521E+03  0.00000000000E+00 0. -1.
         21   -1    0    0  506  502 -0.00000000000E+00 -0.00000000000E+00 -0.20561373915E+03  0.20561373915E+03  0.00000000000E+00 0. -1.
         21    1    1    2  503  501  0.27493713812E+02 -0.33127113852E+02  0.11939306059E+02  0.44675015395E+02  0.00000000000E+00 0. -1.
         21    1    1    2  504  505 -0.43414639415E+02  0.14125947447E+03  0.83168649150E+02  0.16957621957E+03  0.00000000000E+00 0. -1.
         21    1    1    2  505  502  0.50454999852E+02  0.13294939198E+02 -0.77005375163E+02  0.93017687685E+02  0.00000000000E+00 0. -1.
         21    1    1    2  506  503 -0.34534074248E+02 -0.12142729981E+03  0.42530760127E+01  0.12631421171E+03  0.00000000000E+00 0. -1.
<scales pt_clust_3="41.45093" pt_clust_4="148.20455" pt_clust_5="52.17722" pt_clust_6="41.45093"></scales>
<clustering>
<clus scale="   41.451">  3  6 -1 -1</clus>
<clus scale="   52.177">  2  5  1 -1</clus>
<clus scale="  148.205">  1  4  2 -1</clus>
<clus scale="  148.205">  1  3  2 -1</clus>
</clustering>
</event>
<event>
 6    0  0.1344929E+003  0.1813267E+03  0.7546771E-02  0.1166525E+00
         21   -1    0    0  506  501  0.00000000000E+00  0.00000000000E+00  0.73931474647E+03  0.73931474647E+03  0.00000000000E+00 0. -1.
         21   -1    0    0  505  502 -0.00000000000E+00 -0.00000000000E+00 -0.52053226893E+03  0.52053226893E+03  0.00000000000E+00 0. -1.
         21    1    1    2  503  504 -0.23992319676E+03  0.54573312870E+02  0.16225253679E+03  0.29473254404E+03  0.00000000000E+00 0. -1.
         21    1    1    2  504  501  0.40391551055E+02 -0.83288618836E+02  0.47642088480E+03  0.48533012569E+03  0.00000000000E+00 0. -1.
         21    1    1    2  505  503  0.11299569522E+03  0.23302614758E+02 -0.11536982806E+03  0.16316015512E+03  0.00000000000E+00 0. -1.
         21    1    1    2  506  502  0.86535950486E+02  0.54126912083E+01 -0.30452111599E+03  0.31662419054E+03  0.00000000000E+00 0. -1.
<scales pt_clust_3="14000.00000" pt_clust_4="93.27938" pt_clust_5="181.32667" pt_clust_6="86.70506"></scales>
<clustering>
<clus scale="   86.705">  2  6  1 -1</clus>
<clus scale="   93.279">  1  4  2 -1</clus>
<clus scale="  181.327">  2  5  1 -1</clus>
<clus scale="   93.279">  1  3  2 -1</clus>
</clustering>
</event>
<event>
 6    0  0.1344929E+003  0.1162539E+03  0.7546771E-02  0.1249408E+00
         21   -1    0    0  504  501  0.00000000000E+00  0.00000000000E+00  0.12669941555E+04  0.12669941555E+04  0.00000000000E+00 0.  1.
         21   -1    0    0  505  502 -0.00000000000E+00 -0.00000000000E+00 -0.28206824364E+03  0.28206824364E+03  0.00000000000E+00 0.  1.
         21    1    1    2  503  506 -0.10571411590E+02  0.45995064634E+02  0.67079667572E+03  0.67245481698E+03  0.00000000000E+00 0.  1.
         21    1    1    2  504  503  0.31672229209E+02  0.54586891841E+01  0.15824529742E+03  0.16147600919E+03  0.00000000000E+00 0.  1.
         21    1    1    2  505  501  0.31650960836E+02 -0.11316813162E+03 -0.26320775105E+03  0.28824838169E+03  0.00000000000E+00 0.  1.
         21    1    1    2  506  502 -0.52751778456E+02  0.61714377799E+02  0.41909168975E+03  0.42688319126E+03  0.00000000000E+00 0.  1.
<scales pt_clust_3="50.05812" pt_clust_4="32.13919" pt_clust_5="116.25387" pt_clust_6="14000.00000"></scales>
<clustering>
<clus scale="   32.139">  1  4  2 -1</clus>
<clus scale="   50.058">  1  3  2 -1</clus>
<clus scale="  116.254">  2  5  1 -1</clus>
<clus scale="   32.139">  1  3  2 -1</clus>
</clustering>
</event>
<event>
 6    0  0.1344929E+003  0.7997644E+02  0.7546771E-02  0.1329118E+00
         21   -1    0    0  503  501  0.00000000000E+00  0.00000000000E+00  0.41882947175E+03  0.41882947175E+03  0.00000000000E+00 0.  1.
         21   -1    0    0  506  502 -0.00000000000E+00 -0.00000000000E+00 -0.36248353050E+03  0.36248353050E+03  0.00000000000E+00 0. -1.
         21    1    1    2  503  504 -0.41884713543E+02  0.18828234156E+02  0.11898566320E+03  0.12753987486E+03  0.00000000000E+00 0.  1.
         21    1    1    2  504  502 -0.55242697947E+02  0.54800350238E+02 -0.31318226590E+03  0.32270414583E+03  0.00000000000E+00 0. -1.
         21    1    1    2  505  501  0.15068536535E+02  0.30078277557E+02  0.17615377996E+03  0.17933744107E+03  0.00000000000E+00 0. -1.
         21    1    1    2  506  505  0.82058874955E+02 -0.10370686195E+03  0.74388763980E+02  0.15173154050E+03  0.00000000000E+00 0.  1.
<scales pt_clust_3="48.35707" pt_clust_4="14000.00000" pt_clust_5="33.64169" pt_clust_6="79.97644"></scales>
<clustering>
<clus scale="   33.642">  1  5  2 -1</clus>
<clus scale="   48.357">  1  3  2 -1</clus>
<clus scale="   79.976">  1  6  2 -1</clus>
<clus scale="   33.642">  1  3  2 -1</clus>
</clustering>
</event>
<event>
 6    0  0.1344929E+003  0.7218194E+02  0.7546771E-02  0.1352827E+00
         21   -1    0    0  506  501  0.00000000000E+00  0.00000000000E+00  0.12408162525E+03  0.12408162525E+03  0.00000000000E+00 0.  1.
         21   -1    0    0  504  502 -0.00000000000E+00 -0.00000000000E+00 -0.21912492158E+03  0.21912492158E+03  0.00000000000E+00 0.  1.
         21    1    1    2  503  502  0.93039146778E+02  0.28650176857E+02 -0.91473158871E+02  0.13358313614E+03  0.00000000000E+00 0.  1.
         21    1    1    2  504  505 -0.39253214288E+02 -0.27232851216E+02 -0.54276860141E+02  0.72307818139E+02  0.00000000000E+00 0.  1.
         21    1    1    2  505  501 -0.87863433765E+02 -0.16043345963E+02  0.27024274597E+02  0.93314968575E+02  0.00000000000E+00 0.  1.
         21    1    1    2  506  503  0.34077501275E+02  0.14626020322E+02  0.23682448084E+02  0.44000623982E+02  0.00000000000E+00 0. -1.
<scales pt_clust_3="72.18194" pt_clust_4="44.15094" pt_clust_5="14000.00000" pt_clust_6="37.08364"></scales>
<clustering>
<clus scale="   37.084">  1  6  2 -1</clus>
<clus scale="   44.151">  2  4  1 -1</clus>
<clus scale="   72.182">  2  3  1 -1</clus>
<clus scale="   37.084">  1  3  2 -1</clus>
</clustering>
</event>
<event>
 6    0  0.1344929E+003  0.8577221E+02  0.7546771E-02  0.1313425E+00
         21   -1    0    0  504  501  0.00000000000E+00  0.00000000000E+00  0.17237025788E+03  0.17237025788E+03  0.00000000000E+00 0. -1.
         21   -1    0    0  506  502 -0.00000000000E+00 -0.00000000000E+00 -0.17820737211E+03  0.17820737211E+03  0.00000000000E+00 0. -1.
         21    1    1    2  503  505 -0.71834037030E+02 -0.35467151738E+02  0.40704159244E+02  0.89860315536E+02  0.00000000000E+00 0. -1.
         21    1    1    2  504  502  0.68125482804E+02  0.84633159407E+02 -0.40698946580E+01  0.10872174171E+03  0.00000000000E+00 0. -1.
         21    1    1    2  505  501  0.36203319973E+02 -0.30366707252E+02  0.39660346614E+02  0.61690845187E+02  0.00000000000E+00 0.  1.
         21    1    1    2  506  503 -0.32494765747E+02 -0.18799300417E+02 -0.82131725427E+02  0.90304727554E+02  0.00000000000E+00 0.  1.
<scales pt_clust_3="14000.00000" pt_clust_4="85.77221" pt_clust_5="45.91300" pt_clust_6="37.54096"></scales>
<clustering>
<clus scale="   37.541">  2  6  1 -1</clus>
<clus scale="   45.913">  1  5  2 -1</clus>
<clus scale="   85.772">  2  4  1 -1</clus>
<clus scale="   45.913">  1  3  2 -1</clus>
</clustering>
</event>
<event>
 6    0  0.1344929E+003  0.6374930E+02  0.7546771E-02  0.1382739E+00
         21   -1    0    0  505  501  0.00000000000E+00  0.00000000000E+00  0.14249738445E+04  0.14249738445E+04  0.00000000000E+00 0. -1.
         21   -1    0    0  504  502 -0.00000000000E+00 -0.00000000000E+00 -0.24802458574E+02  0.24802458574E+02  0.00000000000E+00 0. -1.
         21    1    1    2  503  501 -0.50677570125E+02  0.95248264871E+01  0.22695366914E+03  0.23273784903E+03  0.00000000000E+00 0. -1.
         21    1    1    2  504  503  0.55721666586E+02 -0.97483158863E+02  0.33016275859E+03  0.34873387783E+03  0.00000000000E+00 0. -1.
         21    1    1    2  505  506 -0.51002803634E+01  0.31410152100E+02  0.79039027389E+03  0.79103059079E+03  0.00000000000E+00 0. -1.
         21    1    1    2  506  502  0.56183901881E-01  0.56548180276E+02  0.52664684299E+02  0.77273985412E+02  0.00000000000E+00 0. -1.
<scales pt_clust_3="56.53386" pt_clust_4="14000.00000" pt_clust_5="31.82154" pt_clust_6="63.74930"></scales>
<clustering>
<clus scale="   31.822">  1  5  2 -1</clus>
<clus scale="   56.534">  1  3  2 -1</clus>
<clus scale="   63.749">  2  6  1 -1</clus>
<clus scale="   31.822">  1  3  2 -1</clus>
</clustering>
</event>
<event>
 6    0  0.1344929E+003  0.1245184E+03  0.7546771E-02  0.1235824E+00
         21   -1    0    0  504  501  0.00000000000E+00  0.00000000000E+00  0.32660636009E+04  0.32660636009E+04  0.00000000000E+00 0. -1.
         21   -1    0    0  505  502 -0.00000000000E+00 -0.00000000000E+00 -0.21949004255E+02  0.21949004255E+02  0.00000000000E+00 0. -1.
         21    1    1    2  503  506 -0.15670660251E+03 -0.16616049071E+02  0.77335911016E+03  0.78925114230E+03  0.00000000000E+00 0. -1.
         21    1    1    2  504  502 -0.46471453571E+02 -0.57375998550E+02  0.99968036634E+03  0.10024033300E+04  0.00000000000E+00 0. -1.
         21    1    1    2  505  503  0.11103000937E+03  0.76283291891E+01  0.30328675951E+03  0.32306146920E+03  0.00000000000E+00 0. -1.
         21    1    1    2  506  501  0.92148046706E+02  0.66363718432E+02  0.11677883606E+04  0.11732966636E+04  0.00000000000E+00 0. -1.
<scales pt_clust_3="14000.00000" pt_clust_4="73.83496" pt_clust_5="124.51838" pt_clust_6="77.39359"></scales>
<clustering>
<clus scale="   73.835">  1  4  2 -1</clus>
<clus scale="   77.394">  1  6  2 -1</clus>
<clus scale="  124.518">  2  5  1 -1</clus>
<clus scale="   73.835">  1  3  2 -1</clus>
</clustering>
</event>
<event>
 6    0  0.1344929E+003  0.1994445E+03  0.7546771E-02  0.1150208E+00
         21   -1    0    0  502  501  0.00000000000E+00  0.00000000000E+00  0.99622105787E+03  0.99622105787E+03  0.00000000000E+00 0.  1.
         21   -1    0    0  504  502 -0.00000000000E+00 -0.00000000000E+00 -0.37057224205E+03  0.37057224205E+03  0.00000000000E+00 0.  1.
         21    1    1    2  503  505 -0.54539839456E+01  0.47013619518E+02 -0.11806465589E+03  0.12719783541E+03  0.00000000000E+00 0. -1.
         21    1    1    2  504  503  0.36043906153E+02  0.82718240729E+01 -0.59752324820E+02  0.70270381853E+02  0.00000000000E+00 0. -1.
         21    1    1    2  505  506 -0.18904826433E+02  0.13531034976E+03 -0.14652123826E+03  0.20033660792E+03  0.00000000000E+00 0.  1.
         21    1    1    2  506  501 -0.11685095775E+02 -0.19059579335E+03  0.94998703479E+03  0.96898847473E+03  0.00000000000E+00 0.  1.
<scales pt_clust_3="34.50921" pt_clust_4="36.98089" pt_clust_5="34.50921" pt_clust_6="190.63155"></scales>
<clustering>
<clus scale="   34.509">  3  5 -1 -1</clus>
<clus scale="   36.981">  2  4  1 -1</clus>
<clus scale="  190.632">  1  6  2 -1</clus>
<clus scale="  190.632">  1  3  2 -1</clus>
</clustering>
</event>
<event>
 6    0  0.1344929E+003  0.7225623E+02  0.7546771E-02  0.1352584E+00
         21   -1    0    0  503  501  0.00000000000E+00  0.00000000000E+00  0.83701183099E+02  0.83701183099E+02  0.00000000000E+00 0. -1.
         21   -1    0    0  504  502 -0.00000000000E+00 -0.00000000000E+00 -0.73974172374E+03  0.73974172374E+03  0.00000000000E+00 0. -1.
         21    1    1    2  503  502  0.40430496050E+02  0.35173177331E+02 -0.50991853715E+01  0.53831023637E+02  0.00000000000E+00 0. -1.
         21    1    1    2  504  505 -0.25210037299E+02  0.44693751156E+02 -0.33104874191E+03  0.33500201028E+03  0.00000000000E+00 0. -1.
         21    1    1    2  505  506  0.52838182107E+02 -0.21892169673E+01 -0.32684983839E+03  0.33110041228E+03  0.00000000000E+00 0. -1.
         21    1    1    2  506  501 -0.68058640858E+02 -0.77677711519E+02  0.69572250246E+01  0.10350946064E+03  0.00000000000E+00 0. -1.
<scales pt_clust_3="14000.00000" pt_clust_4="51.31352" pt_clust_5="46.97011" pt_clust_6="72.25623"></scales>
<clustering>
<clus scale="   51.314">  2  4  1 -1</clus>
<clus scale="   46.970">  2  5  1 -1</clus>
<clus scale="   72.256">  2  6  1 -1</clus>
<clus scale="   72.256">  1  3  2 -1</clus>
</clustering>
</event>
<event>
 6    0  0.1344929E+003  0.8648771E+02  0.7546771E-02  0.1311587E+00
         21   -1    0    0  504  501  0.00000000000E+00  0.00000000000E+00  0.93122852204E+01  0.93122852204E+01  0.00000000000E+00 0.  1.
         21   -1    0    0  505  502 -0.00000000000E+00 -0.00000000000E+00 -0.20333075844E+04  0.20333075844E+04  0.00000000000E+00 0.  1.
         21    1    1    2  503  506 -0.18804850209E+02  0.10146171007E+03 -0.60547294414E+03  0.61420321319E+03  0.00000000000E+00 0.  1.
         21    1    1    2  504  503  0.31536254955E+02  0.62871617490E+01 -0.22906156453E+03  0.23130772604E+03  0.00000000000E+00 0.  1.
         21    1    1    2  505  501 -0.27155961432E+02 -0.74991116100E+02 -0.46697158334E+03  0.47373365237E+03  0.00000000000E+00 0.  1.
         21    1    1    2  506  502  0.14424556686E+02 -0.32757755715E+02 -0.72248920714E+03  0.72337527801E+03  0.00000000000E+00 0.  1.
<scales pt_clust_3="14000.00000" pt_clust_4="32.15686" pt_clust_5="86.48771" pt_clust_6="36.20912"></scales>
<clustering>
<clus scale="   32.157">  1  4  2 -1</clus>
<clus scale="   36.209">  2  6  1 -1</clus>
<clus scale="   86.488">  1  5  2 -1</clus>
<clus scale="   32.157">  1  3  2 -1</clus>
</clustering>
</event>
<event>
 6    0  0.1344929E+003  0.6895762E+02  0.7546771E-02  0.1363674E+00
         21   -1    0    0  504  501  0.00000000000E+00  0.00000000000E+00  0.51455018282E+03  0.51455018282E+03  0.00000000000E+00 0.  1.
         21   -1    0    0  505  502 -0.00000000000E+00 -0.00000000000E+00 -0.23672450981E+03  0.23672450981E+03  0.00000000000E+00 0.  1.
         21    1    1    2  503  501 -0.64714318334E+02  0.92628800693E+02  0.44013072662E+03  0.45440410895E+03  0.00000000000E+00 0.  1.
         21    1    1    2  504  502  0.39178806681E+02 -0.27663008909E+02  0.37430789585E+02  0.60838186723E+02  0.00000000000E+00 0. -1.
         21    1    1    2  505  506 -0.38958527927E+02 -0.41825872762E+02 -0.86496557620E+02  0.10367654031E+03  0.00000000000E+00 0.  1.
         21    1    1    2  506  503  0.64494039579E+02 -0.23139919022E+02 -0.11323928557E+03  0.13235585665E+03  0.00000000000E+00 0.  1.
<scales pt_clust_3="68.95762" pt_clust_4="47.96062" pt_clust_5="57.04666" pt_clust_6="14000.00000"></scales>
<clustering>
<clus scale="   47.961">  1  4  2 -1</clus>
<clus scale="   57.047">  2  5  1 -1</clus>
<clus scale="   68.958">  1  3  2 -1</clus>
<clus scale="   47.961">  1  3  2 -1</clus>
</clustering>
</event>
<event>
 6    0  0.1344929E+003  0.1889035E+03  0.7546771E-02  0.1159454E+00
         21   -1    0    0  504  501  0.00000000000E+00  0.00000000000E+00  0.38604069956E+03  0.38604069956E+03  0.00000000000E+00 0. -1.
         21   -1    0    0  503  502 -0.00000000000E+00 -0.00000000000E+00 -0.26864174661E+03  0.26864174661E+03  0.00000000000E+00 0. -1.
         21    1    1    2  503  501  0.47912922709E+02  0.20423681535E+03 -0.39458343610E+02  0.21346026747E+03  0.00000000000E+00 0. -1.
         21    1    1    2  504  505  0.45319919164E+02 -0.71643314916E+02  0.23520367345E+03  0.25001485486E+03  0.00000000000E+00 0. -1.
         21    1    1    2  505  506 -0.29904795888E+02 -0.77849875668E+02 -0.11711686798E+02  0.84214390494E+02  0.00000000000E+00 0. -1.
         21    1    1    2  506  502 -0.63328045986E+02 -0.54743624770E+02 -0.66634690093E+02  0.10699293334E+03  0.00000000000E+00 0. -1.
<scales pt_clust_3="177.58331" pt_clust_4="84.77417" pt_clust_5="64.28953" pt_clust_6="64.28953"></scales>
<clustering>
<clus scale="   64.290">  5  6 -1 -1</clus>
<clus scale="   84.774">  1  4  2 -1</clus>
<clus scale="  177.583">  1  3  2 -1</clus>
<clus scale="   84.774">  1  3  2 -1</clus>
</clustering>
</event>
<event>
 6    0  0.1344929E+003  0.1243255E+03  0.7546771E-02  0.1236127E+00
         21   -1    0    0  505  501  0.00000000000E+00  0.00000000000E+00  0.41977851949E+02  0.41977851949E+02  0.00000000000E+00 0. -1.
         21   -1    0    0  503  502 -0.00000000000E+00 -0.00000000000E+00 -0.11895697250E+04  0.11895697250E+04  0.00000000000E+00 0.  1.
         21    1    1    2  503  506  0.60915994859E+02 -0.97946137587E+02 -0.99229483418E+03  0.99897609693E+03  0.00000000000E+00 0.  1.
         21    1    1    2  504  501 -0.19247797759E+02  0.62928805439E+02 -0.17656546227E+02  0.68134175692E+02  0.00000000000E+00 0. -1.
         21    1    1    2  505  502 -0.25589159592E+02 -0.18089510868E+02 -0.71752960938E+02  0.78297655747E+02  0.00000000000E+00 0.  1.
         21    1    1    2  506  504 -0.16079037507E+02  0.53106843016E+02 -0.65887531690E+02  0.86139648562E+02  0.00000000000E+00 0. -1.
<scales pt_clust_3="115.53479" pt_clust_4="42.47226" pt_clust_5="31.33745" pt_clust_6="42.47226"></scales>
<clustering>
<clus scale="   31.337">  1  5  2 -1</clus>
<clus scale="   42.472">  4  6 -1 -1</clus>
<clus scale="  115.535">  2  3  1 -1</clus>
<clus scale="   31.337">  1  3  2 -1</clus>
</clustering>
</event>
<event>
 6    0  0.1344929E+003  0.7749684E+02  0.7546771E-02  0.1336309E+00
         21   -1    0    0  505  501  0.00000000000E+00  0.00000000000E+00  0.18204622902E+03  0.18204622902E+03  0.00000000000E+00 0.  1.
         21   -1    0    0  503  502 -0.00000000000E+00 -0.00000000000E+00 -0.20939442893E+03  0.20939442893E+03  0.00000000000E+00 0.  1.
         21    1    1    2  503  504 -0.39803722232E+02  0.10366449966E+03 -0.42119568392E+02  0.11876330592E+03  0.00000000000E+00 0.  1.
         21    1    1    2  504  501 -0.21546898786E+02 -0.22231924884E+02  0.88750448695E+02  0.93995582209E+02  0.00000000000E+00 0. -1.
         21    1    1    2  505  506  0.62108748226E+02 -0.12546207263E+02  0.16006203647E+02  0.65353672261E+02  0.00000000000E+00 0.  1.
         21    1    1    2  506  502 -0.75812720866E+00 -0.68886367510E+02 -0.89985283853E+02  0.11332809756E+03  0.00000000000E+00 0.  1.
<scales pt_clust_3="14000.00000" pt_clust_4="30.96009" pt_clust_5="57.07293" pt_clust_6="77.49684"></scales>
<clustering>
<clus scale="   30.960">  1  4  2 -1</clus>
<clus scale="   57.073">  1  5  2 -1</clus>
<clus scale="   77.497">  2  6  1 -1</clus>
<clus scale="   30.960">  1  3  2 -1</clus>
</clustering>
</event>
<event>
 6    0  0.1344929E+003  0.1278457E+03  0.7546771E-02  0.1230688E+00
         21   -1    0    0  503  501  0.00000000000E+00  0.00000000000E+00  0.94527226366E+03  0.94527226366E+03  0.00000000000E+00 0. -1.
         21   -1    0    0  505  502 -0.00000000000E+00 -0.00000000000E+00 -0.88768107838E+03  0.88768107838E+03  0.00000000000E+00 0. -1.
         21    1    1    2  503  506 -0.65027672315E+02  0.19842549268E+02  0.76733921230E+03  0.77034524186E+03  0.00000000000E+00 0. -1.
         21    1    1    2  504  501 -0.69863379218E+02  0.46781874020E+00  0.14038537922E+03  0.15680932788E+03  0.00000000000E+00 0. -1.
         21    1    1    2  505  504  0.18430615768E+03  0.36588796896E+02 -0.78181903063E+03  0.80408239408E+03  0.00000000000E+00 0. -1.
         21    1    1    2  506  502 -0.49415106147E+02 -0.56899164905E+02 -0.68314375611E+02  0.10171637822E+03  0.00000000000E+00 0. -1.
<scales pt_clust_3="67.98768" pt_clust_4="14000.00000" pt_clust_5="127.84568" pt_clust_6="78.20099"></scales>
<clustering>
<clus scale="   67.988">  1  3  2 -1</clus>
<clus scale="   78.201">  2  6  1 -1</clus>
<clus scale="  127.846">  2  5  1 -1</clus>
<clus scale="   67.988">  1  3  2 -1</clus>
</clustering>
</event>
<event>
 6    0  0.1344929E+003  0.8052470E+02  0.7546771E-02  0.1327569E+00
         21   -1    0    0  506  501  0.00000000000E+00  0.00000000000E+00  0.12372888104E+03  0.12372888104E+03  0.00000000000E+00 0.  1.
         21   -1    0    0  505  502 -0.00000000000E+00 -0.00000000000E+00 -0.38045277750E+03  0.38045277750E+03  0.00000000000E+00 0.  1.
         21    1    1    2  503  502  0.75352586450E+02  0.13250028649E+03 -0.93718291204E+02  0.17893422342E+03  0.00000000000E+00 0.  1.
         21    1    1    2  504  501 -0.44353613896E+01 -0.36882231517E+02  0.41283913506E+02  0.55536771122E+02  0.00000000000E+00 0.  1.
         21    1    1    2  505  504 -0.94509963978E+01 -0.70280580801E+02 -0.18847198087E+03  0.20137122174E+03  0.00000000000E+00 0.  1.
         21    1    1    2  506  503 -0.61466228662E+02 -0.25337474170E+02 -0.15817537894E+02  0.68339442260E+02  0.00000000000E+00 0.  1.
<scales pt_clust_3="14000.00000" pt_clust_4="37.14797" pt_clust_5="80.52470" pt_clust_6="73.68589"></scales>
<clustering>
<clus scale="   37.148">  1  4  2 -1</clus>
<clus scale="   73.686">  1  6  2 -1</clus>
<clus scale="   80.525">  2  5  1 -1</clus>
<clus scale="   37.148">  1  3  2 -1</clus>
</clustering>
</event>
<event>
 6    0  0.1344929E+003  0.1155947E+03  0.7546771E-02  0.1250547E+00
         21   -1    0    0  506  501  0.00000000000E+00  0.00000000000E+00  0.89805919994E+03  0.89805919994E+03  0.00000000000E+00 0. -1.
         21   -1    0    0  505  502 -0.00000000000E+00 -0.00000000000E+00 -0.71410935070E+03  0.71410935070E+03  0.00000000000E+00 0.  1.
         21    1    1    2  503  504 -0.15810894202E+03 -0.97973380256E+01  0.66583735446E+02  0.17183660612E+03  0.00000000000E+00 0. -1.
         21    1    1    2  504  501  0.43658739780E+02  0.24210222747E+02  0.73789906178E+03  0.73958586102E+03  0.00000000000E+00 0. -1.
         21    1    1    2  505  503  0.87502613540E+02  0.35283584259E+01 -0.86417480483E+01  0.87999071011E+02  0.00000000000E+00 0. -1.
         21    1    1    2  506  502  0.26947588698E+02 -0.17941243147E+02 -0.61189119994E+03  0.61274701249E+03  0.00000000000E+00 0.  1.
<scales pt_clust_3="115.59474" pt_clust_4="50.04588" pt_clust_5="14000.00000" pt_clust_6="32.37377"></scales>
<clustering>
<clus scale="   32.374">  2  6  1 -1</clus>
<clus scale="   50.046">  1  4  2 -1</clus>
<clus scale="  115.595">  1  3  2 -1</clus>
<clus scale="   50.046">  1  3  2 -1</clus>
</clustering>
</event>
<event>
 6    0  0.1344929E+003  0.1233446E+03  0.7546771E-02  0.1237679E+00
         21   -1    0    0  506  501  0.00000000000E+00  0.00000000000E+00  0.23272333095E+03  0.23272333095E+03  0.00000000000E+00 0.  1.
         21   -1    0    0  505  502 -0.00000000000E+00 -0.00000000000E+00 -0.13567481380E+03  0.13567481380E+03  0.00000000000E+00 0.  1.
         21    1    1    2  503  502  0.44216801338E+01  0.37898585472E+02 -0.31063320858E+02  0.49201462770E+02  0.00000000000E+00 0.  1.
         21    1    1    2  504  503  0.13034606685E+02  0.70449610655E+02  0.41661839915E+01  0.71766327076E+02  0.00000000000E+00 0.  1.
         21    1    1    2  505  501  0.49049318253E+02 -0.13219494801E+03  0.64310031665E+02  0.15497457880E+03  0.00000000000E+00 0.  1.
         21    1    1    2  506  504 -0.66505605072E+02  0.23846751887E+02  0.59635622349E+02  0.92455776101E+02  0.00000000000E+00 0.  1.
<scales pt_clust_3="31.52145" pt_clust_4="31.52145" pt_clust_5="115.53434" pt_clust_6="70.65170"></scales>
<clustering>
<clus scale="   31.521">  3  4 -1 -1</clus>
<clus scale="   70.652">  1  6  2 -1</clus>
<clus scale="  115.534">  1  5  2 -1</clus>
<clus scale="   70.652">  1  3  2 -1</clus>
</clustering>
</event>
<event>
 6    0  0.1344929E+003  0.1320500E+03  0.7546771E-02  0.1224445E+00
         21   -1    0    0  505  501  0.00000000000E+00  0.00000000000E+00  0.44934102133E+03  0.44934102133E+03  0.00000000000E+00 0.  1.
         21   -1    0    0  503  502 -0.00000000000E+00 -0.00000000000E+00 -0.24603523405E+03  0.24603523405E+03  0.00000000000E+00 0.  1.
         21    1    1    2  503  504  0.32258205709E+02  0.89395934240E+01 -0.10793007365E+03  0.11300180956E+03  0.00000000000E+00 0.  1.
         21    1    1    2  504  501  0.32707796936E+02 -0.32200154517E+02  0.50428768414E+02  0.68188786579E+02  0.00000000000E+00 0.  1.
         21    1    1    2  505  506 -0.27874387901E+02 -0.10438125403E+03  0.34184305711E+03  0.35850955829E+03  0.00000000000E+00 0.  1.
         21    1    1    2  506  502 -0.37091614744E+02  0.12764181512E+03 -0.81035964595E+02  0.15567610096E+03  0.00000000000E+00 0.  1.
<scales pt_clust_3="33.47399" pt_clust_4="47.03157" pt_clust_5="14000.00000" pt_clust_6="132.04999"></scales>
<clustering>
<clus scale="   33.474">  2  3  1 -1</clus>
<clus scale="   47.032">  1  4  2 -1</clus>
<clus scale="  132.050">  2  6  1 -1</clus>
<clus scale="   47.032">  1  3  2 -1</clus>
</clustering>
</event>
<event>
 6    0  0.1344929E+003  0.2157324E+03  0.7546771E-02  0.1137105E+00
         21   -1    0    0  505  501  0.00000000000E+00  0.00000000000E+00  0.72604497712E+02  0.72604497712E+02  0.00000000000E+00 0.  1.
         21   -1    0    0  503  502 -0.00000000000E+00 -0.00000000000E+00 -0.23908219673E+04  0.23908219673E+04  0.00000000000E+00 0.  1.
         21    1    1    2  503  501 -0.15763357377E+03 -0.88950773794E+02 -0.10221282814E+03  0.20786545161E+03  0.00000000000E+00 0.  1.
         21    1    1    2  504  502  0.30896792045E+02 -0.31875245064E+02 -0.76231341591E+03  0.76360486319E+03  0.00000000000E+00 0.  1.
         21    1    1    2  505  506 -0.69865182520E+02  0.54748753050E+02 -0.17160562715E+03  0.19320212462E+03  0.00000000000E+00 0. -1.
         21    1    1    2  506  504  0.19660196424E+03  0.66077265808E+02 -0.12820855984E+04  0.12987540256E+04  0.00000000000E+00 0.  1.
<scales pt_clust_3="215.73237" pt_clust_4="44.39193" pt_clust_5="83.83600" pt_clust_6="14000.00000"></scales>
<clustering>
<clus scale="   44.392">  2  4  1 -1</clus>
<clus scale="   83.836">  1  5  2 -1</clus>
<clus scale="  215.732">  1  3  2 -1</clus>
<clus scale="   83.836">  1  3  2 -1</clus>
</clustering>
</event>
<event>
 6    0  0.1344929E+003  0.1109136E+03  0.7546771E-02  0.1258887E+00
         21   -1    0    0  504  501  0.00000000000E+00  0.00000000000E+00  0.25093042491E+03  0.25093042491E+03  0.00000000000E+00 0. -1.
         21   -1    0    0  501  502 -0.00000000000E+00 -0.00000000000E+00 -0.23532076193E+03  0.23532076193E+03  0.00000000000E+00 0.  1.
         21    1    1    2  503  506  0.53256960523E+02 -0.98048904327E+02  0.13163525759E+03  0.17256225695E+03  0.00000000000E+00 0. -1.
         21    1    1    2  504  503 -0.60324899749E+02 -0.91877482609E+01  0.72299957946E+02  0.94608626282E+02  0.00000000000E+00 0. -1.
         21    1    1    2  505  502  0.13465300818E+02  0.51477628158E+02 -0.11523870196E+03  0.12692997659E+03  0.00000000000E+00 0.  1.
         21    1    1    2  506  505 -0.63973615909E+01  0.55759024430E+02 -0.73086850597E+02  0.92150327026E+02  0.00000000000E+00 0. -1.
<scales pt_clust_3="106.40404" pt_clust_4="61.02056" pt_clust_5="30.48125" pt_clust_6="30.48125"></scales>
<clustering>
<clus scale="   30.481">  5  6 -1 -1</clus>
<clus scale="   61.021">  1  4  2 -1</clus>
<clus scale="  106.404">  1  3  2 -1</clus>
<clus scale="   61.021">  1  3  2 -1</clus>
</clustering>
</event>
<event>
 6    0  0.1344929E+003  0.9840911E+02  0.7546771E-02  0.1283677E+00
         21   -1    0    0  504  501  0.00000000000E+00  0.00000000000E+00  0.12302857257E+04  0.12302857257E+04  0.00000000000E+00 0. -1.
         21   -1    0    0  503  502 -0.00000000000E+00 -0.00000000000E+00 -0.27022965374E+03  0.27022965374E+03  0.00000000000E+00 0. -1.
         21    1    1    2  503  501  0.16569971410E+02 -0.34374721912E+02  0.11193969832E+04  0.11200472273E+04  0.00000000000E+00 0. -1.
         21    1    1    2  504  506  0.32448350167E+02 -0.83841176834E+02  0.47894019447E+02  0.10186302303E+03  0.00000000000E+00 0. -1.
         21    1    1    2  505  502 -0.31298186969E+02  0.28063519718E+02 -0.17693532228E+03  0.18186051225E+03  0.00000000000E+00 0. -1.
         21    1    1    2  506  505 -0.17720134609E+02  0.90152379028E+02 -0.30299608414E+02  0.96744616827E+02  0.00000000000E+00 0. -1.
<scales pt_clust_3="38.16000" pt_clust_4="14000.00000" pt_clust_5="41.25270" pt_clust_6="98.40911"></scales>
<clustering>
<clus scale="   38.160">  1  3  2 -1</clus>
<clus scale="   41.253">  2  5  1 -1</clus>
<clus scale="   98.409">  2  6  1 -1</clus>
<clus scale="   38.160">  1  3  2 -1</clus>
</clustering>
</event>
<event>
 6    0  0.1344929E+003  0.5878930E+02  0.7546771E-02  0.1402984E+00
         21   -1    0    0  502  501  0.00000000000E+00  0.00000000000E+00  0.34458938484E+03  0.34458938484E+03  0.00000000000E+00 0.  1.
         21   -1    0    0  504  502 -0.00000000000E+00 -0.00000000000E+00 -0.43841253545E+03  0.43841253545E+03  0.00000000000E+00 0. -1.
         21    1    1    2  503  501  0.53419580423E+02  0.12605776869E+02  0.16657709515E+03  0.17538667513E+03  0.00000000000E+00 0.  1.
         21    1    1    2  504  505 -0.24588807761E+02 -0.33256613064E+02 -0.35635095215E+03  0.35874310151E+03  0.00000000000E+00 0. -1.
         21    1    1    2  505  506  0.23410372998E+02  0.83694344522E+02 -0.35606059166E+02  0.93917944601E+02  0.00000000000E+00 0.  1.
         21    1    1    2  506  503 -0.52241145660E+02 -0.63043508327E+02  0.13155676555E+03  0.15495419905E+03  0.00000000000E+00 0.  1.
<scales pt_clust_3="53.18708" pt_clust_4="41.35954" pt_clust_5="58.78930" pt_clust_6="14000.00000"></scales>
<clustering>
<clus scale="   41.360">  2  4  1 -1</clus>
<clus scale="   53.187">  1  3  2 -1</clus>
<clus scale="   58.789">  2  5  1 -1</clus>
<clus scale="   53.187">  1  3  2 -1</clus>
</clustering>
</event>
<event>
 6    0  0.1344929E+003  0.1119685E+03  0.7546771E-02  0.1256967E+00
         21   -1    0    0  503  501  0.00000000000E+00  0.00000000000E+00  0.93955400798E+03  0.93955400798E+03  0.00000000000E+00 0. -1.
         21   -1    0    0  505  502 -0.00000000000E+00 -0.00000000000E+00 -0.12444168779E+03  0.12444168779E+03  0.00000000000E+00 0.  1.
         21    1    1    2  503  506 -0.11026988539E+03 -0.52711480454E+02  0.26898594642E+03  0.29545115868E+03  0.00000000000E+00 0. -1.
         21    1    1    2  504  501  0.23003658614E+02  0.39565623165E+02  0.37428208153E+03  0.37706986541E+03  0.00000000000E+00 0. -1.
         21    1    1    2  505  504  0.94869961900E+02  0.44887355036E+02  0.26912423564E+03  0.28886508706E+03  0.00000000000E+00 0. -1.
         21    1    1    2  506  502 -0.76037351282E+01 -0.31741497748E+02 -0.97279943406E+02  0.10260958462E+03  0.00000000000E+00 0.  1.
<scales pt_clust_3="111.96852" pt_clust_4="43.99126" pt_clust_5="14000.00000" pt_clust_6="32.63954"></scales>
<clustering>
<clus scale="   32.640">  2  6  1 -1</clus>
<clus scale="   43.991">  1  4  2 -1</clus>
<clus scale="  111.969">  1  3  2 -1</clus>
<clus scale="   43.991">  1  3  2 -1</clus>
</clustering>
</event>
<event>
 6    0  0.1344929E+003  0.1027483E+03  0.7546771E-02  0.1274621E+00
         21   -1    0    0  503  501  0.00000000000E+00  0.00000000000E+00  0.34948534445E+03  0.34948534445E+03  0.00000000000E+00 0. -1.
         21   -1    0    0  506  502 -0.00000000000E+00 -0.00000000000E+00 -0.62911486892E+03  0.62911486892E+03  0.00000000000E+00 0.  1.
         21    1    1    2  503  502  0.16116323611E+03  0.65065993458E+02  0.25073144040E+03  0.30507937882E+03  0.00000000000E+00 0. -1.
         21    1    1    2  504  505 -0.10121085400E+02 -0.32351875779E+02 -0.12089362963E+03  0.12555616241E+03  0.00000000000E+00 0.  1.
         21    1    1    2  505  501 -0.97706638435E+02  0.84090950158E+00  0.31388634384E+02  0.10262816715E+03  0.00000000000E+00 0. -1.
         21    1    1    2  506  504 -0.53335512271E+02 -0.33555027180E+02 -0.44085596963E+03  0.44533650499E+03  0.00000000000E+00 0.  1.
<scales pt_clust_3="92.58428" pt_clust_4="32.68085" pt_clust_5="97.71026" pt_clust_6="32.68085"></scales>
<clustering>
<clus scale="   32.681">  4  6 -1 -1</clus>
<clus scale="   97.710">  1  5  2 -1</clus>
<clus scale="   92.584">  1  3  2 -1</clus>
<clus scale="   97.710">  1  3  2 -1</clus>
</clustering>
</event>
<event>
 6    0  0.1344929E+003  0.1522308E+03  0.7546771E-02  0.1197758E+00
         21   -1    0    0  504  501  0.00000000000E+00  0.00000000000E+00  0.14967003866E+02  0.14967003866E+02  0.00000000000E+00 0.  1.
         21   -1    0    0  506  502 -0.00000000000E+00 -0.00000000000E+00 -0.30340986778E+04  0.30340986778E+04  0.00000000000E+00 0. -1.
         21    1    1    2  503  501 -0.61076092924E+02 -0.59317815406E+02 -0.11410217406E+04  0.11441938232E+04  0.00000000000E+00 0. -1.
         21    1    1    2  504  505  0.22803553245E+02 -0.26807226296E+02 -0.32502328416E+02  0.47906479465E+02  0.00000000000E+00 0.  1.
         21    1    1    2  505  502  0.10762855496E+03  0.80240396833E+02 -0.11161775323E+04  0.11242218245E+04  0.00000000000E+00 0.  1.
         21    1    1    2  506  503 -0.69356015277E+02  0.58846448691E+01 -0.72943007265E+03  0.73274355458E+03  0.00000000000E+00 0. -1.
<scales pt_clust_3="57.53178" pt_clust_4="35.19417" pt_clust_5="136.88650" pt_clust_6="57.53178"></scales>
<clustering>
<clus scale="   35.194">  1  4  2 -1</clus>
<clus scale="   57.532">  3  6 -1 -1</clus>
<clus scale="  136.887">  1  5  2 -1</clus>
<clus scale="   35.194">  1  3  2 -1</clus>
</clustering>
</event>
<event>
 6    0  0.1344929E+003  0.8123682E+02  0.7546771E-02  0.1325578E+00
         21   -1    0    0  503  501  0.00000000000E+00  0.00000000000E+00  0.17158635088E+04  0.17158635088E+04  0.00000000000E+00 0. -1.
         21   -1    0    0  504  502 -0.00000000000E+00 -0.00000000000E+00 -0.19286824602E+02  0.19286824602E+02  0.00000000000E+00 0. -1.
         21    1    1    2  503  505 -0.93625823078E+02  0.13221534793E+02  0.10074439040E+04  0.10118714461E+04  0.00000000000E+00 0. -1.
         21    1    1    2  504  506  0.80852254772E+02 -0.87090455286E+01  0.15195393745E+03  0.17234539067E+03  0.00000000000E+00 0. -1.
         21    1    1    2  505  502 -0.46571055132E+01  0.36698643865E+02  0.52671440909E+02  0.64364274102E+02  0.00000000000E+00 0. -1.
         21    1    1    2  506  501  0.17430673819E+02 -0.41211133129E+02  0.48450740182E+03  0.48656922251E+03  0.00000000000E+00 0. -1.
<scales pt_clust_3="14000.00000" pt_clust_4="81.23682" pt_clust_5="36.99296" pt_clust_6="42.02114"></scales>
<clustering>
<clus scale="   36.993">  2  5  1 -1</clus>
<clus scale="   42.021">  1  6  2 -1</clus>
<clus scale="   81.237">  2  4  1 -1</clus>
<clus scale="   42.021">  1  3  2 -1</clus>
</clustering>
</event>
<event>
 6    0  0.1344929E+003  0.1162123E+03  0.7546771E-02  0.1249480E+00
         21   -1    0    0  506  501  0.00000000000E+00  0.00000000000E+00  0.14037186508E+03  0.14037186508E+03  0.00000000000E+00 0. -1.
         21   -1    0    0  505  502 -0.00000000000E+00 -0.00000000000E+00 -0.34372660927E+03  0.34372660927E+03  0.00000000000E+00 0. -1.
         21    1    1    2  503  501 -0.64611966577E+02  0.28973416696E+02  0.17093822686E+02  0.72844793047E+02  0.00000000000E+00 0. -1.
         21    1    1    2  504  503 -0.81919633597E+02 -0.33110353647E+02 -0.70673746970E+02  0.11314548333E+03  0.00000000000E+00 0. -1.
         21    1    1    2  505  504 -0.18581824013E+01 -0.56696114328E+02 -0.12308421374E+03  0.13552721459E+03  0.00000000000E+00 0. -1.
         21    1    1    2  506  502  0.14838978258E+03  0.60833051279E+02 -0.26690606172E+02  0.16258098339E+03  0.00000000000E+00 0. -1.
<scales pt_clust_3="68.35685" pt_clust_4="14000.00000" pt_clust_5="56.72656" pt_clust_6="116.21233"></scales>
<clustering>
<clus scale="   56.727">  2  5  1 -1</clus>
<clus scale="   68.357">  1  3  2 -1</clus>
<clus scale="  116.212">  1  6  2 -1</clus>
<clus scale="   68.357">  1  3  2 -1</clus>
</clustering>
</event>
<event>
 6    0  0.1344929E+003  0.7074343E+02  0.7546771E-02  0.1357583E+00
         21   -1    0    0  505  501  0.00000000000E+00  0.00000000000E+00  0.63175957720E+03  0.63175957720E+03  0.00000000000E+00 0.  1.
         21   -1    0    0  503  502 -0.00000000000E+00 -0.00000000000E+00 -0.36140772785E+03  0.36140772785E+03  0.00000000000E+00 0.  1.
         21    1    1    2  503  504  0.34153208151E+02  0.60853689619E+02 -0.23631373304E+03  0.24640169153E+03  0.00000000000E+00 0.  1.
         21    1    1    2  504  501  0.16045364197E+02 -0.88589063290E+02 -0.88476512745E+02  0.12622824230E+03  0.00000000000E+00 0.  1.
         21    1    1    2  505  506  0.32809556594E+02  0.20288062171E+02  0.46101676372E+03  0.46262785141E+03  0.00000000000E+00 0.  1.
         21    1    1    2  506  502 -0.83008128942E+02  0.74473115006E+01  0.13412533141E+03  0.15790951981E+03  0.00000000000E+00 0.  1.
<scales pt_clust_3="14000.00000" pt_clust_4="70.74343" pt_clust_5="38.57554" pt_clust_6="60.19862"></scales>
<clustering>
<clus scale="   38.576">  1  5  2 -1</clus>
<clus scale="   60.199">  1  6  2 -1</clus>
<clus scale="   70.743">  1  4  2 -1</clus>
<clus scale="   38.576">  1  3  2 -1</clus>
</clustering>
</event>
<event>
 6    0  0.1344929E+003  0.4608967E+03  0.7546771E-02  0.1024521E+00
         21   -1    0    0  506  501  0.00000000000E+00  0.00000000000E+00  0.35589222569E+03  0.35589222569E+03  0.00000000000E+00 0.  1.
         21   -1    0    0  504  502 -0.00000000000E+00 -0.00000000000E+00 -0.95846629875E+03  0.95846629875E+03  0.00000000000E+00 0. -1.
         21    1    1    2  503  501 -0.34437132210E+03  0.46284050111E+02  0.57623431002E+02  0.35221340204E+03  0.00000000000E+00 0.  1.
         21    1    1    2  504  505  0.29504275528E+01  0.35108818417E+02 -0.14336436196E+03  0.14763019486E+03  0.00000000000E+00 0. -1.
         21    1    1    2  505  503 -0.63107837582E+02  0.91592099020E+02  0.27532840626E+02  0.11458520446E+03  0.00000000000E+00 0.  1.
         21    1    1    2  506  502  0.40452873213E+03 -0.17298496755E+03 -0.54436598273E+03  0.69992972309E+03  0.00000000000E+00 0. -1.
<scales pt_clust_3="91.07059" pt_clust_4="35.23257" pt_clust_5="91.07059" pt_clust_6="432.23318"></scales>
<clustering>
<clus scale="   35.233">  2  4  1 -1</clus>
<clus scale="   91.071">  3  5 -1 -1</clus>
<clus scale="  432.233">  2  6  1 -1</clus>
<clus scale="  460.897">  1  3  2 -1</clus>
</clustering>
</event>
<event>
 6    0  0.1344929E+003  0.3078386E+03  0.7546771E-02  0.1081387E+00
         21   -1    0    0  506  501  0.00000000000E+00  0.00000000000E+00  0.66555423441E+03  0.66555423441E+03  0.00000000000E+00 0.  1.
         21   -1    0    0  503  502 -0.00000000000E+00 -0.00000000000E+00 -0.67140023351E+03  0.67140023351E+03  0.00000000000E+00 0. -1.
         21    1    1    2  503  501 -0.13976952152E+03 -0.32307947571E+03  0.30271238185E+03  0.46427432936E+03  0.00000000000E+00 0.  1.
         21    1    1    2  504  502 -0.23635894967E+02  0.71890356223E+02 -0.49353852211E+02  0.90347559883E+02  0.00000000000E+00 0. -1.
         21    1    1    2  505  504  0.13266328242E+03  0.21787894511E+03 -0.48716481452E+03  0.54990939047E+03  0.00000000000E+00 0. -1.
         21    1    1    2  506  505  0.30742134062E+02  0.33310174382E+02  0.22796028578E+03  0.23242318820E+03  0.00000000000E+00 0. -1.
<scales pt_clust_3="307.83864" pt_clust_4="76.73655" pt_clust_5="14000.00000" pt_clust_6="45.32821"></scales>
<clustering>
<clus scale="   45.328">  1  6  2 -1</clus>
<clus scale="   76.737">  2  4  1 -1</clus>
<clus scale="  307.839">  1  3  2 -1</clus>
<clus scale="   45.328">  1  3  2 -1</clus>
</clustering>
</event>
<event>
 6    0  0.1344929E+003  0.7366803E+02  0.7546771E-02  0.1348046E+00
         21   -1    0    0  503  501  0.00000000000E+00  0.00000000000E+00  0.98263069714E+03  0.98263069714E+03  0.00000000000E+00 0.  1.
         21   -1    0    0  506  502 -0.00000000000E+00 -0.00000000000E+00 -0.40440380277E+02  0.40440380277E+02  0.00000000000E+00 0.  1.
         21    1    1    2  503  504  0.70704341353E+02 -0.93724286418E+01  0.59551073580E+03  0.59976660691E+03  0.00000000000E+00 0.  1.
         21    1    1    2  504  502 -0.29322115263E+02 -0.58275863644E+02  0.82543556038E+02  0.10521074741E+03  0.00000000000E+00 0.  1.
         21    1    1    2  505  501  0.12725001682E+02  0.72072568570E+02  0.25207180038E+03  0.26248156765E+03  0.00000000000E+00 0.  1.
         21    1    1    2  506  505 -0.54107227772E+02 -0.44242762842E+01  0.12064224642E+02  0.55612155452E+02  0.00000000000E+00 0.  1.
<scales pt_clust_3="65.28763" pt_clust_4="73.66803" pt_clust_5="14000.00000" pt_clust_6="54.28781"></scales>
<clustering>
<clus scale="   54.288">  2  6  1 -1</clus>
<clus scale="   65.288">  1  3  2 -1</clus>
<clus scale="   73.668">  2  4  1 -1</clus>
<clus scale="   65.288">  1  3  2 -1</clus>
</clustering>
</event>
<event>
 6    0  0.1344929E+003  0.7793461E+02  0.7546771E-02  0.1335017E+00
         21   -1    0    0  504  501  0.00000000000E+00  0.00000000000E+00  0.64123026101E+02  0.64123026101E+02  0.00000000000E+00 0. -1.
         21   -1    0    0  501  502 -0.00000000000E+00 -0.00000000000E+00 -0.53028174811E+03  0.53028174811E+03  0.00000000000E+00 0. -1.
         21    1    1    2  503  506 -0.94316260876E+02  0.83042769452E+01 -0.43740905906E+02  0.10429661994E+03  0.00000000000E+00 0. -1.
         21    1    1    2  504  503  0.20010978201E+02 -0.74780938797E+02 -0.37244718732E+02  0.85905745613E+02  0.00000000000E+00 0. -1.
         21    1    1    2  505  502  0.31891716819E+02  0.92877420785E+01 -0.24234936684E+03  0.24461512496E+03  0.00000000000E+00 0. -1.
         21    1    1    2  506  505  0.42413565856E+02  0.57188919773E+02 -0.14282373053E+03  0.15958728369E+03  0.00000000000E+00 0. -1.
<scales pt_clust_3="77.93461" pt_clust_4="77.58405" pt_clust_5="33.21662" pt_clust_6="14000.00000"></scales>
<clustering>
<clus scale="   33.217">  2  5  1 -1</clus>
<clus scale="   77.584">  1  4  2 -1</clus>
<clus scale="   77.935">  1  3  2 -1</clus>
<clus scale="   77.584">  1  3  2 -1</clus>
</clustering>
</event>
<event>
 6    0  0.1344929E+003  0.1455107E+03  0.7546771E-02  0.1206100E+00
         21   -1    0    0  503  501  0.00000000000E+00  0.00000000000E+00  0.13774339702E+04  0.13774339702E+04  0.00000000000E+00 0. -1.
         21   -1    0    0  506  502 -0.00000000000E+00 -0.00000000000E+00 -0.11708077399E+03  0.11708077399E+03  0.00000000000E+00 0. -1.
         21    1    1    2  503  504  0.60538713908E+02 -0.12750757958E+03  0.30713264883E+03  0.33801417531E+03  0.00000000000E+00 0. -1.
         21    1    1    2  504  502 -0.60784761091E+02  0.11828392400E+03  0.11715628299E+03  0.17723280877E+03  0.00000000000E+00 0. -1.
         21    1    1    2  505  501  0.35203713243E+02 -0.23450751752E+02  0.89911847399E+03  0.90011292039E+03  0.00000000000E+00 0. -1.
         21    1    1    2  506  505 -0.34957666060E+02  0.32674407331E+02 -0.63054209578E+02  0.79154839753E+02  0.00000000000E+00 0. -1.
<scales pt_clust_3="14000.00000" pt_clust_4="145.51073" pt_clust_5="42.29940" pt_clust_6="47.14739"></scales>
<clustering>
<clus scale="   42.299">  1  5  2 -1</clus>
<clus scale="   47.147">  2  6  1 -1</clus>
<clus scale="  145.511">  2  4  1 -1</clus>
<clus scale="   42.299">  1  3  2 -1</clus>
</clustering>
</event>
<event>
 6    0  0.1344929E+003  0.8869355E+02  0.7546771E-02  0.1306047E+00
         21   -1    0    0  506  501  0.00000000000E+00  0.00000000000E+00  0.83741410289E+03  0.83741410289E+03  0.00000000000E+00 0. -1.
         21   -1    0    0  504  502 -0.00000000000E+00 -0.00000000000E+00 -0.11293154634E+03  0.11293154634E+03  0.00000000000E+00 0. -1.
         21    1    1    2  503  501 -0.10468470856E+03  0.53300548919E+02  0.54844564912E+03  0.56088543105E+03  0.00000000000E+00 0. -1.
         21    1    1    2  504  505  0.18582960806E+02  0.28709732999E+02 -0.77507692961E+02  0.84717280819E+02  0.00000000000E+00 0. -1.
         21    1    1    2  505  503  0.42677065550E+02 -0.27539494472E+02  0.10438367374E+02  0.51852822422E+02  0.00000000000E+00 0. -1.
         21    1    1    2  506  502  0.43424682202E+02 -0.54470787446E+02  0.24310623301E+03  0.25289011495E+03  0.00000000000E+00 0. -1.
<scales pt_clust_3="88.69355" pt_clust_4="34.19905" pt_clust_5="55.48181" pt_clust_6="14000.00000"></scales>
<clustering>
<clus scale="   34.199">  2  4  1 -1</clus>
<clus scale="   55.482">  2  5  1 -1</clus>
<clus scale="   88.694">  2  3  1 -1</clus>
<clus scale="   88.694">  1  3  2 -1</clus>
</clustering>
</event>
<event>
 6    0  0.1344929E+003  0.6983883E+02  0.7546771E-02  0.1360642E+00
         21   -1    0    0  503  501  0.00000000000E+00  0.00000000000E+00  0.40028763044E+03  0.40028763044E+03  0.00000000000E+00 0.  1.
         21   -1    0    0  506  502 -0.00000000000E+00 -0.00000000000E+00 -0.10229569017E+03  0.10229569017E+03  0.00000000000E+00 0.  1.
         21    1    1    2  503  504 -0.99786696200E+01 -0.31407861350E+02  0.52014109440E+02  0.61575118212E+02  0.00000000000E+00 0. -1.
         21    1    1    2  504  502  0.31597198530E+02 -0.74894797340E+02 -0.18836761598E+02  0.83441220096E+02  0.00000000000E+00 0.  1.
         21    1    1    2  505  501  0.29271849296E+02  0.65988917333E+02  0.28143826260E+03  0.29054926266E+03  0.00000000000E+00 0.  1.
         21    1    1    2  506  505 -0.50890378206E+02  0.40313741357E+02 -0.16623670186E+02  0.67017719647E+02  0.00000000000E+00 0.  1.
<scales pt_clust_3="32.95493" pt_clust_4="69.83883" pt_clust_5="45.01761" pt_clust_6="14000.00000"></scales>
<clustering>
<clus scale="   32.955">  1  3  2 -1</clus>
<clus scale="   45.018">  1  5  2 -1</clus>
<clus scale="   69.839">  1  4  2 -1</clus>
<clus scale="   32.955">  1  3  2 -1</clus>
</clustering>
</event>
<event>
 6    0  0.1344929E+003  0.1604879E+03  0.7546771E-02  0.1188147E+00
         21   -1    0    0  503  501  0.00000000000E+00  0.00000000000E+00  0.12168893763E+03  0.12168893763E+03  0.00000000000E+00 0.  1.
         21   -1    0    0  504  502 -0.00000000000E+00 -0.00000000000E+00 -0.46503592750E+03  0.46503592750E+03  0.00000000000E+00 0.  1.
         21    1    1    2  503  505 -0.95932033164E+02  0.13847583932E+03 -0.14780006285E+02  0.16910636194E+03  0.00000000000E+00 0.  1.
         21    1    1    2  504  501 -0.36626724189E+02 -0.14340974009E+02 -0.19488168129E+02  0.43897256832E+02  0.00000000000E+00 0. -1.
         21    1    1    2  505  506  0.82419306063E+02 -0.11368191980E+03 -0.14504609556E+03  0.20187840582E+03  0.00000000000E+00 0.  1.
         21    1    1    2  506  502  0.50139451290E+02 -0.10452945518E+02 -0.16403271990E+03  0.17184284053E+03  0.00000000000E+00 0. -1.
<scales pt_clust_3="160.48794" pt_clust_4="39.33421" pt_clust_5="14000.00000" pt_clust_6="50.04885"></scales>
<clustering>
<clus scale="   39.334">  1  4  2 -1</clus>
<clus scale="   50.049">  2  6  1 -1</clus>
<clus scale="  160.488">  1  3  2 -1</clus>
<clus scale="   39.334">  1  3  2 -1</clus>
</clustering>
</event>
<event>
 6    0  0.1344929E+003  0.1891280E+03  0.7546771E-02  0.1159250E+00
         21   -1    0    0  505  501  0.00000000000E+00  0.00000000000E+00  0.98880685876E+03  0.98880685876E+03  0.00000000000E+00 0. -1.
         21   -1    0    0  504  502 -0.00000000000E+00 -0.00000000000E+00 -0.21079286183E+03  0.21079286183E+03  0.00000000000E+00 0.  1.
         21    1    1    2  503  501 -0.14101848150E+02  0.13671330173E+03  0.13097920905E+03  0.18985505575E+03  0.00000000000E+00 0. -1.
         21    1    1    2  504  503  0.42866044291E+02 -0.20502266275E+03 -0.11343642970E+03  0.23820078416E+03  0.00000000000E+00 0.  1.
         21    1    1    2  505  506 -0.51714789585E+02 -0.28304768955E+01  0.22523026690E+03  0.23110842518E+03  0.00000000000E+00 0. -1.
         21    1    1    2  506  502  0.22950593444E+02  0.71139837907E+02  0.53524095068E+03  0.54043545550E+03  0.00000000000E+00 0. -1.
<scales pt_clust_3="189.12805" pt_clust_4="14000.00000" pt_clust_5="51.79219" pt_clust_6="70.46651"></scales>
<clustering>
<clus scale="   51.792">  1  5  2 -1</clus>
<clus scale="   70.467">  1  6  2 -1</clus>
<clus scale="  189.128">  1  3  2 -1</clus>
<clus scale="   51.792">  1  3  2 -1</clus>
</clustering>
</event>
<event>
 6    0  0.1344929E+003  0.1614355E+03  0.7546771E-02  0.1187086E+00
         21   -1    0    0  503  501  0.00000000000E+00  0.00000000000E+00  0.33574927217E+03  0.33574927217E+03  0.00000000000E+00 0.  1.
         21   -1    0    0  506  502 -0.00000000000E+00 -0.00000000000E+00 -0.43889214687E+03  0.43889214687E+03  0.00000000000E+00 0.  1.
         21    1    1    2  503  504  0.24619098407E+02 -0.60806759281E+02 -0.59992062475E+01  0.65875279553E+02  0.00000000000E+00 0.  1.
         21    1    1    2  504  502 -0.26243328136E+02 -0.98913025644E+02 -0.20512153422E+03  0.22923207174E+03  0.00000000000E+00 0.  1.
         21    1    1    2  505  501  0.40515438770E+02 -0.86458635448E+02  0.19371495647E+03  0.21596777719E+03  0.00000000000E+00 0.  1.
         21    1    1    2  506  505 -0.38891209041E+02  0.24617842037E+03 -0.85737090701E+02  0.26356629056E+03  0.00000000000E+00 0.  1.
<scales pt_clust_3="65.60154" pt_clust_4="104.41478" pt_clust_5="161.43554" pt_clust_6="14000.00000"></scales>
<clustering>
<clus scale="   65.602">  1  3  2 -1</clus>
<clus scale="  104.415">  2  4  1 -1</clus>
<clus scale="  161.436">  1  5  2 -1</clus>
<clus scale="   65.602">  1  3  2 -1</clus>
</clustering>
</event>
<event>
 6    0  0.1344929E+003  0.8768187E+02  0.7546771E-02  0.1308564E+00
         21   -1    0    0  504  501  0.00000000000E+00  0.00000000000E+00  0.23176863436E+03  0.23176863436E+03  0.00000000000E+00 0.  1.
         21   -1    0    0  503  502 -0.00000000000E+00 -0.00000000000E+00 -0.16543314044E+03  0.16543314044E+03  0.00000000000E+00 0. -1.
         21    1    1    2  503  506 -0.35845197910E+02  0.65392577277E+02  0.15418249675E+01  0.74588501798E+02  0.00000000000E+00 0.  1.
         21    1    1    2  504  505 -0.88703678899E+01 -0.79946302734E+02  0.12799384499E+02  0.81448873479E+02  0.00000000000E+00 0. -1.
         21    1    1    2  505  502  0.38074826479E+02 -0.76477328273E+02 -0.54170806808E+02  0.10115804694E+03  0.00000000000E+00 0. -1.
         21    1    1    2  506  501  0.66407393205E+01  0.91031053730E+02  0.10616509126E+03  0.14000635259E+03  0.00000000000E+00 0.  1.
<scales pt_clust_3="74.57256" pt_clust_4="87.68187" pt_clust_5="40.57712" pt_clust_6="14000.00000"></scales>
<clustering>
<clus scale="   74.573">  2  3  1 -1</clus>
<clus scale="   40.577">  2  5  1 -1</clus>
<clus scale="   87.682">  2  4  1 -1</clus>
<clus scale="   87.682">  1  3  2 -1</clus>
</clustering>
</event>
<event>
 6    0  0.1344929E+003  0.1515863E+03  0.7546771E-02  0.1198537E+00
         21   -1    0    0  503  501  0.00000000000E+00  0.00000000000E+00  0.16481949130E+02  0.16481949130E+02  0.00000000000E+00 0. -1.
         21   -1    0    0  504  502 -0.00000000000E+00 -0.00000000000E+00 -0.11956379256E+04  0.11956379256E+04  0.00000000000E+00 0. -1.
         21    1    1    2  503  502 -0.10494952369E+03  0.75300737655E+02 -0.53925716494E+03  0.55451140074E+03  0.00000000000E+00 0. -1.
         21    1    1    2  504  506  0.36539337816E+02 -0.19952488843E+02 -0.30400760905E+03  0.30684499569E+03  0.00000000000E+00 0. -1.
         21    1    1    2  505  501  0.12571561903E+02 -0.40408388127E+02 -0.16595298690E+03  0.17126376109E+03  0.00000000000E+00 0. -1.
         21    1    1    2  506  505  0.55838623972E+02 -0.14939860685E+02 -0.16993821554E+03  0.17949971717E+03  0.00000000000E+00 0. -1.
<scales pt_clust_3="129.16890" pt_clust_4="39.40041" pt_clust_5="37.37416" pt_clust_6="39.40041"></scales>
<clustering>
<clus scale="   39.400">  4  6 -1 -1</clus>
<clus scale="   37.374">  4  5 -1 -1</clus>
<clus scale="  129.169">  1  3  2 -1</clus>
<clus scale="  129.169">  1  3  2 -1</clus>
</clustering>
</event>
<event>
 6    0  0.1344929E+003  0.9126808E+02  0.7546771E-02  0.1299810E+00
         21   -1    0    0  506  501  0.00000000000E+00  0.00000000000E+00  0.28416778182E+03  0.28416778182E+03  0.00000000000E+00 0.  1.
         21   -1    0    0  503  502 -0.00000000000E+00 -0.00000000000E+00 -0.21574373435E+03  0.21574373435E+03  0.00000000000E+00 0. -1.
         21    1    1    2  503  505  0.11529657460E+03 -0.23455264031E+02 -0.14081061183E+03  0.18349680632E+03  0.00000000000E+00 0. -1.
         21    1    1    2  504  502 -0.27030376093E+02 -0.33628840442E+02  0.29710327043E+01  0.43247741866E+02  0.00000000000E+00 0. -1.
         21    1    1    2  505  501 -0.43318371337E+02 -0.27397222499E+01  0.19218593548E+03  0.19702644790E+03  0.00000000000E+00 0.  1.
         21    1    1    2  506  504 -0.44947827169E+02  0.59823826724E+02  0.14077691114E+02  0.76140520081E+02  0.00000000000E+00 0. -1.
<scales pt_clust_3="14000.00000" pt_clust_4="43.14557" pt_clust_5="43.76675" pt_clust_6="91.26808"></scales>
<clustering>
<clus scale="   43.146">  2  4  1 -1</clus>
<clus scale="   43.767">  1  5  2 -1</clus>
<clus scale="   91.268">  1  6  2 -1</clus>
<clus scale="   43.767">  1  3  2 -1</clus>
</clustering>
</event>
<event>
 6    0  0.1344929E+003  0.1089535E+03  0.7546771E-02  0.1262520E+00
         21   -1    0    0  503  501  0.00000000000E+00  0.00000000000E+00  0.10532707140E+03  0.10532707140E+03  0.00000000000E+00 0.  1.
         21   -1    0    0  505  502 -0.00000000000E+00 -0.00000000000E+00 -0.48848381969E+03  0.48848381969E+03  0.00000000000E+00 0.  1.
         21    1    1    2  503  506  0.22311498554E+02 -0.20978861593E+02  0.26753758877E+02  0.40665454818E+02  0.00000000000E+00 0.  1.
         21    1    1    2  504  502  0.34368664077E+02 -0.28646252757E+02 -0.24266524093E+03  0.24675540930E+03  0.00000000000E+00 0.  1.
         21    1    1    2  505  501 -0.14007737982E+03  0.55398480762E+02 -0.16407105740E+03  0.22273296991E+03  0.00000000000E+00 0.  1.
         21    1    1    2  506  504  0.83397217190E+02 -0.57733664125E+01 -0.31742088441E+01  0.83657057063E+02  0.00000000000E+00 0.  1.
<scales pt_clust_3="30.62541" pt_clust_4="45.61462" pt_clust_5="14000.00000" pt_clust_6="108.95349"></scales>
<clustering>
<clus scale="   30.625">  1  3  2 -1</clus>
<clus scale="   45.615">  2  4  1 -1</clus>
<clus scale="  108.953">  1  6  2 -1</clus>
<clus scale="   30.625">  1  3  2 -1</clus>
</clustering>
</event>
<event>
 6    0  0.1344929E+003  0.1644216E+03  0.7546771E-02  0.1183793E+00
         21   -1    0    0  506  501  0.00000000000E+00  0.00000000000E+00  0.59577518503E+03  0.59577518503E+03  0.00000000000E+00 0. -1.
         21   -1    0    0  504  502 -0.00000000000E+00 -0.00000000000E+00 -0.19497950952E+04  0.19497950952E+04  0.00000000000E+00 0.  1.
         21    1    1    2  503  505 -0.10870858300E+03 -0.15717837251E+03 -0.79191755126E+03  0.81465084840E+03  0.00000000000E+00 0.  1.
         21    1    1    2  504  503  0.65194175144E+02 -0.97878902151E+01 -0.50955166432E+03  0.51379858104E+03  0.00000000000E+00 0.  1.
         21    1    1    2  505  501 -0.12111538392E+02  0.35352958148E+02  0.57362938547E+03  0.57484536433E+03  0.00000000000E+00 0. -1.
         21    1    1    2  506  502  0.55625946249E+02  0.13161330458E+03 -0.62618008003E+03  0.64227548643E+03  0.00000000000E+00 0.  1.
<scales pt_clust_3="164.42164" pt_clust_4="64.30964" pt_clust_5="37.37006" pt_clust_6="14000.00000"></scales>
<clustering>
<clus scale="   37.370">  1  5  2 -1</clus>
<clus scale="   64.310">  2  4  1 -1</clus>
<clus scale="  164.422">  1  3  2 -1</clus>
<clus scale="   37.370">  1  3  2 -1</clus>
</clustering>
</event>
<event>
 6    0  0.1344929E+003  0.9935414E+02  0.7546771E-02  0.1281660E+00
         21   -1    0    0  504  501  0.00000000000E+00  0.00000000000E+00  0.34572810754E+03  0.34572810754E+03  0.00000000000E+00 0.  1.
         21   -1    0    0  506  502 -0.00000000000E+00 -0.00000000000E+00 -0.25445554737E+03  0.25445554737E+03  0.00000000000E+00 0. -1.
         21    1    1    2  503  501  0.91638688628E+02 -0.44073793141E+02  0.30212479464E+03  0.31877819880E+03  0.00000000000E+00 0.  1.
         21    1    1    2  504  502 -0.84943788510E+02 -0.31862700466E+02 -0.10958631189E+03  0.14226678685E+03  0.00000000000E+00 0. -1.
         21    1    1    2  505  503 -0.20881974750E+02  0.39733127729E+02 -0.20184801707E+02  0.49215897112E+02  0.00000000000E+00 0. -1.
         21    1    1    2  506  505  0.14187074633E+02  0.36203365878E+02 -0.81081120877E+02  0.89922772144E+02  0.00000000000E+00 0. -1.
<scales pt_clust_3="99.35414" pt_clust_4="14000.00000" pt_clust_5="50.47517" pt_clust_6="38.88389"></scales>
<clustering>
<clus scale="   38.884">  2  6  1 -1</clus>
<clus scale="   50.475">  2  5  1 -1</clus>
<clus scale="   99.354">  1  3  2 -1</clus>
<clus scale="   99.354">  1  3  2 -1</clus>
</clustering>
</event>
<event>
 6    0  0.1344929E+003  0.7669450E+02  0.7546771E-02  0.1338703E+00
         21   -1    0    0  503  501  0.00000000000E+00  0.00000000000E+00  0.95963064459E+03  0.95963064459E+03  0.00000000000E+00 0. -1.
         21   -1    0    0  505  502 -0.00000000000E+00 -0.00000000000E+00 -0.11811154067E+03  0.11811154067E+03  0.00000000000E+00 0.  1.
         21    1    1    2  503  504 -0.69204427896E+02  0.29901490140E+02  0.75785399761E+03  0.76159440232E+03  0.00000000000E+00 0. -1.
         21    1    1    2  504  506  0.91948843220E+02 -0.57037258354E+02  0.23732667809E+02  0.11077489847E+03  0.00000000000E+00 0.  1.
         21    1    1    2  505  501 -0.27223916463E+02  0.81517652715E+02  0.10422751443E+03  0.13509124359E+03  0.00000000000E+00 0.  1.
         21    1    1    2  506  502  0.44795011390E+01 -0.54381884501E+02 -0.44295075934E+02  0.70281640876E+02  0.00000000000E+00 0.  1.
<scales pt_clust_3="14000.00000" pt_clust_4="76.69450" pt_clust_5="72.57105" pt_clust_6="54.56606"></scales>
<clustering>
<clus scale="   54.566">  2  6  1 -1</clus>
<clus scale="   72.571">  2  5  1 -1</clus>
<clus scale="   76.695">  2  4  1 -1</clus>
<clus scale="   76.695">  1  3  2 -1</clus>
</clustering>
</event>
<event>
 6    0  0.1344929E+003  0.1022083E+03  0.7546771E-02  0.1275720E+00
         21   -1    0    0  503  501  0.00000000000E+00  0.00000000000E+00  0.29232080793E+03  0.29232080793E+03  0.00000000000E+00 0. -1.
         21   -1    0    0  506  502 -0.00000000000E+00 -0.00000000000E+00 -0.19665143597E+03  0.19665143597E+03  0.00000000000E+00 0. -1.
         21    1    1    2  503  504 -0.40471497447E+01 -0.48308263065E+02  0.49750924048E+02  0.69463818964E+02  0.00000000000E+00 0. -1.
         21    1    1    2  504  505  0.15403940039E+03 -0.39833023617E+02  0.22443229484E+02  0.16068137787E+03  0.00000000000E+00 0. -1.
         21    1    1    2  505  502 -0.83082163820E+02  0.14106091646E+02 -0.79200266768E+02  0.11564735199E+03  0.00000000000E+00 0. -1.
         21    1    1    2  506  501 -0.66910086826E+02  0.74035195037E+02  0.10267548519E+03  0.14317969508E+03  0.00000000000E+00 0. -1.
<scales pt_clust_3="48.47750" pt_clust_4="102.20830" pt_clust_5="84.03556" pt_clust_6="14000.00000"></scales>
<clustering>
<clus scale="   48.477">  1  3  2 -1</clus>
<clus scale="   84.036">  2  5  1 -1</clus>
<clus scale="  102.208">  2  4  1 -1</clus>
<clus scale="   48.477">  1  3  2 -1</clus>
</clustering>
</event>
<event>
 6    0  0.1344929E+003  0.1017660E+03  0.7546771E-02  0.1276626E+00
         21   -1    0    0  504  501  0.00000000000E+00  0.00000000000E+00  0.14321451807E+04  0.14321451807E+04  0.00000000000E+00 0.  1.
         21   -1    0    0  503  502 -0.00000000000E+00 -0.00000000000E+00 -0.34315003121E+03  0.34315003121E+03  0.00000000000E+00 0.  1.
         21    1    1    2  503  506 -0.66034414902E+02 -0.12501869959E+03 -0.14873083341E+03  0.20520984383E+03  0.00000000000E+00 0.  1.
         21    1    1    2  504  505  0.46303803731E+02  0.43583408813E+02  0.12580267129E+04  0.12596327902E+04  0.00000000000E+00 0.  1.
         21    1    1    2  505  502  0.83038110781E+01  0.41461760746E+02 -0.15958697352E+03  0.16509401261E+03  0.00000000000E+00 0.  1.
         21    1    1    2  506  501  0.11426800092E+02  0.39973530028E+02  0.13928624353E+03  0.14535856528E+03  0.00000000000E+00 0. -1.
<scales pt_clust_3="101.76601" pt_clust_4="14000.00000" pt_clust_5="42.37358" pt_clust_6="41.57469"></scales>
<clustering>
<clus scale="   41.575">  1  6  2 -1</clus>
<clus scale="   42.374">  2  5  1 -1</clus>
<clus scale="  101.766">  2  3  1 -1</clus>
<clus scale="   41.575">  1  3  2 -1</clus>
</clustering>
</event>
<event>
 6    0  0.1344929E+003  0.9230438E+02  0.7546771E-02  0.1297365E+00
         21   -1    0    0  503  501  0.00000000000E+00  0.00000000000E+00  0.74356316425E+03  0.74356316425E+03  0.00000000000E+00 0.  1.
         21   -1    0    0  504  502 -0.00000000000E+00 -0.00000000000E+00 -0.39514440394E+03  0.39514440394E+03  0.00000000000E+00 0. -1.
         21    1    1    2  503  502 -0.40157652466E+02  0.96144456373E+02 -0.91922809905E+02  0.13894673988E+03  0.00000000000E+00 0. -1.
         21    1    1    2  504  505  0.29585092176E+02 -0.22598293369E+02 -0.11491476639E+03  0.12079471874E+03  0.00000000000E+00 0. -1.
         21    1    1    2  505  506 -0.35299670800E+02 -0.83938643653E+02 -0.14819970196E+03  0.17393939841E+03  0.00000000000E+00 0. -1.
         21    1    1    2  506  501  0.45872231090E+02  0.10392480649E+02  0.70345603857E+03  0.70502671115E+03  0.00000000000E+00 0.  1.
<scales pt_clust_3="92.30438" pt_clust_4="37.22849" pt_clust_5="14000.00000" pt_clust_6="47.10237"></scales>
<clustering>
<clus scale="   37.228">  2  4  1 -1</clus>
<clus scale="   47.102">  1  6  2 -1</clus>
<clus scale="   92.304">  1  3  2 -1</clus>
<clus scale="   47.102">  1  3  2 -1</clus>
</clustering>
</event>
<event>
 6    0  0.1344929E+003  0.5683673E+02  0.7546771E-02  0.1411607E+00
         21   -1    0    0  506  501  0.00000000000E+00  0.00000000000E+00  0.23213417774E+03  0.23213417774E+03  0.00000000000E+00 0. -1.
         21   -1    0    0  503  502 -0.00000000000E+00 -0.00000000000E+00 -0.44158200028E+03  0.44158200028E+03  0.00000000000E+00 0.  1.
         21    1    1    2  503  505  0.74289084179E+02 -0.58722789579E+02 -0.25827063634E+03  0.27508354302E+03  0.00000000000E+00 0.  1.
         21    1    1    2  504  501 -0.55956883912E+02 -0.69166418260E+01  0.20366036935E+03  0.21132098531E+03  0.00000000000E+00 0. -1.
         21    1    1    2  505  504  0.26146758455E+02  0.52555954073E+02 -0.78935904736E+02  0.98370007333E+02  0.00000000000E+00 0.  1.
         21    1    1    2  506  502 -0.44478958722E+02  0.13083477332E+02 -0.75901650814E+02  0.88941642353E+02  0.00000000000E+00 0. -1.
<scales pt_clust_3="54.44355" pt_clust_4="56.83673" pt_clust_5="14000.00000" pt_clust_6="46.36330"></scales>
<clustering>
<clus scale="   46.363">  2  6  1 -1</clus>
<clus scale="   56.837">  1  4  2 -1</clus>
<clus scale="   54.444">  2  3  1 -1</clus>
<clus scale="   56.837">  1  3  2 -1</clus>
</clustering>
</event>
<event>
 6    0  0.1344929E+003  0.8571867E+02  0.7546771E-02  0.1313564E+00
         21   -1    0    0  505  501  0.00000000000E+00  0.00000000000E+00  0.10403403756E+04  0.10403403756E+04  0.00000000000E+00 0.  1.
         21   -1    0    0  506  502 -0.00000000000E+00 -0.00000000000E+00 -0.63201478224E+03  0.63201478224E+03  0.00000000000E+00 0. -1.
         21    1    1    2  503  502 -0.37375712420E+01 -0.33150774860E+02 -0.24148972729E+03  0.24378316533E+03  0.00000000000E+00 0. -1.
         21    1    1    2  504  503 -0.56440719921E+02 -0.23916052437E+02 -0.27175235823E+03  0.27858010810E+03  0.00000000000E+00 0. -1.
         21    1    1    2  505  504  0.14488396001E+03  0.59061166076E+02 -0.57927573362E+02  0.16683880532E+03  0.00000000000E+00 0.  1.
         21    1    1    2  506  501 -0.84705668847E+02 -0.19943387788E+01  0.97949525224E+03  0.98315307907E+03  0.00000000000E+00 0.  1.
<scales pt_clust_3="33.36081" pt_clust_4="75.71029" pt_clust_5="85.71867" pt_clust_6="14000.00000"></scales>
<clustering>
<clus scale="   33.361">  2  3  1 -1</clus>
<clus scale="   75.710">  2  4  1 -1</clus>
<clus scale="   85.719">  2  5  1 -1</clus>
<clus scale="   85.719">  1  3  2 -1</clus>
</clustering>
</event>
<event>
 6    0  0.1344929E+003  0.8967176E+02  0.7546771E-02  0.1303649E+00
         21   -1    0    0  504  501  0.00000000000E+00  0.00000000000E+00  0.15823814716E+03  0.15823814716E+03  0.00000000000E+00 0.  1.
         21   -1    0    0  506  502 -0.00000000000E+00 -0.00000000000E+00 -0.23579446394E+03  0.23579446394E+03  0.00000000000E+00 0.  1.
         21    1    1    2  503  502 -0.17955773807E+02 -0.89447635860E+02 -0.13031340784E+03  0.15907505662E+03  0.00000000000E+00 0.  1.
         21    1    1    2  504  505  0.34221615423E+02  0.39240714197E+02 -0.97034398396E+01  0.52963283108E+02  0.00000000000E+00 0.  1.
         21    1    1    2  505  503 -0.53589276245E+02  0.56750369562E+02  0.10119991867E+03  0.12780390648E+03  0.00000000000E+00 0.  1.
         21    1    1    2  506  501  0.37323434629E+02 -0.65434478989E+01 -0.38739387764E+02  0.54190364893E+02  0.00000000000E+00 0.  1.
<scales pt_clust_3="14000.00000" pt_clust_4="55.57029" pt_clust_5="89.67176" pt_clust_6="37.89268"></scales>
<clustering>
<clus scale="   37.893">  2  6  1 -1</clus>
<clus scale="   55.570">  1  4  2 -1</clus>
<clus scale="   89.672">  1  5  2 -1</clus>
<clus scale="   55.570">  1  3  2 -1</clus>
</clustering>
</event>
<event>
 6    0  0.1344929E+003  0.1094323E+03  0.7546771E-02  0.1261625E+00
         21   -1    0    0  505  501  0.00000000000E+00  0.00000000000E+00  0.35138657267E+03  0.35138657267E+03  0.00000000000E+00 0. -1.
         21   -1    0    0  506  502 -0.00000000000E+00 -0.00000000000E+00 -0.11783881713E+04  0.11783881713E+04  0.00000000000E+00 0. -1.
         21    1    1    2  503  504 -0.57122593647E+02 -0.73304600262E+02 -0.12349468854E+03  0.15455579324E+03  0.00000000000E+00 0. -1.
         21    1    1    2  504  502 -0.35310741951E+02  0.22963924334E+02 -0.90647474869E+03  0.90745284193E+03  0.00000000000E+00 0. -1.
         21    1    1    2  505  503  0.10022699280E+02 -0.10546983463E+03  0.26141376291E+03  0.28206647436E+03  0.00000000000E+00 0. -1.
         21    1    1    2  506  501  0.82410636318E+02  0.15581051055E+03 -0.58445924350E+02  0.18569963449E+03  0.00000000000E+00 0. -1.
<scales pt_clust_3="97.17947" pt_clust_4="42.12114" pt_clust_5="14000.00000" pt_clust_6="109.43228"></scales>
<clustering>
<clus scale="   42.121">  2  4  1 -1</clus>
<clus scale="   97.179">  2  3  1 -1</clus>
<clus scale="  109.432">  2  6  1 -1</clus>
<clus scale="  109.432">  1  3  2 -1</clus>
</clustering>
</event>
<event>
 6    0  0.1344929E+003  0.7099977E+02  0.7546771E-02  0.1356726E+00
         21   -1    0    0  504  501  0.00000000000E+00  0.00000000000E+00  0.13528474417E+03  0.13528474417E+03  0.00000000000E+00 0. -1.
         21   -1    0    0  505  502 -0.00000000000E+00 -0.00000000000E+00 -0.30665557311E+03  0.30665557311E+03  0.00000000000E+00 0. -1.
         21    1    1    2  503  501  0.25757373073E+02  0.24402094285E+02  0.56101055358E+02  0.66379461322E+02  0.00000000000E+00 0. -1.
         21    1    1    2  504  502  0.21806875428E+02  0.74367872132E+02  0.80629989725E+01  0.77917470273E+02  0.00000000000E+00 0. -1.
         21    1    1    2  505  506  0.27296965234E+02 -0.66896329501E+02 -0.19247166104E+03  0.20558595165E+03  0.00000000000E+00 0. -1.
         21    1    1    2  506  503 -0.74861213735E+02 -0.31873636916E+02 -0.43063222226E+02  0.92057434032E+02  0.00000000000E+00 0. -1.
<scales pt_clust_3="35.48104" pt_clust_4="70.99977" pt_clust_5="14000.00000" pt_clust_6="70.47975"></scales>
<clustering>
<clus scale="   35.481">  1  3  2 -1</clus>
<clus scale="   70.480">  1  6  2 -1</clus>
<clus scale="   71.000">  1  4  2 -1</clus>
<clus scale="   35.481">  1  3  2 -1</clus>
</clustering>
</event>
<event>
 6    0  0.1344929E+003  0.5345160E+02  0.7546771E-02  0.1427567E+00
         21   -1    0    0  503  501  0.00000000000E+00  0.00000000000E+00  0.55915254692E+03  0.55915254692E+03  0.00000000000E+00 0.  1.
         21   -1    0    0  505  502 -0.00000000000E+00 -0.00000000000E+00 -0.16438965651E+04  0.16438965651E+04  0.00000000000E+00 0.  1.
         21    1    1    2  503  504 -0.63754407993E+02  0.57641067883E+02  0.49092090342E+03  0.49838785163E+03  0.00000000000E+00 0.  1.
         21    1    1    2  504  502  0.11378964306E+02  0.50813559757E+02 -0.11426412841E+04  0.11438271734E+04  0.00000000000E+00 0.  1.
         21    1    1    2  505  506  0.28749287594E+01 -0.10082023591E+03 -0.48100992014E+03  0.49147078088E+03  0.00000000000E+00 0. -1.
         21    1    1    2  506  501  0.49500514927E+02 -0.76343917271E+01  0.47986282572E+02  0.69363306079E+02  0.00000000000E+00 0.  1.
<scales pt_clust_3="14000.00000" pt_clust_4="52.07608" pt_clust_5="53.45160" pt_clust_6="50.08578"></scales>
<clustering>
<clus scale="   50.086">  1  6  2 -1</clus>
<clus scale="   52.076">  2  4  1 -1</clus>
<clus scale="   53.452">  2  5  1 -1</clus>
<clus scale="   50.086">  1  3  2 -1</clus>
</clustering>
</event>
<event>
 6    0  0.1344929E+003  0.7015872E+02  0.7546771E-02  0.1359554E+00
         21   -1    0    0  504  501  0.00000000000E+00  0.00000000000E+00  0.75361404452E+02  0.75361404452E+02  0.00000000000E+00 0. -1.
         21   -1    0    0  503  502 -0.00000000000E+00 -0.00000000000E+00 -0.83518155251E+03  0.83518155251E+03  0.00000000000E+00 0.  1.
         21    1    1    2  503  505 -0.72035145168E+02 -0.57270733980E+01 -0.59699790587E+03  0.60135543659E+03  0.00000000000E+00 0.  1.
         21    1    1    2  504  506  0.71590247687E+02  0.26938692881E+02  0.22644089173E+02  0.79772247759E+02  0.00000000000E+00 0. -1.
         21    1    1    2  505  501 -0.28976783291E+02  0.31956741329E+02 -0.10784052378E+02  0.44465526781E+02  0.00000000000E+00 0. -1.
         21    1    1    2  506  502  0.29421680771E+02 -0.53168360811E+02 -0.17468227899E+03  0.18494974583E+03  0.00000000000E+00 0. -1.
<scales pt_clust_3="70.15872" pt_clust_4="14000.00000" pt_clust_5="43.13800" pt_clust_6="57.08893"></scales>
<clustering>
<clus scale="   43.138">  1  5  2 -1</clus>
<clus scale="   57.089">  2  6  1 -1</clus>
<clus scale="   70.159">  2  3  1 -1</clus>
<clus scale="   43.138">  1  3  2 -1</clus>
</clustering>
</event>
<event>
 6    0  0.1363641E+003  0.1665986E+03  0.7546771E-02  0.1181442E+00
         21   -1    0    0  506  501  0.00000000000E+00  0.00000000000E+00  0.11552028942E+04  0.11552028942E+04  0.00000000000E+00 0.  1.
         21   -1    0    0  503  502 -0.00000000000E+00 -0.00000000000E+00 -0.10281014925E+04  0.10281014925E+04  0.00000000000E+00 0.  1.
         21    1    1    2  503  505 -0.39509151907E+02  0.15148687543E+02 -0.91048729342E+03  0.91147000351E+03  0.00000000000E+00 0.  1.
         21    1    1    2  504  501  0.31835360323E+02  0.82593809234E+01  0.43955099194E+03  0.44077974325E+03  0.00000000000E+00 0.  1.
         21    1    1    2  505  504  0.14020811931E+03  0.14192946220E+01  0.66561888876E+03  0.68022704753E+03  0.00000000000E+00 0.  1.
         21    1    1    2  506  502 -0.13253432773E+03 -0.24827363089E+02 -0.67581185553E+02  0.15082759238E+03  0.00000000000E+00 0.  1.
<scales pt_clust_3="42.29539" pt_clust_4="32.88932" pt_clust_5="166.59863" pt_clust_6="14000.00000"></scales>
<clustering>
<clus scale="   32.889">  1  4  2 -1</clus>
<clus scale="   42.295">  2  3  1 -1</clus>
<clus scale="  166.599">  1  5  2 -1</clus>
<clus scale="   32.889">  1  3  2 -1</clus>
</clustering>
</event>
<event>
 6    0  0.1344929E+003  0.8091330E+02  0.7546771E-02  0.1326479E+00
         21   -1    0    0  506  501  0.00000000000E+00  0.00000000000E+00  0.54260601908E+02  0.54260601908E+02  0.00000000000E+00 0.  1.
         21   -1    0    0  504  502 -0.00000000000E+00 -0.00000000000E+00 -0.18696108910E+04  0.18696108910E+04  0.00000000000E+00 0. -1.
         21    1    1    2  503  501 -0.98126887209E+01  0.96580712673E+02 -0.15431169723E+02  0.98296713675E+02  0.00000000000E+00 0.  1.
         21    1    1    2  504  505 -0.32880569344E+02 -0.36853992389E+02 -0.11358703174E+03  0.12386025341E+03  0.00000000000E+00 0.  1.
         21    1    1    2  505  503  0.62899111650E+02 -0.24846074317E+02 -0.14651600393E+03  0.16137089286E+03  0.00000000000E+00 0.  1.
         21    1    1    2  506  502 -0.20205853585E+02 -0.34880645967E+02 -0.15398160837E+04  0.15403436330E+04  0.00000000000E+00 0. -1.
<scales pt_clust_3="80.91330" pt_clust_4="63.68100" pt_clust_5="14000.00000" pt_clust_6="40.31049"></scales>
<clustering>
<clus scale="   40.310">  2  6  1 -1</clus>
<clus scale="   63.681">  2  4  1 -1</clus>
<clus scale="   80.913">  1  3  2 -1</clus>
<clus scale="   80.913">  1  3  2 -1</clus>
</clustering>
</event>
<event>
 6    0  0.1344929E+003  0.4140621E+03  0.7546771E-02  0.1039016E+00
         21   -1    0    0  506  501  0.00000000000E+00  0.00000000000E+00  0.49889570773E+03  0.49889570773E+03  0.00000000000E+00 0.  1.
         21   -1    0    0  505  502 -0.00000000000E+00 -0.00000000000E+00 -0.91156734431E+03  0.91156734431E+03  0.00000000000E+00 0.  1.
         21    1    1    2  503  502 -0.15727595033E+03 -0.17995927561E+03  0.14211064285E+03  0.27805844753E+03  0.00000000000E+00 0.  1.
         21    1    1    2  504  501  0.19831211416E+02 -0.44594363770E+02 -0.53524094079E+01  0.49097683375E+02  0.00000000000E+00 0. -1.
         21    1    1    2  505  504  0.21384617296E+03  0.34124121895E+03 -0.74276585568E+03  0.84491234549E+03  0.00000000000E+00 0.  1.
         21    1    1    2  506  503 -0.76401434043E+02 -0.11668757957E+03  0.19333598566E+03  0.23839457565E+03  0.00000000000E+00 0.  1.
<scales pt_clust_3="84.32245" pt_clust_4="48.80506" pt_clust_5="399.81571" pt_clust_6="84.32245"></scales>
<clustering>
<clus scale="   48.805">  1  4  2 -1</clus>
<clus scale="   84.322">  3  6 -1 -1</clus>
<clus scale="  399.816">  2  5  1 -1</clus>
<clus scale="   48.805">  1  3  2 -1</clus>
</clustering>
</event>
<event>
 6    0  0.1344929E+003  0.9587887E+02  0.7546771E-02  0.1289209E+00
         21   -1    0    0  504  501  0.00000000000E+00  0.00000000000E+00  0.58644556115E+03  0.58644556115E+03  0.00000000000E+00 0. -1.
         21   -1    0    0  503  502 -0.00000000000E+00 -0.00000000000E+00 -0.22139423143E+03  0.22139423143E+03  0.00000000000E+00 0.  1.
         21    1    1    2  503  505 -0.26321415032E+02 -0.22323326282E+02 -0.60770770006E+02  0.69887296934E+02  0.00000000000E+00 0.  1.
         21    1    1    2  504  502 -0.52698499026E+02  0.24702114738E+02  0.13855503716E+03  0.15028248266E+03  0.00000000000E+00 0. -1.
         21    1    1    2  505  506  0.23674212753E+02 -0.76246425531E+02 -0.13423359845E+03  0.15618144803E+03  0.00000000000E+00 0.  1.
         21    1    1    2  506  501  0.55345701305E+02  0.73867637076E+02  0.42150066101E+03  0.43148856496E+03  0.00000000000E+00 0. -1.
<scales pt_clust_3="34.51301" pt_clust_4="58.75205" pt_clust_5="14000.00000" pt_clust_6="95.87887"></scales>
<clustering>
<clus scale="   34.513">  2  3  1 -1</clus>
<clus scale="   58.752">  1  4  2 -1</clus>
<clus scale="   95.879">  1  6  2 -1</clus>
<clus scale="   58.752">  1  3  2 -1</clus>
</clustering>
</event>
<event>
 6    0  0.1344929E+003  0.7736218E+02  0.7546771E-02  0.1336708E+00
         21   -1    0    0  504  501  0.00000000000E+00  0.00000000000E+00  0.12269703914E+03  0.12269703914E+03  0.00000000000E+00 0. -1.
         21   -1    0    0  505  502 -0.00000000000E+00 -0.00000000000E+00 -0.53416743467E+03  0.53416743467E+03  0.00000000000E+00 0. -1.
         21    1    1    2  503  501  0.63516559806E+01  0.62060557467E+02 -0.70072974608E+02  0.93819390838E+02  0.00000000000E+00 0. -1.
         21    1    1    2  504  506  0.59822824326E+01 -0.80384145824E+02  0.79799892482E+02  0.11342584116E+03  0.00000000000E+00 0. -1.
         21    1    1    2  505  503  0.53534879125E+02 -0.12491450093E+02 -0.32179272024E+03  0.32645455183E+03  0.00000000000E+00 0. -1.
         21    1    1    2  506  502 -0.65868817538E+02  0.30815038450E+02 -0.99404593152E+02  0.12316468998E+03  0.00000000000E+00 0. -1.
<scales pt_clust_3="77.36218" pt_clust_4="14000.00000" pt_clust_5="54.97290" pt_clust_6="44.63323"></scales>
<clustering>
<clus scale="   54.973">  2  5  1 -1</clus>
<clus scale="   44.633">  2  6  1 -1</clus>
<clus scale="   77.362">  2  3  1 -1</clus>
<clus scale="   77.362">  1  3  2 -1</clus>
</clustering>
</event>
<event>
 6    0  0.1344929E+003  0.8600798E+02  0.7546771E-02  0.1312817E+00
         21   -1    0    0  503  501  0.00000000000E+00  0.00000000000E+00  0.11827316306E+03  0.11827316306E+03  0.00000000000E+00 0. -1.
         21   -1    0    0  505  502 -0.00000000000E+00 -0.00000000000E+00 -0.57651582179E+03  0.57651582179E+03  0.00000000000E+00 0. -1.
         21    1    1    2  503  504 -0.50643895061E+02  0.59489276837E+02  0.70697125470E+02  0.10536537247E+03  0.00000000000E+00 0. -1.
         21    1    1    2  504  502 -0.34537400209E+02  0.12115148164E+02 -0.31584493144E+03  0.31795853432E+03  0.00000000000E+00 0. -1.
         21    1    1    2  505  506  0.10716549912E+03 -0.51167726509E+02 -0.21004914653E+03  0.24129489095E+03  0.00000000000E+00 0. -1.
         21    1    1    2  506  501 -0.21984203849E+02 -0.20436698492E+02 -0.30457062328E+01  0.30170187116E+02  0.00000000000E+00 0. -1.
<scales pt_clust_3="86.00798" pt_clust_4="36.74274" pt_clust_5="14000.00000" pt_clust_6="30.01606"></scales>
<clustering>
<clus scale="   30.016">  1  6  2 -1</clus>
<clus scale="   36.743">  2  4  1 -1</clus>
<clus scale="   86.008">  1  3  2 -1</clus>
<clus scale="   30.016">  1  3  2 -1</clus>
</clustering>
</event>
<event>
 6    0  0.1344929E+003  0.7445574E+02  0.7546771E-02  0.1345565E+00
         21   -1    0    0  504  501  0.00000000000E+00  0.00000000000E+00  0.27211595153E+03  0.27211595153E+03  0.00000000000E+00 0. -1.
         21   -1    0    0  501  502 -0.00000000000E+00 -0.00000000000E+00 -0.21432022883E+03  0.21432022883E+03  0.00000000000E+00 0. -1.
         21    1    1    2  503  505  0.26322152662E+02  0.90204103078E+02 -0.22327298589E+02  0.96582318232E+02  0.00000000000E+00 0. -1.
         21    1    1    2  504  506 -0.12731530871E+02 -0.38764148509E+02  0.12316114169E+03  0.12974366232E+03  0.00000000000E+00 0. -1.
         21    1    1    2  505  502  0.49366720308E+02 -0.44724843161E+02 -0.13378918213E+03  0.14945544461E+03  0.00000000000E+00 0. -1.
         21    1    1    2  506  503 -0.62957342099E+02 -0.67151114080E+01  0.90751061725E+02  0.11065475521E+03  0.00000000000E+00 0. -1.
<scales pt_clust_3="74.45574" pt_clust_4="40.80136" pt_clust_5="67.53566" pt_clust_6="14000.00000"></scales>
<clustering>
<clus scale="   40.801">  1  4  2 -1</clus>
<clus scale="   67.536">  2  5  1 -1</clus>
<clus scale="   74.456">  2  3  1 -1</clus>
<clus scale="   40.801">  1  3  2 -1</clus>
</clustering>
</event>
<event>
 6    0  0.1344929E+003  0.1189766E+03  0.7546771E-02  0.1244795E+00
         21   -1    0    0  506  501  0.00000000000E+00  0.00000000000E+00  0.24745598380E+03  0.24745598380E+03  0.00000000000E+00 0. -1.
         21   -1    0    0  505  502 -0.00000000000E+00 -0.00000000000E+00 -0.33135063347E+03  0.33135063347E+03  0.00000000000E+00 0.  1.
         21    1    1    2  503  502 -0.38161545806E+01 -0.30773449570E+02 -0.35121081747E+02  0.46851452670E+02  0.00000000000E+00 0.  1.
         21    1    1    2  504  503  0.65574258319E+01 -0.35798996034E+02 -0.11703307696E+03  0.12256145011E+03  0.00000000000E+00 0.  1.
         21    1    1    2  505  501 -0.10909191403E+03  0.71798961037E+01 -0.13421141841E+03  0.17310488568E+03  0.00000000000E+00 0.  1.
         21    1    1    2  506  504  0.10635064278E+03  0.59392549500E+02  0.20247092745E+03  0.23628882880E+03  0.00000000000E+00 0. -1.
<scales pt_clust_3="30.75911" pt_clust_4="74.49727" pt_clust_5="118.97661" pt_clust_6="14000.00000"></scales>
<clustering>
<clus scale="   30.759">  3  4 -1 -1</clus>
<clus scale="   74.497">  2  3  1 -1</clus>
<clus scale="  118.977">  2  5  1 -1</clus>
<clus scale="  118.977">  1  3  2 -1</clus>
</clustering>
</event>
<event>
 6    0  0.1344929E+003  0.2809659E+03  0.7546771E-02  0.1095163E+00
         21   -1    0    0  505  501  0.00000000000E+00  0.00000000000E+00  0.98242087733E+03  0.98242087733E+03  0.00000000000E+00 0. -1.
         21   -1    0    0  504  502 -0.00000000000E+00 -0.00000000000E+00 -0.23138899304E+03  0.23138899304E+03  0.00000000000E+00 0. -1.
         21    1    1    2  503  502  0.64413248614E+02  0.15049181293E+03 -0.52689116571E+02  0.17196800679E+03  0.00000000000E+00 0. -1.
         21    1    1    2  504  501 -0.24044405659E+03 -0.30422398734E+03  0.33244708025E+03  0.51077063345E+03  0.00000000000E+00 0. -1.
         21    1    1    2  505  506  0.13884114205E+03  0.12882662277E+03  0.43132239438E+03  0.47107554527E+03  0.00000000000E+00 0. -1.
         21    1    1    2  506  503  0.37189665925E+02  0.24905551639E+02  0.39951526223E+02  0.59995684858E+02  0.00000000000E+00 0.  1.
<scales pt_clust_3="163.69744" pt_clust_4="271.33873" pt_clust_5="35.44747" pt_clust_6="35.44747"></scales>
<clustering>
<clus scale="   35.447">  5  6 -1 -1</clus>
<clus scale="  163.697">  2  3  1 -1</clus>
<clus scale="  271.339">  2  4  1 -1</clus>
<clus scale="  280.966">  1  3  2 -1</clus>
</clustering>
</event>
<event>
 6    0  0.1344929E+003  0.8812953E+02  0.7546771E-02  0.1307446E+00
         21   -1    0    0  503  501  0.00000000000E+00  0.00000000000E+00  0.33690999314E+03  0.33690999314E+03  0.00000000000E+00 0. -1.
         21   -1    0    0  506  502 -0.00000000000E+00 -0.00000000000E+00 -0.48694307397E+03  0.48694307397E+03  0.00000000000E+00 0.  1.
         21    1    1    2  503  504 -0.59695084207E+02  0.65498497339E+02  0.27857255664E+03  0.29232896802E+03  0.00000000000E+00 0. -1.
         21    1    1    2  504  505  0.86074547996E+02 -0.34661789884E+02 -0.12856121166E+01  0.92800432592E+02  0.00000000000E+00 0. -1.
         21    1    1    2  505  502  0.22032151350E+01 -0.49608893028E+02 -0.35800375577E+03  0.36143130132E+03  0.00000000000E+00 0.  1.
         21    1    1    2  506  501 -0.28582678924E+02  0.18772185573E+02 -0.69316269583E+02  0.77292365177E+02  0.00000000000E+00 0.  1.
<scales pt_clust_3="14000.00000" pt_clust_4="88.12953" pt_clust_5="40.26155" pt_clust_6="34.19597"></scales>
<clustering>
<clus scale="   34.196">  2  6  1 -1</clus>
<clus scale="   40.262">  2  5  1 -1</clus>
<clus scale="   88.130">  2  4  1 -1</clus>
<clus scale="   88.130">  1  3  2 -1</clus>
</clustering>
</event>
<event>
 6    0  0.1344929E+003  0.9676113E+02  0.7546771E-02  0.1287258E+00
         21   -1    0    0  503  501  0.00000000000E+00  0.00000000000E+00  0.13887561946E+03  0.13887561946E+03  0.00000000000E+00 0. -1.
         21   -1    0    0  504  502 -0.00000000000E+00 -0.00000000000E+00 -0.11514430459E+04  0.11514430459E+04  0.00000000000E+00 0.  1.
         21    1    1    2  503  506 -0.46365313458E+02 -0.73515776433E+02  0.53086914032E+02  0.10184562886E+03  0.00000000000E+00 0. -1.
         21    1    1    2  504  501  0.22832779969E+02 -0.91802251620E+02 -0.20436802727E+03  0.22520053244E+03  0.00000000000E+00 0. -1.
         21    1    1    2  505  502 -0.17068519062E+02  0.32896612039E+02 -0.81702679947E+03  0.81786692835E+03  0.00000000000E+00 0.  1.
         21    1    1    2  506  505  0.40601052552E+02  0.13242141601E+03 -0.44259513702E+02  0.14540557569E+03  0.00000000000E+00 0. -1.
<scales pt_clust_3="96.76113" pt_clust_4="71.63530" pt_clust_5="37.06105" pt_clust_6="14000.00000"></scales>
<clustering>
<clus scale="   37.061">  2  5  1 -1</clus>
<clus scale="   71.635">  2  4  1 -1</clus>
<clus scale="   96.761">  1  3  2 -1</clus>
<clus scale="   96.761">  1  3  2 -1</clus>
</clustering>
</event>
<event>
 6    0  0.1344929E+003  0.7886285E+02  0.7546771E-02  0.1332310E+00
         21   -1    0    0  504  501  0.00000000000E+00  0.00000000000E+00  0.58474986853E+02  0.58474986853E+02  0.00000000000E+00 0. -1.
         21   -1    0    0  506  502 -0.00000000000E+00 -0.00000000000E+00 -0.50369807338E+03  0.50369807338E+03  0.00000000000E+00 0.  1.
         21    1    1    2  503  501 -0.14805587950E+02  0.39714255707E+02 -0.39263240072E+02  0.57775683136E+02  0.00000000000E+00 0.  1.
         21    1    1    2  504  505 -0.14310394131E+02 -0.71064602914E+02 -0.68848004695E+02  0.99975061480E+02  0.00000000000E+00 0. -1.
         21    1    1    2  505  502 -0.46795280893E+02 -0.23485514625E+02 -0.29861870579E+03  0.30317404103E+03  0.00000000000E+00 0.  1.
         21    1    1    2  506  503  0.75911262973E+02  0.54835861832E+02 -0.38493135974E+02  0.10124827458E+03  0.00000000000E+00 0. -1.
<scales pt_clust_3="42.38428" pt_clust_4="78.86285" pt_clust_5="52.18250" pt_clust_6="14000.00000"></scales>
<clustering>
<clus scale="   42.384">  1  3  2 -1</clus>
<clus scale="   52.183">  2  5  1 -1</clus>
<clus scale="   78.863">  1  4  2 -1</clus>
<clus scale="   42.384">  1  3  2 -1</clus>
</clustering>
</event>
<event>
 6    0  0.1344929E+003  0.8320228E+02  0.7546771E-02  0.1320202E+00
         21   -1    0    0  504  501  0.00000000000E+00  0.00000000000E+00  0.26046580895E+04  0.26046580895E+04  0.00000000000E+00 0.  1.
         21   -1    0    0  506  502 -0.00000000000E+00 -0.00000000000E+00 -0.19189662069E+03  0.19189662069E+03  0.00000000000E+00 0. -1.
         21    1    1    2  503  505  0.11137356606E+03  0.44029557965E+02  0.50251163632E+03  0.51658553776E+03  0.00000000000E+00 0. -1.
         21    1    1    2  504  503 -0.30875041206E+02 -0.94960196145E+01  0.12386428092E+03  0.12800704139E+03  0.00000000000E+00 0. -1.
         21    1    1    2  505  502 -0.59699539268E+02  0.18562965972E+02 -0.17701635864E+03  0.18773228257E+03  0.00000000000E+00 0. -1.
         21    1    1    2  506  501 -0.20798985584E+02 -0.53096504322E+02  0.19634019102E+04  0.19642298485E+04  0.00000000000E+00 0.  1.
<scales pt_clust_3="14000.00000" pt_clust_4="32.30236" pt_clust_5="62.57659" pt_clust_6="83.20228"></scales>
<clustering>
<clus scale="   32.302">  1  4  2 -1</clus>
<clus scale="   62.577">  2  5  1 -1</clus>
<clus scale="   83.202">  1  6  2 -1</clus>
<clus scale="   32.302">  1  3  2 -1</clus>
</clustering>
</event>
<event>
 6    0  0.1344929E+003  0.6933172E+02  0.7546771E-02  0.1362380E+00
         21   -1    0    0  506  501  0.00000000000E+00  0.00000000000E+00  0.28549727297E+04  0.28549727297E+04  0.00000000000E+00 0. -1.
         21   -1    0    0  504  502 -0.00000000000E+00 -0.00000000000E+00 -0.18078146244E+02  0.18078146244E+02  0.00000000000E+00 0. -1.
         21    1    1    2  503  505  0.25460984285E+02  0.98133241717E+02  0.46201298264E+03  0.47300569867E+03  0.00000000000E+00 0. -1.
         21    1    1    2  504  503  0.83640601999E+01 -0.63727914303E+02  0.78271057423E+02  0.10127962774E+03  0.00000000000E+00 0. -1.
         21    1    1    2  505  501  0.26247120812E+02 -0.26176731746E+02  0.66923644841E+03  0.67026230426E+03  0.00000000000E+00 0. -1.
         21    1    1    2  506  502 -0.60072165297E+02 -0.82285956686E+01  0.16273740950E+04  0.16285032452E+04  0.00000000000E+00 0. -1.
<scales pt_clust_3="69.33172" pt_clust_4="14000.00000" pt_clust_5="37.06930" pt_clust_6="49.09885"></scales>
<clustering>
<clus scale="   37.069">  1  5  2 -1</clus>
<clus scale="   49.099">  1  6  2 -1</clus>
<clus scale="   69.332">  1  3  2 -1</clus>
<clus scale="   37.069">  1  3  2 -1</clus>
</clustering>
</event>
<event>
 6    0  0.1344929E+003  0.7041773E+02  0.7546771E-02  0.1358678E+00
         21   -1    0    0  505  501  0.00000000000E+00  0.00000000000E+00  0.68945021724E+03  0.68945021724E+03  0.00000000000E+00 0. -1.
         21   -1    0    0  504  502 -0.00000000000E+00 -0.00000000000E+00 -0.22424313577E+03  0.22424313577E+03  0.00000000000E+00 0. -1.
         21    1    1    2  503  501 -0.36061086662E+02 -0.39321963696E+02  0.59368748756E+03  0.59608007154E+03  0.00000000000E+00 0. -1.
         21    1    1    2  504  506 -0.95932292403E+01 -0.31796656694E+02 -0.88521568232E+02  0.94546948477E+02  0.00000000000E+00 0. -1.
         21    1    1    2  505  502  0.97447881583E+02  0.72001573437E+02  0.40173288417E+02  0.12764877322E+03  0.00000000000E+00 0.  1.
         21    1    1    2  506  503 -0.51793565680E+02 -0.88295304623E+00 -0.80132126269E+02  0.95417559770E+02  0.00000000000E+00 0.  1.
<scales pt_clust_3="53.62357" pt_clust_4="33.21231" pt_clust_5="70.41773" pt_clust_6="14000.00000"></scales>
<clustering>
<clus scale="   33.212">  2  4  1 -1</clus>
<clus scale="   53.624">  1  3  2 -1</clus>
<clus scale="   70.418">  1  5  2 -1</clus>
<clus scale="   53.624">  1  3  2 -1</clus>
</clustering>
</event>
<event>
 6    0  0.1344929E+003  0.1123413E+03  0.7546771E-02  0.1256295E+00
         21   -1    0    0  506  501  0.00000000000E+00  0.00000000000E+00  0.36492865914E+03  0.36492865914E+03  0.00000000000E+00 0.  1.
         21   -1    0    0  503  502 -0.00000000000E+00 -0.00000000000E+00 -0.25542443022E+03  0.25542443022E+03  0.00000000000E+00 0. -1.
         21    1    1    2  503  504 -0.53523693055E+02  0.44588289460E+02 -0.17572891259E+03  0.18903320342E+03  0.00000000000E+00 0. -1.
         21    1    1    2  504  505  0.88421888434E+02 -0.57717495164E+02  0.92155783545E+02  0.14015144681E+03  0.00000000000E+00 0.  1.
         21    1    1    2  505  501 -0.44209244718E+01 -0.33804922271E+02  0.22444222964E+03  0.22701680949E+03  0.00000000000E+00 0.  1.
         21    1    1    2  506  502 -0.30477270906E+02  0.46934127975E+02 -0.31364871675E+02  0.64151629643E+02  0.00000000000E+00 0. -1.
<scales pt_clust_3="112.34127" pt_clust_4="14000.00000" pt_clust_5="34.09278" pt_clust_6="52.97006"></scales>
<clustering>
<clus scale="   34.093">  1  5  2 -1</clus>
<clus scale="   52.970">  2  6  1 -1</clus>
<clus scale="  112.341">  2  3  1 -1</clus>
<clus scale="   34.093">  1  3  2 -1</clus>
</clustering>
</event>
<event>
 6    0  0.1344929E+003  0.1122213E+03  0.7546771E-02  0.1256511E+00
         21   -1    0    0  504  501  0.00000000000E+00  0.00000000000E+00  0.24520363295E+03  0.24520363295E+03  0.00000000000E+00 0.  1.
         21   -1    0    0  506  502 -0.00000000000E+00 -0.00000000000E+00 -0.20936410720E+03  0.20936410720E+03  0.00000000000E+00 0.  1.
         21    1    1    2  503  501 -0.28970020564E+02  0.87584903759E+01  0.14572893997E+03  0.14883849364E+03  0.00000000000E+00 0.  1.
         21    1    1    2  504  502 -0.31906482710E+02 -0.12438040236E+03 -0.65073642152E+02  0.14395515633E+03  0.00000000000E+00 0.  1.
         21    1    1    2  505  503  0.12095900851E+02  0.10114044101E+03 -0.15457215488E+02  0.10302730287E+03  0.00000000000E+00 0.  1.
         21    1    1    2  506  505  0.48780602422E+02  0.14481470977E+02 -0.29358556583E+02  0.58746787308E+02  0.00000000000E+00 0.  1.
<scales pt_clust_3="30.26505" pt_clust_4="112.22134" pt_clust_5="14000.00000" pt_clust_6="47.15744"></scales>
<clustering>
<clus scale="   30.265">  1  3  2 -1</clus>
<clus scale="   47.157">  2  6  1 -1</clus>
<clus scale="  112.221">  2  4  1 -1</clus>
<clus scale="   30.265">  1  3  2 -1</clus>
</clustering>
</event>
<event>
 6    0  0.1344929E+003  0.2031297E+03  0.7546771E-02  0.1147125E+00
         21   -1    0    0  505  501  0.00000000000E+00  0.00000000000E+00  0.12588971942E+04  0.12588971942E+04  0.00000000000E+00 0.  1.
         21   -1    0    0  503  502 -0.00000000000E+00 -0.00000000000E+00 -0.48385620331E+02  0.48385620331E+02  0.00000000000E+00 0.  1.
         21    1    1    2  503  504  0.48691550624E+01  0.14123712793E+03  0.23820445485E+03  0.27697111273E+03  0.00000000000E+00 0.  1.
         21    1    1    2  504  501 -0.30740330174E+02  0.34643242738E+02  0.10119375942E+03  0.11128925874E+03  0.00000000000E+00 0. -1.
         21    1    1    2  505  506  0.47064729864E+02  0.47864304489E+02  0.23359096197E+03  0.24304488877E+03  0.00000000000E+00 0.  1.
         21    1    1    2  506  502 -0.21193554752E+02 -0.22374467515E+03  0.63752239761E+03  0.67597755427E+03  0.00000000000E+00 0.  1.
<scales pt_clust_3="35.98770" pt_clust_4="35.98770" pt_clust_5="67.12734" pt_clust_6="193.15780"></scales>
<clustering>
<clus scale="   35.988">  3  4 -1 -1</clus>
<clus scale="   67.127">  1  5  2 -1</clus>
<clus scale="  193.158">  1  6  2 -1</clus>
<clus scale="   67.127">  1  3  2 -1</clus>
</clustering>
</event>
<event>
 6    0  0.1344929E+003  0.8804220E+02  0.7546771E-02  0.1307663E+00
         21   -1    0    0  504  501  0.00000000000E+00  0.00000000000E+00  0.32671910974E+03  0.32671910974E+03  0.00000000000E+00 0.  1.
         21   -1    0    0  503  502 -0.00000000000E+00 -0.00000000000E+00 -0.13218693175E+03  0.13218693175E+03  0.00000000000E+00 0.  1.
         21    1    1    2  503  505  0.10480909932E+02 -0.34497507854E+02  0.64771518743E+01  0.36631694167E+02  0.00000000000E+00 0.  1.
         21    1    1    2  504  506 -0.10327579043E+03 -0.87928375264E+02  0.29855411687E+02  0.13888352557E+03  0.00000000000E+00 0.  1.
         21    1    1    2  505  501  0.39888949382E+02  0.71256915559E+02  0.18723493522E+03  0.20426844413E+03  0.00000000000E+00 0.  1.
         21    1    1    2  506  502  0.52905931121E+02  0.51168967559E+02 -0.29035320791E+02  0.79122377633E+02  0.00000000000E+00 0.  1.
<scales pt_clust_3="36.05451" pt_clust_4="88.04220" pt_clust_5="14000.00000" pt_clust_6="67.64869"></scales>
<clustering>
<clus scale="   36.055">  2  3  1 -1</clus>
<clus scale="   67.649">  2  6  1 -1</clus>
<clus scale="   88.042">  2  4  1 -1</clus>
<clus scale="   88.042">  1  3  2 -1</clus>
</clustering>
</event>
<event>
 6    0  0.1344929E+003  0.1423210E+03  0.7546771E-02  0.1210240E+00
         21   -1    0    0  505  501  0.00000000000E+00  0.00000000000E+00  0.59043328424E+03  0.59043328424E+03  0.00000000000E+00 0. -1.
         21   -1    0    0  506  502 -0.00000000000E+00 -0.00000000000E+00 -0.48873631226E+03  0.48873631226E+03  0.00000000000E+00 0. -1.
         21    1    1    2  503  501 -0.46893364850E+02  0.16350973758E+02  0.29935423235E+02  0.57986822417E+02  0.00000000000E+00 0.  1.
         21    1    1    2  504  503 -0.89194574372E+02  0.33700438511E+01 -0.12960424297E+03  0.15736673438E+03  0.00000000000E+00 0. -1.
         21    1    1    2  505  502  0.19614300287E+03 -0.55654045124E+01  0.51137342470E+03  0.54772788024E+03  0.00000000000E+00 0. -1.
         21    1    1    2  506  504 -0.60055063652E+02 -0.14155613097E+02 -0.31000763298E+03  0.31608815947E+03  0.00000000000E+00 0. -1.
<scales pt_clust_3="49.66228" pt_clust_4="142.32099" pt_clust_5="14000.00000" pt_clust_6="61.93406"></scales>
<clustering>
<clus scale="   49.662">  1  3  2 -1</clus>
<clus scale="   61.934">  2  6  1 -1</clus>
<clus scale="  142.321">  2  4  1 -1</clus>
<clus scale="   49.662">  1  3  2 -1</clus>
</clustering>
</event>
<event>
 6    0  0.1535432E+003  0.8028310E+02  0.7546771E-02  0.1328250E+00
         21   -1    0    0  506  501  0.00000000000E+00  0.00000000000E+00  0.75007678976E+03  0.75007678976E+03  0.00000000000E+00 0. -1.
         21   -1    0    0  504  502 -0.00000000000E+00 -0.00000000000E+00 -0.44376335277E+03  0.44376335277E+03  0.00000000000E+00 0. -1.
         21    1    1    2  503  502  0.62401354291E+02 -0.51194519733E+02 -0.42493981855E+03  0.43253746341E+03  0.00000000000E+00 0. -1.
         21    1    1    2  504  501 -0.14855330662E+02  0.39472040527E+02  0.16501674101E+03  0.17032101352E+03  0.00000000000E+00 0. -1.
         21    1    1    2  505  503 -0.89396187892E+02 -0.18362758609E+02  0.18509665699E+03  0.20637257992E+03  0.00000000000E+00 0.  1.
         21    1    1    2  506  505  0.41850164264E+02  0.30085237815E+02  0.38113985755E+03  0.38460908569E+03  0.00000000000E+00 0. -1.
<scales pt_clust_3="14000.00000" pt_clust_4="42.17491" pt_clust_5="80.28310" pt_clust_6="64.56953"></scales>
<clustering>
<clus scale="   42.175">  1  4  2 -1</clus>
<clus scale="   64.570">  1  6  2 -1</clus>
<clus scale="   80.283">  1  5  2 -1</clus>
<clus scale="   42.175">  1  3  2 -1</clus>
</clustering>
</event>
<event>
 6    0  0.1344929E+003  0.1580667E+03  0.7546771E-02  0.1190897E+00
         21   -1    0    0  506  501  0.00000000000E+00  0.00000000000E+00  0.24918012304E+03  0.24918012304E+03  0.00000000000E+00 0.  1.
         21   -1    0    0  503  502 -0.00000000000E+00 -0.00000000000E+00 -0.16614370633E+04  0.16614370633E+04  0.00000000000E+00 0. -1.
         21    1    1    2  503  504 -0.40872530386E+02  0.18566201441E+02 -0.34160929950E+03  0.34454634098E+03  0.00000000000E+00 0. -1.
         21    1    1    2  504  505  0.87321866561E+02 -0.13134071244E+03 -0.20398851140E+03  0.25785035177E+03  0.00000000000E+00 0. -1.
         21    1    1    2  505  501 -0.59013573547E+01  0.16065379634E+03  0.19046185698E+03  0.24923921694E+03  0.00000000000E+00 0.  1.
         21    1    1    2  506  502 -0.40547978820E+02 -0.47879285339E+02 -0.10571209864E+04  0.10589812767E+04  0.00000000000E+00 0. -1.
<scales pt_clust_3="44.89173" pt_clust_4="14000.00000" pt_clust_5="158.06666" pt_clust_6="80.42311"></scales>
<clustering>
<clus scale="   44.892">  2  3  1 -1</clus>
<clus scale="   80.423">  2  6  1 -1</clus>
<clus scale="  158.067">  1  5  2 -1</clus>
<clus scale="  158.067">  1  3  2 -1</clus>
</clustering>
</event>
<event>
 6    0  0.1344929E+003  0.6755749E+02  0.7546771E-02  0.1368602E+00
         21   -1    0    0  503  501  0.00000000000E+00  0.00000000000E+00  0.40753505910E+03  0.40753505910E+03  0.00000000000E+00 0.  1.
         21   -1    0    0  506  502 -0.00000000000E+00 -0.00000000000E+00 -0.30795684043E+03  0.30795684043E+03  0.00000000000E+00 0. -1.
         21    1    1    2  503  505 -0.35438116975E+02 -0.29607244969E+01  0.36030485879E+03  0.36205554448E+03  0.00000000000E+00 0.  1.
         21    1    1    2  504  501  0.44449684438E+02 -0.34420757146E+02 -0.58929601270E+02  0.81444833323E+02  0.00000000000E+00 0. -1.
         21    1    1    2  505  502 -0.22314496119E+02  0.96783937994E+02 -0.56059397459E+02  0.11405140698E+03  0.00000000000E+00 0.  1.
         21    1    1    2  506  504  0.13302928656E+02 -0.59402456350E+02 -0.14573764138E+03  0.15794011475E+03  0.00000000000E+00 0. -1.
<scales pt_clust_3="35.56158" pt_clust_4="50.19507" pt_clust_5="67.55749" pt_clust_6="14000.00000"></scales>
<clustering>
<clus scale="   35.562">  1  3  2 -1</clus>
<clus scale="   50.195">  1  4  2 -1</clus>
<clus scale="   67.557">  1  5  2 -1</clus>
<clus scale="   35.562">  1  3  2 -1</clus>
</clustering>
</event>
<event>
 6    0  0.1344929E+003  0.8304876E+02  0.7546771E-02  0.1320616E+00
         21   -1    0    0  506  501  0.00000000000E+00  0.00000000000E+00  0.54946764934E+03  0.54946764934E+03  0.00000000000E+00 0.  1.
         21   -1    0    0  505  502 -0.00000000000E+00 -0.00000000000E+00 -0.29122439750E+03  0.29122439750E+03  0.00000000000E+00 0.  1.
         21    1    1    2  503  501  0.11764282610E+03  0.25391936971E+02 -0.52853210371E+02  0.13144598451E+03  0.00000000000E+00 0.  1.
         21    1    1    2  504  502 -0.53713094592E+02 -0.98465729753E+02  0.39251319659E+03  0.40822445537E+03  0.00000000000E+00 0.  1.
         21    1    1    2  505  503 -0.52857946679E+02  0.14965476436E+02 -0.17881713204E+03  0.18706548245E+03  0.00000000000E+00 0.  1.
         21    1    1    2  506  504 -0.11071784832E+02  0.58108316346E+02  0.97400397664E+02  0.11395612451E+03  0.00000000000E+00 0.  1.
<scales pt_clust_3="14000.00000" pt_clust_4="83.04876" pt_clust_5="54.93567" pt_clust_6="61.14928"></scales>
<clustering>
<clus scale="   54.936">  2  5  1 -1</clus>
<clus scale="   61.149">  1  6  2 -1</clus>
<clus scale="   83.049">  1  4  2 -1</clus>
<clus scale="   61.149">  1  3  2 -1</clus>
</clustering>
</event>
<event>
 6    0  0.1344929E+003  0.9934820E+02  0.7546771E-02  0.1281673E+00
         21   -1    0    0  506  501  0.00000000000E+00  0.00000000000E+00  0.44147070147E+03  0.44147070147E+03  0.00000000000E+00 0. -1.
         21   -1    0    0  504  502 -0.00000000000E+00 -0.00000000000E+00 -0.54326282387E+02  0.54326282387E+02  0.00000000000E+00 0.  1.
         21    1    1    2  503  502  0.77758733719E+02 -0.68042631097E+02  0.16469386908E+03  0.19442296888E+03  0.00000000000E+00 0. -1.
         21    1    1    2  504  505 -0.77934703437E+02  0.58879527488E+02  0.48946852710E+02  0.10925388390E+03  0.00000000000E+00 0.  1.
         21    1    1    2  505  501 -0.17730789695E+02 -0.30676275552E+02  0.51313473670E+02  0.62357737010E+02  0.00000000000E+00 0.  1.
         21    1    1    2  506  503  0.17906759413E+02  0.39839379161E+02  0.12219022362E+03  0.12976239406E+03  0.00000000000E+00 0. -1.
<scales pt_clust_3="99.34820" pt_clust_4="14000.00000" pt_clust_5="35.43183" pt_clust_6="32.15550"></scales>
<clustering>
<clus scale="   35.432">  1  5  2 -1</clus>
<clus scale="   32.156">  1  6  2 -1</clus>
<clus scale="   99.348">  1  3  2 -1</clus>
<clus scale="   35.432">  1  3  2 -1</clus>
</clustering>
</event>
<event>
 6    0  0.1344929E+003  0.1281626E+03  0.7546771E-02  0.1230208E+00
         21   -1    0    0  504  501  0.00000000000E+00  0.00000000000E+00  0.68003177913E+03  0.68003177913E+03  0.00000000000E+00 0. -1.
         21   -1    0    0  503  502 -0.00000000000E+00 -0.00000000000E+00 -0.76847393774E+02  0.76847393774E+02  0.00000000000E+00 0.  1.
         21    1    1    2  503  505  0.25958239547E+02  0.26763015862E+02  0.18668981422E+02  0.41696763492E+02  0.00000000000E+00 0.  1.
         21    1    1    2  504  506  0.42734554476E+02 -0.13672158329E+03  0.46142139445E+03  0.48314463335E+03  0.00000000000E+00 0. -1.
         21    1    1    2  505  501 -0.27151161785E+02  0.10151845042E+03  0.14902113902E+03  0.18234714485E+03  0.00000000000E+00 0. -1.
         21    1    1    2  506  502 -0.41541632237E+02  0.84401170135E+01 -0.25927129532E+02  0.49690631208E+02  0.00000000000E+00 0.  1.
<scales pt_clust_3="37.28390" pt_clust_4="128.16262" pt_clust_5="14000.00000" pt_clust_6="35.71879"></scales>
<clustering>
<clus scale="   37.284">  2  3  1 -1</clus>
<clus scale="   35.719">  2  6  1 -1</clus>
<clus scale="  128.163">  1  4  2 -1</clus>
<clus scale="  128.163">  1  3  2 -1</clus>
</clustering>
</event>
<event>
 6    0  0.1344929E+003  0.1534163E+03  0.7546771E-02  0.1196337E+00
         21   -1    0    0  504  501  0.00000000000E+00  0.00000000000E+00  0.80226310432E+02  0.80226310432E+02  0.00000000000E+00 0. -1.
         21   -1    0    0  505  502 -0.00000000000E+00 -0.00000000000E+00 -0.84107253100E+03  0.84107253100E+03  0.00000000000E+00 0.  1.
         21    1    1    2  503  506 -0.55318590487E+02  0.27437161167E+02 -0.28881918136E+02  0.68169710734E+02  0.00000000000E+00 0. -1.
         21    1    1    2  504  503 -0.94142485124E+02 -0.13819372948E+02 -0.77177990345E+00  0.95154496574E+02  0.00000000000E+00 0. -1.
         21    1    1    2  505  501  0.12029732825E+03  0.40702878491E+01 -0.27110145750E+03  0.29662099502E+03  0.00000000000E+00 0.  1.
         21    1    1    2  506  502  0.29163747357E+02 -0.17688076068E+02 -0.46009106503E+03  0.46135363910E+03  0.00000000000E+00 0.  1.
<scales pt_clust_3="45.21386" pt_clust_4="45.21386" pt_clust_5="142.35580" pt_clust_6="34.10854"></scales>
<clustering>
<clus scale="   34.109">  2  6  1 -1</clus>
<clus scale="   45.214">  3  4 -1 -1</clus>
<clus scale="  142.356">  2  5  1 -1</clus>
<clus scale="  153.416">  1  3  2 -1</clus>
</clustering>
</event>
<event>
 6    0  0.1344929E+003  0.1195738E+03  0.7546771E-02  0.1243802E+00
         21   -1    0    0  505  501  0.00000000000E+00  0.00000000000E+00  0.52913929169E+03  0.52913929169E+03  0.00000000000E+00 0.  1.
         21   -1    0    0  503  502 -0.00000000000E+00 -0.00000000000E+00 -0.62663482868E+03  0.62663482868E+03  0.00000000000E+00 0.  1.
         21    1    1    2  503  506 -0.11181492353E+03 -0.10135269347E+03 -0.55551106166E+03  0.57564527726E+03  0.00000000000E+00 0.  1.
         21    1    1    2  504  501  0.25445618882E+02 -0.33182717797E+02  0.10530141720E+03  0.11330031220E+03  0.00000000000E+00 0.  1.
         21    1    1    2  505  502  0.58464337886E+02 -0.36385913763E+01 -0.24983771418E+02  0.63682862577E+02  0.00000000000E+00 0.  1.
         21    1    1    2  506  504  0.27904966764E+02  0.13817400264E+03  0.37769787889E+03  0.40314566833E+03  0.00000000000E+00 0.  1.
<scales pt_clust_3="119.57382" pt_clust_4="41.81593" pt_clust_5="59.86057" pt_clust_6="14000.00000"></scales>
<clustering>
<clus scale="   41.816">  1  4  2 -1</clus>
<clus scale="   59.861">  2  5  1 -1</clus>
<clus scale="  119.574">  2  3  1 -1</clus>
<clus scale="   41.816">  1  3  2 -1</clus>
</clustering>
</event>
<event>
 6    0  0.1344929E+003  0.8123563E+02  0.7546771E-02  0.1325581E+00
         21   -1    0    0  505  501  0.00000000000E+00  0.00000000000E+00  0.10325456190E+03  0.10325456190E+03  0.00000000000E+00 0. -1.
         21   -1    0    0  506  502 -0.00000000000E+00 -0.00000000000E+00 -0.66742561420E+03  0.66742561420E+03  0.00000000000E+00 0.  1.
         21    1    1    2  503  502 -0.89173476978E+02 -0.47100108957E+02 -0.38555590362E+03  0.39852689254E+03  0.00000000000E+00 0.  1.
         21    1    1    2  504  501  0.23536406665E+00  0.68767443346E+02  0.34321195773E+02  0.76856757282E+02  0.00000000000E+00 0. -1.
         21    1    1    2  505  503  0.29805127068E+02 -0.52315057107E+02  0.11402247976E+02  0.61279866666E+02  0.00000000000E+00 0. -1.
         21    1    1    2  506  504  0.59132985843E+02  0.30647722718E+02 -0.22433859243E+03  0.23401665961E+03  0.00000000000E+00 0. -1.
<scales pt_clust_3="81.23563" pt_clust_4="35.56991" pt_clust_5="60.20972" pt_clust_6="14000.00000"></scales>
<clustering>
<clus scale="   60.210">  1  5  2 -1</clus>
<clus scale="   35.570">  1  4  2 -1</clus>
<clus scale="   81.236">  1  3  2 -1</clus>
<clus scale="   60.210">  1  3  2 -1</clus>
</clustering>
</event>
<event>
 6    0  0.1344929E+003  0.7336805E+02  0.7546771E-02  0.1349000E+00
         21   -1    0    0  504  501  0.00000000000E+00  0.00000000000E+00  0.92306648604E+03  0.92306648604E+03  0.00000000000E+00 0.  1.
         21   -1    0    0  505  502 -0.00000000000E+00 -0.00000000000E+00 -0.14733765735E+03  0.14733765735E+03  0.00000000000E+00 0.  1.
         21    1    1    2  503  502  0.19625045108E+02 -0.62683071559E+02 -0.34292967399E+02  0.74096676502E+02  0.00000000000E+00 0.  1.
         21    1    1    2  504  503  0.56926186946E+02 -0.55912068274E+02  0.12796342447E+03  0.15080248055E+03  0.00000000000E+00 0.  1.
         21    1    1    2  505  506 -0.49300793383E+02  0.50586632980E+02 -0.64323557838E+02  0.95535834938E+02  0.00000000000E+00 0.  1.
         21    1    1    2  506  501 -0.27250438671E+02  0.68008506854E+02  0.74638192946E+03  0.74996915139E+03  0.00000000000E+00 0.  1.
<scales pt_clust_3="65.68341" pt_clust_4="73.36805" pt_clust_5="32.61751" pt_clust_6="14000.00000"></scales>
<clustering>
<clus scale="   65.683">  2  3  1 -1</clus>
<clus scale="   32.618">  2  5  1 -1</clus>
<clus scale="   73.368">  2  4  1 -1</clus>
<clus scale="   73.368">  1  3  2 -1</clus>
</clustering>
</event>
<event>
 6    0  0.1344929E+003  0.8139132E+02  0.7546771E-02  0.1325149E+00
         21   -1    0    0  505  501  0.00000000000E+00  0.00000000000E+00  0.19833755891E+03  0.19833755891E+03  0.00000000000E+00 0. -1.
         21   -1    0    0  504  502 -0.00000000000E+00 -0.00000000000E+00 -0.43236086089E+03  0.43236086089E+03  0.00000000000E+00 0. -1.
         21    1    1    2  503  506 -0.10284851311E+03 -0.28537447723E+02 -0.27975900976E+03  0.29942829879E+03  0.00000000000E+00 0. -1.
         21    1    1    2  504  501  0.96662540992E+02  0.28466086286E+02  0.14234925113E+03  0.17440548787E+03  0.00000000000E+00 0. -1.
         21    1    1    2  505  503 -0.51156566638E+02 -0.10582546713E+02 -0.11182462025E+02  0.53423141634E+02  0.00000000000E+00 0.  1.
         21    1    1    2  506  502  0.57342538761E+02  0.10653908151E+02 -0.85431081321E+02  0.10344149151E+03  0.00000000000E+00 0. -1.
<scales pt_clust_3="14000.00000" pt_clust_4="54.37515" pt_clust_5="52.23968" pt_clust_6="81.39132"></scales>
<clustering>
<clus scale="   52.240">  1  5  2 -1</clus>
<clus scale="   54.375">  1  4  2 -1</clus>
<clus scale="   81.391">  2  6  1 -1</clus>
<clus scale="   52.240">  1  3  2 -1</clus>
</clustering>
</event>
<event>
 6    0  0.1344929E+003  0.1746620E+03  0.7546771E-02  0.1173072E+00
         21   -1    0    0  506  501  0.00000000000E+00  0.00000000000E+00  0.78007078437E+03  0.78007078437E+03  0.00000000000E+00 0. -1.
         21   -1    0    0  504  502 -0.00000000000E+00 -0.00000000000E+00 -0.19854019664E+03  0.19854019664E+03  0.00000000000E+00 0. -1.
         21    1    1    2  503  501 -0.10911963265E+03 -0.37651703801E+02  0.33666141971E+03  0.35590118930E+03  0.00000000000E+00 0. -1.
         21    1    1    2  504  503 -0.14091454953E+03  0.72418579514E+02 -0.61913916992E+02  0.17010201070E+03  0.00000000000E+00 0. -1.
         21    1    1    2  505  502  0.22400293711E+03 -0.77981548239E+02  0.13360114843E+03  0.27222730312E+03  0.00000000000E+00 0. -1.
         21    1    1    2  506  505  0.26031245071E+02  0.43214672525E+02  0.17318193658E+03  0.18038047788E+03  0.00000000000E+00 0. -1.
<scales pt_clust_3="95.05020" pt_clust_4="14000.00000" pt_clust_5="174.66198" pt_clust_6="50.44932"></scales>
<clustering>
<clus scale="   50.449">  1  6  2 -1</clus>
<clus scale="   95.050">  1  3  2 -1</clus>
<clus scale="  174.662">  1  5  2 -1</clus>
<clus scale="   50.449">  1  3  2 -1</clus>
</clustering>
</event>
<event>
 6    0  0.1344929E+003  0.1118536E+03  0.7546771E-02  0.1257175E+00
         21   -1    0    0  503  501  0.00000000000E+00  0.00000000000E+00  0.16727474047E+04  0.16727474047E+04  0.00000000000E+00 0. -1.
         21   -1    0    0  504  502 -0.00000000000E+00 -0.00000000000E+00 -0.30539073822E+02  0.30539073822E+02  0.00000000000E+00 0. -1.
         21    1    1    2  503  506  0.37314434865E+02 -0.69447259911E+02  0.82184520366E+03  0.82561784607E+03  0.00000000000E+00 0. -1.
         21    1    1    2  504  505  0.71828036938E+02 -0.55713714929E+02  0.17444019352E+03  0.19670451453E+03  0.00000000000E+00 0. -1.
         21    1    1    2  505  501 -0.20811985942E+02 -0.29114306549E+02  0.14774413939E+03  0.15201681594E+03  0.00000000000E+00 0. -1.
         21    1    1    2  506  502 -0.88330485861E+02  0.15427528139E+03  0.49817879431E+03  0.52894730199E+03  0.00000000000E+00 0. -1.
<scales pt_clust_3="89.09114" pt_clust_4="14000.00000" pt_clust_5="35.78801" pt_clust_6="111.85359"></scales>
<clustering>
<clus scale="   35.788">  1  5  2 -1</clus>
<clus scale="   89.091">  1  3  2 -1</clus>
<clus scale="  111.854">  1  6  2 -1</clus>
<clus scale="   35.788">  1  3  2 -1</clus>
</clustering>
</event>
<event>
 6    0  0.1344929E+003  0.2266459E+03  0.7546771E-02  0.1129023E+00
         21   -1    0    0  504  501  0.00000000000E+00  0.00000000000E+00  0.40675283677E+04  0.40675283677E+04  0.00000000000E+00 0.  1.
         21   -1    0    0  506  502 -0.00000000000E+00 -0.00000000000E+00 -0.10168136003E+03  0.10168136003E+03  0.00000000000E+00 0.  1.
         21    1    1    2  503  502 -0.26526845115E+02 -0.14119426178E+02 -0.63635292843E+02  0.70373874432E+02  0.00000000000E+00 0.  1.
         21    1    1    2  504  503  0.47106139033E+02 -0.69123856528E+01  0.35831518776E+03  0.36146444250E+03  0.00000000000E+00 0.  1.
         21    1    1    2  505  501 -0.13743878503E+03 -0.19468355605E+03  0.31743297761E+04  0.31832625770E+04  0.00000000000E+00 0.  1.
         21    1    1    2  506  505  0.11685949111E+03  0.21571536788E+03  0.49683733662E+03  0.55410883377E+03  0.00000000000E+00 0.  1.
<scales pt_clust_3="30.05049" pt_clust_4="46.51894" pt_clust_5="226.64587" pt_clust_6="14000.00000"></scales>
<clustering>
<clus scale="   30.050">  2  3  1 -1</clus>
<clus scale="   46.519">  1  4  2 -1</clus>
<clus scale="  226.646">  1  5  2 -1</clus>
<clus scale="   46.519">  1  3  2 -1</clus>
</clustering>
</event>
<event>
 6    0  0.1344929E+003  0.1165845E+03  0.7546771E-02  0.1248840E+00
         21   -1    0    0  503  501  0.00000000000E+00  0.00000000000E+00  0.82282869323E+03  0.82282869323E+03  0.00000000000E+00 0. -1.
         21   -1    0    0  501  502 -0.00000000000E+00 -0.00000000000E+00 -0.12911929352E+03  0.12911929352E+03  0.00000000000E+00 0. -1.
         21    1    1    2  503  504  0.47120281346E+02 -0.36383634161E+02  0.47197445761E+03  0.47571417719E+03  0.00000000000E+00 0. -1.
         21    1    1    2  504  505  0.36298461749E+02  0.98592474123E+02  0.31117433783E+03  0.32843191501E+03  0.00000000000E+00 0. -1.
         21    1    1    2  505  506 -0.26505770010E+02 -0.54003094569E+02 -0.44750996618E+02  0.74976941557E+02  0.00000000000E+00 0. -1.
         21    1    1    2  506  502 -0.56912973084E+02 -0.82057453932E+01 -0.44688399109E+02  0.72824952988E+02  0.00000000000E+00 0. -1.
<scales pt_clust_3="59.53226" pt_clust_4="102.83273" pt_clust_5="53.70439" pt_clust_6="53.70439"></scales>
<clustering>
<clus scale="   53.704">  5  6 -1 -1</clus>
<clus scale="   59.532">  1  3  2 -1</clus>
<clus scale="  102.833">  1  4  2 -1</clus>
<clus scale="   59.532">  1  3  2 -1</clus>
</clustering>
</event>
<event>
 6    0  0.1344929E+003  0.6723345E+02  0.7546771E-02  0.1369762E+00
         21   -1    0    0  505  501  0.00000000000E+00  0.00000000000E+00  0.41631694256E+03  0.41631694256E+03  0.00000000000E+00 0. -1.
         21   -1    0    0  503  502 -0.00000000000E+00 -0.00000000000E+00 -0.24367778544E+03  0.24367778544E+03  0.00000000000E+00 0. -1.
         21    1    1    2  503  506  0.21459888954E+01 -0.64956798711E+02 -0.19360746383E+03  0.20422497648E+03  0.00000000000E+00 0. -1.
         21    1    1    2  504  502 -0.33820362948E+02  0.10103101529E+03  0.49581909774E+02  0.11751361103E+03  0.00000000000E+00 0.  1.
         21    1    1    2  505  504  0.12972794680E+01 -0.48783235988E+02  0.51104745934E+02  0.70662451871E+02  0.00000000000E+00 0.  1.
         21    1    1    2  506  501  0.30377094584E+02  0.12709019408E+02  0.26555996525E+03  0.26759368862E+03  0.00000000000E+00 0. -1.
<scales pt_clust_3="67.23345" pt_clust_4="14000.00000" pt_clust_5="45.70142" pt_clust_6="32.92851"></scales>
<clustering>
<clus scale="   32.929">  1  6  2 -1</clus>
<clus scale="   45.701">  1  5  2 -1</clus>
<clus scale="   67.233">  2  3  1 -1</clus>
<clus scale="   32.929">  1  3  2 -1</clus>
</clustering>
</event>
<event>
 6    0  0.1344929E+003  0.1469437E+03  0.7546771E-02  0.1204280E+00
         21   -1    0    0  505  501  0.00000000000E+00  0.00000000000E+00  0.35457858499E+03  0.35457858499E+03  0.00000000000E+00 0.  1.
         21   -1    0    0  504  502 -0.00000000000E+00 -0.00000000000E+00 -0.12619009903E+04  0.12619009903E+04  0.00000000000E+00 0.  1.
         21    1    1    2  503  502  0.28516614427E+02 -0.74369953910E+02 -0.10253092219E+04  0.10283983119E+04  0.00000000000E+00 0.  1.
         21    1    1    2  504  506  0.70691929144E+02 -0.48888888508E+02 -0.15747946006E+03  0.17940806171E+03  0.00000000000E+00 0.  1.
         21    1    1    2  505  503 -0.17028929671E+03  0.14468473573E+03  0.17538935980E+03  0.28406609241E+03  0.00000000000E+00 0.  1.
         21    1    1    2  506  501  0.71080753136E+02 -0.21425893317E+02  0.10007691692E+03  0.12460710923E+03  0.00000000000E+00 0.  1.
<scales pt_clust_3="79.94048" pt_clust_4="146.94371" pt_clust_5="14000.00000" pt_clust_6="74.23976"></scales>
<clustering>
<clus scale="   74.240">  1  6  2 -1</clus>
<clus scale="   79.940">  2  3  1 -1</clus>
<clus scale="  146.944">  2  4  1 -1</clus>
<clus scale="   74.240">  1  3  2 -1</clus>
</clustering>
</event>
<event>
 6    0  0.1344929E+003  0.9493141E+02  0.7546771E-02  0.1291331E+00
         21   -1    0    0  503  501  0.00000000000E+00  0.00000000000E+00  0.81350032440E+03  0.81350032440E+03  0.00000000000E+00 0. -1.
         21   -1    0    0  504  502 -0.00000000000E+00 -0.00000000000E+00 -0.33245655203E+03  0.33245655203E+03  0.00000000000E+00 0.  1.
         21    1    1    2  503  505 -0.27412524631E+01 -0.35807709681E+02  0.22563337604E+03  0.22847347093E+03  0.00000000000E+00 0. -1.
         21    1    1    2  504  501 -0.34395793227E+02  0.45291108518E+02  0.55103222245E+03  0.55395926320E+03  0.00000000000E+00 0. -1.
         21    1    1    2  505  506 -0.68711183292E+02 -0.99871012236E+01 -0.26471922879E+02  0.74308354854E+02  0.00000000000E+00 0. -1.
         21    1    1    2  506  502  0.10584822898E+03  0.50370238727E+00 -0.26914990324E+03  0.28921578745E+03  0.00000000000E+00 0.  1.
<scales pt_clust_3="35.91248" pt_clust_4="38.74208" pt_clust_5="94.93141" pt_clust_6="14000.00000"></scales>
<clustering>
<clus scale="   35.912">  1  3  2 -1</clus>
<clus scale="   38.742">  1  4  2 -1</clus>
<clus scale="   94.931">  1  5  2 -1</clus>
<clus scale="   35.912">  1  3  2 -1</clus>
</clustering>
</event>
<event>
 6    0  0.1344929E+003  0.1118945E+03  0.7546771E-02  0.1257101E+00
         21   -1    0    0  504  501  0.00000000000E+00  0.00000000000E+00  0.51492202517E+03  0.51492202517E+03  0.00000000000E+00 0.  1.
         21   -1    0    0  503  502 -0.00000000000E+00 -0.00000000000E+00 -0.10994041970E+03  0.10994041970E+03  0.00000000000E+00 0. -1.
         21    1    1    2  503  501 -0.34427645338E+02  0.84076605284E+02  0.58483734470E+02  0.10804853316E+03  0.00000000000E+00 0. -1.
         21    1    1    2  504  505  0.19551440774E+02  0.23841947249E+02  0.19586368372E+03  0.19827576726E+03  0.00000000000E+00 0.  1.
         21    1    1    2  505  506  0.68899181358E+02  0.24932244282E+02  0.15880211690E+03  0.17489089836E+03  0.00000000000E+00 0.  1.
         21    1    1    2  506  502 -0.54022976795E+02 -0.13285079681E+03 -0.81679296106E+01  0.14364724609E+03  0.00000000000E+00 0. -1.
<scales pt_clust_3="111.89451" pt_clust_4="30.83338" pt_clust_5="87.57248" pt_clust_6="14000.00000"></scales>
<clustering>
<clus scale="   30.833">  1  4  2 -1</clus>
<clus scale="   87.572">  1  5  2 -1</clus>
<clus scale="  111.895">  1  3  2 -1</clus>
<clus scale="   30.833">  1  3  2 -1</clus>
</clustering>
</event>
<event>
 6    0  0.1344929E+003  0.1071334E+03  0.7546771E-02  0.1265972E+00
         21   -1    0    0  506  501  0.00000000000E+00  0.00000000000E+00  0.73237051732E+03  0.73237051732E+03  0.00000000000E+00 0.  1.
         21   -1    0    0  503  502 -0.00000000000E+00 -0.00000000000E+00 -0.90256421801E+02  0.90256421801E+02  0.00000000000E+00 0. -1.
         21    1    1    2  503  505  0.38957536268E+02 -0.10640356940E+02  0.67260849546E+02  0.78453353718E+02  0.00000000000E+00 0.  1.
         21    1    1    2  504  502 -0.30530382115E+01  0.11534428289E+03 -0.30925222619E+02  0.11945708030E+03  0.00000000000E+00 0. -1.
         21    1    1    2  505  501  0.91937485604E+01 -0.35139467830E+02  0.41646710071E+03  0.41804802737E+03  0.00000000000E+00 0.  1.
         21    1    1    2  506  504 -0.45098246616E+02 -0.69564458125E+02  0.18931136788E+03  0.20666847774E+03  0.00000000000E+00 0.  1.
<scales pt_clust_3="45.16585" pt_clust_4="14000.00000" pt_clust_5="36.32227" pt_clust_6="107.13338"></scales>
<clustering>
<clus scale="   36.322">  1  5  2 -1</clus>
<clus scale="   45.166">  1  3  2 -1</clus>
<clus scale="  107.133">  1  6  2 -1</clus>
<clus scale="   36.322">  1  3  2 -1</clus>
</clustering>
</event>
<event>
 6    0  0.1344929E+003  0.1422364E+03  0.7546771E-02  0.1210351E+00
         21   -1    0    0  505  501  0.00000000000E+00  0.00000000000E+00  0.12931574838E+04  0.12931574838E+04  0.00000000000E+00 0.  1.
         21   -1    0    0  501  502 -0.00000000000E+00 -0.00000000000E+00 -0.23521760757E+02  0.23521760757E+02  0.00000000000E+00 0.  1.
         21    1    1    2  503  502  0.11902451789E+03  0.73100951208E+02  0.38865423564E+03  0.41299237258E+03  0.00000000000E+00 0.  1.
         21    1    1    2  504  503 -0.53136877532E+02  0.41864369467E+01  0.14817177485E+03  0.15746723110E+03  0.00000000000E+00 0. -1.
         21    1    1    2  505  506  0.43146811628E+01 -0.29899271489E+02  0.44964720892E+03  0.45066084298E+03  0.00000000000E+00 0.  1.
         21    1    1    2  506  504 -0.70202321525E+02 -0.47388116666E+02  0.28316250361E+03  0.29555879787E+03  0.00000000000E+00 0.  1.
<scales pt_clust_3="134.63586" pt_clust_4="35.05111" pt_clust_5="30.20899" pt_clust_6="35.05111"></scales>
<clustering>
<clus scale="   30.209">  1  5  2 -1</clus>
<clus scale="   35.051">  4  6 -1 -1</clus>
<clus scale="  134.636">  2  3  1 -1</clus>
<clus scale="   30.209">  1  3  2 -1</clus>
</clustering>
</event>
<event>
 6    0  0.1344929E+003  0.8079089E+02  0.7546771E-02  0.1326822E+00
         21   -1    0    0  502  501  0.00000000000E+00  0.00000000000E+00  0.10951852847E+03  0.10951852847E+03  0.00000000000E+00 0. -1.
         21   -1    0    0  504  502 -0.00000000000E+00 -0.00000000000E+00 -0.16655958345E+04  0.16655958345E+04  0.00000000000E+00 0. -1.
         21    1    1    2  503  506 -0.60350293960E+02 -0.77679942859E+02 -0.37979256006E+03  0.39232476366E+03  0.00000000000E+00 0. -1.
         21    1    1    2  504  503  0.47495886754E+02  0.60688107148E+01 -0.10548595429E+04  0.10559457112E+04  0.00000000000E+00 0. -1.
         21    1    1    2  505  501  0.78831892430E+02 -0.15988145522E+02  0.69737334779E+02  0.10645836709E+03  0.00000000000E+00 0. -1.
         21    1    1    2  506  505 -0.65977485224E+02  0.87599277667E+02 -0.19116253784E+03  0.22038552103E+03  0.00000000000E+00 0. -1.
<scales pt_clust_3="79.81548" pt_clust_4="47.88204" pt_clust_5="80.79089" pt_clust_6="14000.00000"></scales>
<clustering>
<clus scale="   47.882">  2  4  1 -1</clus>
<clus scale="   79.815">  2  3  1 -1</clus>
<clus scale="   80.791">  1  5  2 -1</clus>
<clus scale="   80.791">  1  3  2 -1</clus>
</clustering>
</event>
<event>
 6    0  0.1344929E+003  0.1023060E+03  0.7546771E-02  0.1275520E+00
         21   -1    0    0  503  501  0.00000000000E+00  0.00000000000E+00  0.23342120407E+03  0.23342120407E+03  0.00000000000E+00 0.  1.
         21   -1    0    0  506  502 -0.00000000000E+00 -0.00000000000E+00 -0.35168271725E+03  0.35168271725E+03  0.00000000000E+00 0. -1.
         21    1    1    2  503  504  0.38063077561E+02 -0.13647204411E+02  0.81877294368E+02  0.91317771516E+02  0.00000000000E+00 0.  1.
         21    1    1    2  504  502  0.72605175150E+02  0.97501942775E+02 -0.75479323889E+01  0.12179947285E+03  0.00000000000E+00 0.  1.
         21    1    1    2  505  501 -0.96061242383E+02  0.16129352801E+02  0.49785089328E+02  0.10939137731E+03  0.00000000000E+00 0.  1.
         21    1    1    2  506  505 -0.14607010328E+02 -0.99984091165E+02 -0.24237596449E+03  0.26259529965E+03  0.00000000000E+00 0. -1.
<scales pt_clust_3="40.43568" pt_clust_4="102.30596" pt_clust_5="75.93222" pt_clust_6="14000.00000"></scales>
<clustering>
<clus scale="   40.436">  1  3  2 -1</clus>
<clus scale="   75.932">  1  5  2 -1</clus>
<clus scale="  102.306">  1  4  2 -1</clus>
<clus scale="   40.436">  1  3  2 -1</clus>
</clustering>
</event>
<event>
 6    0  0.1344929E+003  0.8439209E+02  0.7546771E-02  0.1317030E+00
         21   -1    0    0  503  501  0.00000000000E+00  0.00000000000E+00  0.16105608980E+04  0.16105608980E+04  0.00000000000E+00 0.  1.
         21   -1    0    0  506  502 -0.00000000000E+00 -0.00000000000E+00 -0.42235639860E+03  0.42235639860E+03  0.00000000000E+00 0.  1.
         21    1    1    2  503  505  0.18102458826E+02  0.99067542876E+02  0.69502949497E+03  0.70228774441E+03  0.00000000000E+00 0.  1.
         21    1    1    2  504  501 -0.21334519018E+02 -0.27471321969E+02  0.64420601148E+03  0.64514434079E+03  0.00000000000E+00 0.  1.
         21    1    1    2  505  502  0.30946632525E+02  0.22599136050E+02 -0.40831126776E+03  0.41010548204E+03  0.00000000000E+00 0.  1.
         21    1    1    2  506  504 -0.27714572333E+02 -0.94195356956E+02  0.25728026070E+03  0.27537972935E+03  0.00000000000E+00 0. -1.
<scales pt_clust_3="14000.00000" pt_clust_4="34.78269" pt_clust_5="38.28885" pt_clust_6="84.39209"></scales>
<clustering>
<clus scale="   34.783">  1  4  2 -1</clus>
<clus scale="   38.289">  2  5  1 -1</clus>
<clus scale="   84.392">  2  6  1 -1</clus>
<clus scale="   34.783">  1  3  2 -1</clus>
</clustering>
</event>
<event>
 6    0  0.1344929E+003  0.7715140E+02  0.7546771E-02  0.1337335E+00
         21   -1    0    0  503  501  0.00000000000E+00  0.00000000000E+00  0.12836243001E+04  0.12836243001E+04  0.00000000000E+00 0.  1.
         21   -1    0    0  505  502 -0.00000000000E+00 -0.00000000000E+00 -0.55215490867E+02  0.55215490867E+02  0.00000000000E+00 0. -1.
         21    1    1    2  503  504  0.25633865291E+02 -0.29185635532E+02  0.96377383560E+03  0.96455632420E+03  0.00000000000E+00 0.  1.
         21    1    1    2  504  502  0.27937117446E+01 -0.86308298466E+02  0.75324706611E+02  0.11458943510E+03  0.00000000000E+00 0. -1.
         21    1    1    2  505  506  0.13615783446E+02  0.72166640004E+02  0.14640623887E+02  0.74884987522E+02  0.00000000000E+00 0. -1.
         21    1    1    2  506  501 -0.42043360482E+02  0.43327293993E+02  0.17466964310E+03  0.18480904411E+03  0.00000000000E+00 0. -1.
<scales pt_clust_3="38.84452" pt_clust_4="14000.00000" pt_clust_5="77.15140" pt_clust_6="38.55987"></scales>
<clustering>
<clus scale="   38.845">  1  3  2 -1</clus>
<clus scale="   38.560">  1  6  2 -1</clus>
<clus scale="   77.151">  2  5  1 -1</clus>
<clus scale="   38.845">  1  3  2 -1</clus>
</clustering>
</event>
<event>
 6    0  0.1344929E+003  0.1195054E+03  0.7546771E-02  0.1243915E+00
         21   -1    0    0  506  501  0.00000000000E+00  0.00000000000E+00  0.11222449221E+04  0.11222449221E+04  0.00000000000E+00 0. -1.
         21   -1    0    0  503  502 -0.00000000000E+00 -0.00000000000E+00 -0.48877855348E+03  0.48877855348E+03  0.00000000000E+00 0.  1.
         21    1    1    2  503  501  0.12273081694E+02 -0.44423486704E+02  0.33722381255E+02  0.57107562570E+02  0.00000000000E+00 0.  1.
         21    1    1    2  504  505 -0.15888997562E+03 -0.34785499064E+02  0.31868158157E+03  0.35779044946E+03  0.00000000000E+00 0. -1.
         21    1    1    2  505  502  0.11616577246E+03  0.23524009841E+02 -0.44845465073E+03  0.46385282094E+03  0.00000000000E+00 0.  1.
         21    1    1    2  506  504  0.30451121459E+02  0.55684975927E+02  0.72951705654E+03  0.73227264262E+03  0.00000000000E+00 0. -1.
<scales pt_clust_3="46.08768" pt_clust_4="14000.00000" pt_clust_5="119.50540" pt_clust_6="46.43186"></scales>
<clustering>
<clus scale="   46.088">  1  3  2 -1</clus>
<clus scale="   46.432">  1  6  2 -1</clus>
<clus scale="  119.505">  2  5  1 -1</clus>
<clus scale="   46.088">  1  3  2 -1</clus>
</clustering>
</event>
<event>
 6    0  0.1344929E+003  0.1203671E+03  0.7546771E-02  0.1242493E+00
         21   -1    0    0  504  501  0.00000000000E+00  0.00000000000E+00  0.46643754657E+02  0.46643754657E+02  0.00000000000E+00 0.  1.
         21   -1    0    0  503  502 -0.00000000000E+00 -0.00000000000E+00 -0.96768442121E+03  0.96768442121E+03  0.00000000000E+00 0.  1.
         21    1    1    2  503  506 -0.99513658827E+02 -0.85585446792E+02 -0.31873263677E+03  0.34470034920E+03  0.00000000000E+00 0.  1.
         21    1    1    2  504  505 -0.37280300549E+02  0.17420895915E+02 -0.36478916331E+02  0.54991088007E+02  0.00000000000E+00 0.  1.
         21    1    1    2  505  502  0.76349943846E+02  0.86706127358E+02 -0.52899885899E+03  0.54146750527E+03  0.00000000000E+00 0.  1.
         21    1    1    2  506  501  0.60444015530E+02 -0.18541576482E+02 -0.36830254462E+02  0.73169233394E+02  0.00000000000E+00 0.  1.
<scales pt_clust_3="120.36712" pt_clust_4="41.14983" pt_clust_5="14000.00000" pt_clust_6="43.50936"></scales>
<clustering>
<clus scale="   41.150">  1  4  2 -1</clus>
<clus scale="   43.509">  1  6  2 -1</clus>
<clus scale="  120.367">  1  3  2 -1</clus>
<clus scale="   41.150">  1  3  2 -1</clus>
</clustering>
</event>
<event>
 6    0  0.1344929E+003  0.6867470E+02  0.7546771E-02  0.1364659E+00
         21   -1    0    0  503  501  0.00000000000E+00  0.00000000000E+00  0.95944923703E+03  0.95944923703E+03  0.00000000000E+00 0.  1.
         21   -1    0    0  504  502 -0.00000000000E+00 -0.00000000000E+00 -0.18911260562E+03  0.18911260562E+03  0.00000000000E+00 0. -1.
         21    1    1    2  503  505  0.46909898597E+02  0.20669804195E+01  0.42765714452E+02  0.63511552705E+02  0.00000000000E+00 0. -1.
         21    1    1    2  504  506  0.75159692326E+02  0.90382122383E+01 -0.14531111791E+03  0.16384745839E+03  0.00000000000E+00 0. -1.
         21    1    1    2  505  502 -0.35479101963E+02 -0.41882556373E+02  0.12979553673E+02  0.56403758900E+02  0.00000000000E+00 0. -1.
         21    1    1    2  506  501 -0.86590488959E+02  0.30777363716E+02  0.85990248120E+03  0.86479907266E+03  0.00000000000E+00 0.  1.
<scales pt_clust_3="46.95541" pt_clust_4="14000.00000" pt_clust_5="68.67470" pt_clust_6="53.22099"></scales>
<clustering>
<clus scale="   46.955">  1  3  2 -1</clus>
<clus scale="   53.221">  1  6  2 -1</clus>
<clus scale="   68.675">  1  5  2 -1</clus>
<clus scale="   46.955">  1  3  2 -1</clus>
</clustering>
</event>
<event>
 6    0  0.1344929E+003  0.1073191E+03  0.7546771E-02  0.1265617E+00
         21   -1    0    0  505  501  0.00000000000E+00  0.00000000000E+00  0.74820110563E+03  0.74820110563E+03  0.00000000000E+00 0.  1.
         21   -1    0    0  504  502 -0.00000000000E+00 -0.00000000000E+00 -0.56915655176E+03  0.56915655176E+03  0.00000000000E+00 0.  1.
         21    1    1    2  503  502  0.12742066672E+03 -0.72381159091E+02 -0.34549008120E+02  0.15056125816E+03  0.00000000000E+00 0. -1.
         21    1    1    2  504  506 -0.31497756625E+02  0.15144447723E+02 -0.46881398356E+03  0.47011489462E+03  0.00000000000E+00 0.  1.
         21    1    1    2  505  503 -0.53568735814E+02  0.22999982042E+01  0.47421574458E+03  0.47723733284E+03  0.00000000000E+00 0.  1.
         21    1    1    2  506  501 -0.42354174278E+02  0.54936713163E+02  0.20819180096E+03  0.21944417176E+03  0.00000000000E+00 0.  1.
<scales pt_clust_3="107.31912" pt_clust_4="34.94943" pt_clust_5="54.10523" pt_clust_6="14000.00000"></scales>
<clustering>
<clus scale="   34.949">  2  4  1 -1</clus>
<clus scale="   54.105">  1  5  2 -1</clus>
<clus scale="  107.319">  2  3  1 -1</clus>
<clus scale="   54.105">  1  3  2 -1</clus>
</clustering>
</event>
<event>
 6    0  0.1344929E+003  0.9546754E+02  0.7546771E-02  0.1290127E+00
         21   -1    0    0  505  501  0.00000000000E+00  0.00000000000E+00  0.18928721162E+03  0.18928721162E+03  0.00000000000E+00 0.  1.
         21   -1    0    0  506  502 -0.00000000000E+00 -0.00000000000E+00 -0.53059656406E+03  0.53059656406E+03  0.00000000000E+00 0.  1.
         21    1    1    2  503  504  0.62864227543E+02 -0.42105994650E+02  0.12514504998E+03  0.14623990366E+03  0.00000000000E+00 0.  1.
         21    1    1    2  504  502  0.31492417841E+02  0.16926886498E+02 -0.99288352548E+02  0.10552946896E+03  0.00000000000E+00 0.  1.
         21    1    1    2  505  503 -0.15259364920E+02 -0.42708260635E+02  0.32037370915E+02  0.55526902303E+02  0.00000000000E+00 0.  1.
         21    1    1    2  506  501 -0.79097280464E+02  0.67887368787E+02 -0.39920342078E+03  0.41258750075E+03  0.00000000000E+00 0.  1.
<scales pt_clust_3="95.46754" pt_clust_4="35.75321" pt_clust_5="44.62942" pt_clust_6="14000.00000"></scales>
<clustering>
<clus scale="   35.753">  2  4  1 -1</clus>
<clus scale="   44.629">  1  5  2 -1</clus>
<clus scale="   95.468">  1  3  2 -1</clus>
<clus scale="   44.629">  1  3  2 -1</clus>
</clustering>
</event>
<event>
 6    0  0.1344929E+003  0.2197173E+03  0.7546771E-02  0.1134094E+00
         21   -1    0    0  502  501  0.00000000000E+00  0.00000000000E+00  0.57010863838E+03  0.57010863838E+03  0.00000000000E+00 0.  1.
         21   -1    0    0  504  502 -0.00000000000E+00 -0.00000000000E+00 -0.20238780634E+03  0.20238780634E+03  0.00000000000E+00 0.  1.
         21    1    1    2  503  505  0.55765552784E+02  0.56635671885E+01  0.40647545494E+02  0.69239409481E+02  0.00000000000E+00 0. -1.
         21    1    1    2  504  506 -0.38244348324E+02 -0.12269157460E+03 -0.42620291930E+02  0.13539697907E+03  0.00000000000E+00 0.  1.
         21    1    1    2  505  501  0.15738476551E+03 -0.20423518744E+02  0.29179692774E+03  0.33216341095E+03  0.00000000000E+00 0.  1.
         21    1    1    2  506  503 -0.17490596997E+03  0.13745152616E+03  0.77896650728E+02  0.23569664522E+03  0.00000000000E+00 0.  1.
<scales pt_clust_3="41.82923" pt_clust_4="128.51402" pt_clust_5="41.82923" pt_clust_6="208.13869"></scales>
<clustering>
<clus scale="   41.829">  3  5 -1 -1</clus>
<clus scale="  128.514">  2  4  1 -1</clus>
<clus scale="  208.139">  2  6  1 -1</clus>
<clus scale="  219.717">  1  3  2 -1</clus>
</clustering>
</event>
<event>
 6    0  0.1344929E+003  0.1426526E+03  0.7546771E-02  0.1209804E+00
         21   -1    0    0  505  501  0.00000000000E+00  0.00000000000E+00  0.18428433162E+04  0.18428433162E+04  0.00000000000E+00 0. -1.
         21   -1    0    0  504  502 -0.00000000000E+00 -0.00000000000E+00 -0.32575377932E+03  0.32575377932E+03  0.00000000000E+00 0.  1.
         21    1    1    2  503  502 -0.36068483662E+02 -0.21998425081E+02 -0.19366396394E+03  0.19821855904E+03  0.00000000000E+00 0.  1.
         21    1    1    2  504  501 -0.53484458622E+02  0.89935791517E+02  0.61652586848E+02  0.12144988833E+03  0.00000000000E+00 0.  1.
         21    1    1    2  505  506 -0.76330268038E+02  0.26720428341E+02  0.16558454528E+04  0.16578191864E+04  0.00000000000E+00 0. -1.
         21    1    1    2  506  503  0.16588321032E+03 -0.94657794778E+02 -0.67445388252E+01  0.19110946178E+03  0.00000000000E+00 0.  1.
<scales pt_clust_3="42.24768" pt_clust_4="142.65262" pt_clust_5="81.07599" pt_clust_6="14000.00000"></scales>
<clustering>
<clus scale="   42.248">  2  3  1 -1</clus>
<clus scale="   81.076">  1  5  2 -1</clus>
<clus scale="  142.653">  1  4  2 -1</clus>
<clus scale="   81.076">  1  3  2 -1</clus>
</clustering>
</event>
<event>
 6    0  0.1344929E+003  0.1533639E+03  0.7546771E-02  0.1196399E+00
         21   -1    0    0  505  501  0.00000000000E+00  0.00000000000E+00  0.34389424405E+03  0.34389424405E+03  0.00000000000E+00 0.  1.
         21   -1    0    0  504  502 -0.00000000000E+00 -0.00000000000E+00 -0.60610033937E+03  0.60610033937E+03  0.00000000000E+00 0. -1.
         21    1    1    2  503  502  0.26209437388E+02  0.26957241594E+02 -0.31652988406E+03  0.31875507052E+03  0.00000000000E+00 0.  1.
         21    1    1    2  504  506  0.12136048371E+03  0.36976936333E+02 -0.24778710003E+03  0.27837763518E+03  0.00000000000E+00 0. -1.
         21    1    1    2  505  503 -0.93173112862E+02 -0.58046392857E+02  0.26475599534E+03  0.28661184510E+03  0.00000000000E+00 0.  1.
         21    1    1    2  506  501 -0.54396808239E+02 -0.58877850696E+01  0.37354893425E+02  0.66250032622E+02  0.00000000000E+00 0. -1.
<scales pt_clust_3="37.59824" pt_clust_4="14000.00000" pt_clust_5="153.36393" pt_clust_6="53.27768"></scales>
<clustering>
<clus scale="   37.598">  2  3  1 -1</clus>
<clus scale="   53.278">  1  6  2 -1</clus>
<clus scale="  153.364">  1  5  2 -1</clus>
<clus scale="   53.278">  1  3  2 -1</clus>
</clustering>
</event>
<event>
 6    0  0.1344929E+003  0.8353552E+02  0.7546771E-02  0.1319307E+00
         21   -1    0    0  502  501  0.00000000000E+00  0.00000000000E+00  0.49315399958E+03  0.49315399958E+03  0.00000000000E+00 0. -1.
         21   -1    0    0  503  502 -0.00000000000E+00 -0.00000000000E+00 -0.49267705677E+03  0.49267705677E+03  0.00000000000E+00 0.  1.
         21    1    1    2  503  506 -0.16840802617E+02 -0.47066143289E+02 -0.37589340670E+03  0.37920269998E+03  0.00000000000E+00 0.  1.
         21    1    1    2  504  505  0.84313616966E+02  0.46327418006E+02  0.22110028345E+03  0.24112310343E+03  0.00000000000E+00 0. -1.
         21    1    1    2  505  501 -0.27273496393E+01 -0.72674916001E+02  0.23072355918E+03  0.24191412239E+03  0.00000000000E+00 0. -1.
         21    1    1    2  506  504 -0.64745464710E+02  0.73413641284E+02 -0.75453493115E+02  0.12359113055E+03  0.00000000000E+00 0. -1.
<scales pt_clust_3="49.98834" pt_clust_4="83.53552" pt_clust_5="75.04615" pt_clust_6="14000.00000"></scales>
<clustering>
<clus scale="   49.988">  2  3  1 -1</clus>
<clus scale="   75.046">  1  5  2 -1</clus>
<clus scale="   83.536">  1  4  2 -1</clus>
<clus scale="   75.046">  1  3  2 -1</clus>
</clustering>
</event>
<event>
 6    0  0.1344929E+003  0.8047035E+02  0.7546771E-02  0.1327722E+00
         21   -1    0    0  505  501  0.00000000000E+00  0.00000000000E+00  0.12386886474E+03  0.12386886474E+03  0.00000000000E+00 0.  1.
         21   -1    0    0  504  502 -0.00000000000E+00 -0.00000000000E+00 -0.65607888664E+03  0.65607888664E+03  0.00000000000E+00 0. -1.
         21    1    1    2  503  502 -0.34615455763E+02  0.38077649694E+02 -0.60383847314E+02  0.79336915748E+02  0.00000000000E+00 0. -1.
         21    1    1    2  504  506  0.11409202546E+03 -0.29843639455E+02 -0.34826787886E+03  0.36769300855E+03  0.00000000000E+00 0. -1.
         21    1    1    2  505  503 -0.31610769136E+02  0.60720918216E+02  0.84391580194E+02  0.10866558536E+03  0.00000000000E+00 0.  1.
         21    1    1    2  506  501 -0.47865800565E+02 -0.68954928455E+02 -0.20794987592E+03  0.22425224172E+03  0.00000000000E+00 0.  1.
<scales pt_clust_3="51.46005" pt_clust_4="14000.00000" pt_clust_5="69.48708" pt_clust_6="80.47035"></scales>
<clustering>
<clus scale="   51.460">  2  3  1 -1</clus>
<clus scale="   69.487">  1  5  2 -1</clus>
<clus scale="   80.470">  1  6  2 -1</clus>
<clus scale="   69.487">  1  3  2 -1</clus>
</clustering>
</event>
<event>
 6    0  0.1344929E+003  0.8826850E+02  0.7546771E-02  0.1307100E+00
         21   -1    0    0  506  501  0.00000000000E+00  0.00000000000E+00  0.61731172425E+03  0.61731172425E+03  0.00000000000E+00 0. -1.
         21   -1    0    0  503  502 -0.00000000000E+00 -0.00000000000E+00 -0.63530906658E+02  0.63530906658E+02  0.00000000000E+00 0. -1.
         21    1    1    2  503  504 -0.50558960789E+02  0.41648286850E+02 -0.17635710077E+02  0.67836616834E+02  0.00000000000E+00 0. -1.
         21    1    1    2  504  501  0.11077332313E+03  0.20687620486E+02  0.38747145635E+03  0.40352550879E+03  0.00000000000E+00 0. -1.
         21    1    1    2  505  502 -0.38984226808E+02 -0.10502605680E+02  0.49794755072E+02  0.64106101882E+02  0.00000000000E+00 0. -1.
         21    1    1    2  506  505 -0.21230135534E+02 -0.51833301655E+02  0.13415031626E+03  0.14537440341E+03  0.00000000000E+00 0. -1.
<scales pt_clust_3="88.26850" pt_clust_4="14000.00000" pt_clust_5="40.37418" pt_clust_6="58.53826"></scales>
<clustering>
<clus scale="   40.374">  2  5  1 -1</clus>
<clus scale="   58.538">  1  6  2 -1</clus>
<clus scale="   88.269">  2  3  1 -1</clus>
<clus scale="   58.538">  1  3  2 -1</clus>
</clustering>
</event>
<event>
 6    0  0.1344929E+003  0.1333881E+03  0.7546771E-02  0.1222513E+00
         21   -1    0    0  504  501  0.00000000000E+00  0.00000000000E+00  0.78563461023E+02  0.78563461023E+02  0.00000000000E+00 0.  1.
         21   -1    0    0  505  502 -0.00000000000E+00 -0.00000000000E+00 -0.72379495886E+03  0.72379495886E+03  0.00000000000E+00 0. -1.
         21    1    1    2  503  501  0.78871441147E+01 -0.12894756784E+03 -0.50807508219E+02  0.13882033419E+03  0.00000000000E+00 0.  1.
         21    1    1    2  504  502 -0.32561627321E+02  0.10179556208E+01 -0.49458074990E+03  0.49565251333E+03  0.00000000000E+00 0. -1.
         21    1    1    2  505  506  0.26354766797E+02  0.61944449365E+02 -0.63468238902E+02  0.92519759453E+02  0.00000000000E+00 0. -1.
         21    1    1    2  506  503 -0.16802835903E+01  0.65985162854E+02 -0.36375000826E+02  0.75365812906E+02  0.00000000000E+00 0. -1.
<scales pt_clust_3="128.64803" pt_clust_4="32.57754" pt_clust_5="34.49803" pt_clust_6="34.49803"></scales>
<clustering>
<clus scale="   32.578">  2  4  1 -1</clus>
<clus scale="   34.498">  5  6 -1 -1</clus>
<clus scale="  128.648">  1  3  2 -1</clus>
<clus scale="  128.648">  1  3  2 -1</clus>
</clustering>
</event>
<event>
 6    0  0.1344929E+003  0.9074439E+02  0.7546771E-02  0.1301059E+00
         21   -1    0    0  505  501  0.00000000000E+00  0.00000000000E+00  0.15749176590E+04  0.15749176590E+04  0.00000000000E+00 0.  1.
         21   -1    0    0  506  502 -0.00000000000E+00 -0.00000000000E+00 -0.74061899589E+03  0.74061899589E+03  0.00000000000E+00 0. -1.
         21    1    1    2  503  501  0.57739676467E+02 -0.13244679460E+02  0.79913850621E+02  0.99476204660E+02  0.00000000000E+00 0.  1.
         21    1    1    2  504  502  0.37723349869E+02  0.11363864701E+03 -0.34142573001E+03  0.36181255138E+03  0.00000000000E+00 0. -1.
         21    1    1    2  505  504 -0.10579052983E+03 -0.19647773353E+02  0.14686697008E+04  0.14726059762E+04  0.00000000000E+00 0.  1.
         21    1    1    2  506  503  0.10327503493E+02 -0.80746194198E+02 -0.37285915828E+03  0.38164192264E+03  0.00000000000E+00 0.  1.
<scales pt_clust_3="59.23928" pt_clust_4="90.74439" pt_clust_5="58.62653" pt_clust_6="14000.00000"></scales>
<clustering>
<clus scale="   59.239">  1  3  2 -1</clus>
<clus scale="   58.627">  1  5  2 -1</clus>
<clus scale="   90.744">  1  4  2 -1</clus>
<clus scale="   59.239">  1  3  2 -1</clus>
</clustering>
</event>
<event>
 6    0  0.1344929E+003  0.1029808E+03  0.7546771E-02  0.1274150E+00
         21   -1    0    0  503  501  0.00000000000E+00  0.00000000000E+00  0.38378130229E+03  0.38378130229E+03  0.00000000000E+00 0.  1.
         21   -1    0    0  505  502 -0.00000000000E+00 -0.00000000000E+00 -0.14296589246E+03  0.14296589246E+03  0.00000000000E+00 0.  1.
         21    1    1    2  503  504 -0.39784303742E+02 -0.75061695746E+02  0.12424686764E+03  0.15051356454E+03  0.00000000000E+00 0.  1.
         21    1    1    2  504  502 -0.30225441395E+02 -0.23827206629E+02 -0.93095902924E+02  0.10073807733E+03  0.00000000000E+00 0.  1.
         21    1    1    2  505  506  0.22560725350E+02 -0.20144093341E+02  0.55933777008E+00  0.30250350140E+02  0.00000000000E+00 0.  1.
         21    1    1    2  506  501  0.47449019787E+02  0.11903299572E+03  0.20910510735E+03  0.24524520274E+03  0.00000000000E+00 0.  1.
<scales pt_clust_3="14000.00000" pt_clust_4="41.22211" pt_clust_5="30.24518" pt_clust_6="102.98080"></scales>
<clustering>
<clus scale="   30.245">  2  5  1 -1</clus>
<clus scale="   41.222">  2  4  1 -1</clus>
<clus scale="  102.981">  2  6  1 -1</clus>
<clus scale="  102.981">  1  3  2 -1</clus>
</clustering>
</event>
<event>
 6    0  0.1344929E+003  0.9821449E+02  0.7546771E-02  0.1284096E+00
         21   -1    0    0  506  501  0.00000000000E+00  0.00000000000E+00  0.51476738234E+03  0.51476738234E+03  0.00000000000E+00 0.  1.
         21   -1    0    0  503  502 -0.00000000000E+00 -0.00000000000E+00 -0.49450744495E+03  0.49450744495E+03  0.00000000000E+00 0. -1.
         21    1    1    2  503  501 -0.84426223605E+02  0.64497805788E+01 -0.41068063003E+03  0.41931845509E+03  0.00000000000E+00 0. -1.
         21    1    1    2  504  505 -0.48393277055E+02  0.15313730030E+02 -0.10062132335E+02  0.51746169894E+02  0.00000000000E+00 0.  1.
         21    1    1    2  505  502  0.42567010813E+02  0.17534032156E+02 -0.31357792146E+02  0.55701919370E+02  0.00000000000E+00 0.  1.
         21    1    1    2  506  504  0.90252489846E+02 -0.39297542765E+02  0.47236049190E+03  0.48250828293E+03  0.00000000000E+00 0.  1.
<scales pt_clust_3="14000.00000" pt_clust_4="48.38230" pt_clust_5="46.03686" pt_clust_6="98.21449"></scales>
<clustering>
<clus scale="   46.037">  2  5  1 -1</clus>
<clus scale="   48.382">  2  4  1 -1</clus>
<clus scale="   98.214">  1  6  2 -1</clus>
<clus scale="   98.214">  1  3  2 -1</clus>
</clustering>
</event>
<event>
 6    0  0.1344929E+003  0.8247879E+02  0.7546771E-02  0.1322161E+00
         21   -1    0    0  503  501  0.00000000000E+00  0.00000000000E+00  0.15425898074E+03  0.15425898074E+03  0.00000000000E+00 0. -1.
         21   -1    0    0  504  502 -0.00000000000E+00 -0.00000000000E+00 -0.20791018247E+03  0.20791018247E+03  0.00000000000E+00 0. -1.
         21    1    1    2  503  505 -0.23016084336E+02 -0.19649386380E+02  0.63655371738E+01  0.30925047887E+02  0.00000000000E+00 0. -1.
         21    1    1    2  504  501  0.24166009373E+02 -0.61316131556E+02  0.52845071416E+02  0.84476420206E+02  0.00000000000E+00 0. -1.
         21    1    1    2  505  506 -0.83117793709E+02  0.71010186488E+02 -0.30334317146E+01  0.10936277211E+03  0.00000000000E+00 0. -1.
         21    1    1    2  506  502  0.81967868672E+02  0.99553314476E+01 -0.10982837861E+03  0.13740492301E+03  0.00000000000E+00 0. -1.
<scales pt_clust_3="30.26282" pt_clust_4="72.35477" pt_clust_5="82.47879" pt_clust_6="14000.00000"></scales>
<clustering>
<clus scale="   30.263">  1  3  2 -1</clus>
<clus scale="   72.355">  1  4  2 -1</clus>
<clus scale="   82.479">  1  5  2 -1</clus>
<clus scale="   30.263">  1  3  2 -1</clus>
</clustering>
</event>
<event>
 6    0  0.1344929E+003  0.6713647E+02  0.7546771E-02  0.1370111E+00
         21   -1    0    0  504  501  0.00000000000E+00  0.00000000000E+00  0.25059632643E+03  0.25059632643E+03  0.00000000000E+00 0. -1.
         21   -1    0    0  506  502 -0.00000000000E+00 -0.00000000000E+00 -0.22646589903E+03  0.22646589903E+03  0.00000000000E+00 0.  1.
         21    1    1    2  503  502 -0.52585904720E+02  0.19864415489E+01 -0.16080925257E+03  0.16920058817E+03  0.00000000000E+00 0.  1.
         21    1    1    2  504  503 -0.50104850210E+02 -0.38539301947E+02  0.37082005784E+02  0.73286076181E+02  0.00000000000E+00 0. -1.
         21    1    1    2  505  501  0.61136413452E+02 -0.33859172314E+02  0.13471871496E+03  0.15176704768E+03  0.00000000000E+00 0. -1.
         21    1    1    2  506  505  0.41554341478E+02  0.70412032713E+02  0.13138959225E+02  0.82808513427E+02  0.00000000000E+00 0. -1.
<scales pt_clust_3="52.62341" pt_clust_4="14000.00000" pt_clust_5="63.45824" pt_clust_6="67.13647"></scales>
<clustering>
<clus scale="   52.623">  2  3  1 -1</clus>
<clus scale="   63.458">  1  5  2 -1</clus>
<clus scale="   67.136">  2  6  1 -1</clus>
<clus scale="   63.458">  1  3  2 -1</clus>
</clustering>
</event>
<event>
 6    0  0.1344929E+003  0.1309222E+03  0.7546771E-02  0.1226094E+00
         21   -1    0    0  506  501  0.00000000000E+00  0.00000000000E+00  0.32800412877E+02  0.32800412877E+02  0.00000000000E+00 0. -1.
         21   -1    0    0  505  502 -0.00000000000E+00 -0.00000000000E+00 -0.18323463622E+04  0.18323463622E+04  0.00000000000E+00 0. -1.
         21    1    1    2  503  502  0.72478262545E+01 -0.51337508056E+02 -0.51331197013E+02  0.72958635579E+02  0.00000000000E+00 0. -1.
         21    1    1    2  504  501 -0.69193822699E+02  0.56189997217E+02 -0.54111364923E+03  0.54840594660E+03  0.00000000000E+00 0. -1.
         21    1    1    2  505  504 -0.13769919759E+02  0.37866976500E+02 -0.11199822787E+04  0.11207068408E+04  0.00000000000E+00 0. -1.
         21    1    1    2  506  503  0.75715916204E+02 -0.42719465661E+02 -0.87118824401E+02  0.12307535203E+03  0.00000000000E+00 0. -1.
<scales pt_clust_3="45.51802" pt_clust_4="116.65934" pt_clust_5="40.29291" pt_clust_6="45.51802"></scales>
<clustering>
<clus scale="   40.293">  2  5  1 -1</clus>
<clus scale="   45.518">  3  6 -1 -1</clus>
<clus scale="  116.659">  2  4  1 -1</clus>
<clus scale="  130.922">  1  3  2 -1</clus>
</clustering>
</event>
<event>
 6    0  0.1344929E+003  0.1878564E+03  0.7546771E-02  0.1160409E+00
         21   -1    0    0  504  501  0.00000000000E+00  0.00000000000E+00  0.38041505757E+03  0.38041505757E+03  0.00000000000E+00 0. -1.
         21   -1    0    0  505  502 -0.00000000000E+00 -0.00000000000E+00 -0.36575986049E+03  0.36575986049E+03  0.00000000000E+00 0. -1.
         21    1    1    2  503  502 -0.70052428878E+02  0.62749305558E+02 -0.39690997013E+02  0.10207934847E+03  0.00000000000E+00 0. -1.
         21    1    1    2  504  506  0.88376804211E+02 -0.30402486470E+02  0.27554520499E+03  0.29096379620E+03  0.00000000000E+00 0. -1.
         21    1    1    2  505  501  0.12730337683E+03 -0.10100164880E+02 -0.11020677670E+03  0.16868223592E+03  0.00000000000E+00 0. -1.
         21    1    1    2  506  503 -0.14562775216E+03 -0.22246654208E+02 -0.11099223420E+03  0.18444953748E+03  0.00000000000E+00 0. -1.
<scales pt_clust_3="84.68984" pt_clust_4="93.46000" pt_clust_5="155.09700" pt_clust_6="84.68984"></scales>
<clustering>
<clus scale="   84.690">  3  6 -1 -1</clus>
<clus scale="   93.460">  1  4  2 -1</clus>
<clus scale="  155.097">  2  5  1 -1</clus>
<clus scale="   93.460">  1  3  2 -1</clus>
</clustering>
</event>
<event>
 6    0  0.1344929E+003  0.5337040E+03  0.7546771E-02  0.1005338E+00
         21   -1    0    0  503  501  0.00000000000E+00  0.00000000000E+00  0.17502159137E+03  0.17502159137E+03  0.00000000000E+00 0. -1.
         21   -1    0    0  506  502 -0.00000000000E+00 -0.00000000000E+00 -0.26926898510E+04  0.26926898510E+04  0.00000000000E+00 0. -1.
         21    1    1    2  503  504 -0.13043371897E+03  0.57243544323E+03 -0.97802135059E+03  0.11407107670E+04  0.00000000000E+00 0. -1.
         21    1    1    2  504  505  0.14251477033E+02 -0.47865289770E+02 -0.75414546146E+03  0.75579730590E+03  0.00000000000E+00 0. -1.
         21    1    1    2  505  502  0.30573508289E+02 -0.32797810530E+02 -0.18484722199E+03  0.19020760043E+03  0.00000000000E+00 0.  1.
         21    1    1    2  506  501  0.85608733651E+02 -0.49177234294E+03 -0.60065422557E+03  0.78099576903E+03  0.00000000000E+00 0. -1.
<scales pt_clust_3="14000.00000" pt_clust_4="62.33473" pt_clust_5="44.83788" pt_clust_6="533.70399"></scales>
<clustering>
<clus scale="   44.838">  2  5  1 -1</clus>
<clus scale="   62.335">  2  4  1 -1</clus>
<clus scale="  533.704">  1  6  2 -1</clus>
<clus scale="  533.704">  1  3  2 -1</clus>
</clustering>
</event>
<event>
 6    0  0.1344929E+003  0.2528414E+03  0.7546771E-02  0.1111522E+00
         21   -1    0    0  505  501  0.00000000000E+00  0.00000000000E+00  0.85278418583E+03  0.85278418583E+03  0.00000000000E+00 0.  1.
         21   -1    0    0  504  502 -0.00000000000E+00 -0.00000000000E+00 -0.13908863002E+04  0.13908863002E+04  0.00000000000E+00 0. -1.
         21    1    1    2  503  502  0.89446740784E+02 -0.49511384125E+02 -0.97675077647E+03  0.98208664380E+03  0.00000000000E+00 0. -1.
         21    1    1    2  504  506  0.13187293506E+03  0.17529473341E+03 -0.34050696334E+03  0.40504778316E+03  0.00000000000E+00 0. -1.
         21    1    1    2  505  503 -0.24424741170E+03 -0.16258421527E+03  0.55055623688E+03  0.62386103833E+03  0.00000000000E+00 0.  1.
         21    1    1    2  506  501  0.22927735859E+02  0.36800865980E+02  0.22859938858E+03  0.23267502072E+03  0.00000000000E+00 0.  1.
<scales pt_clust_3="102.24526" pt_clust_4="252.84142" pt_clust_5="14000.00000" pt_clust_6="43.35879"></scales>
<clustering>
<clus scale="   43.359">  1  6  2 -1</clus>
<clus scale="  102.245">  2  3  1 -1</clus>
<clus scale="  252.841">  2  4  1 -1</clus>
<clus scale="   43.359">  1  3  2 -1</clus>
</clustering>
</event>
<event>
 6    0  0.1344929E+003  0.1539541E+03  0.7546771E-02  0.1195697E+00
         21   -1    0    0  505  501  0.00000000000E+00  0.00000000000E+00  0.35868485571E+03  0.35868485571E+03  0.00000000000E+00 0. -1.
         21   -1    0    0  503  502 -0.00000000000E+00 -0.00000000000E+00 -0.90629507183E+03  0.90629507183E+03  0.00000000000E+00 0.  1.
         21    1    1    2  503  506  0.25089520377E+01 -0.35884522558E+02 -0.19689879651E+03  0.20015776244E+03  0.00000000000E+00 0. -1.
         21    1    1    2  504  501 -0.27989910326E+02 -0.14919526216E+03  0.29354032896E+03  0.33046722388E+03  0.00000000000E+00 0. -1.
         21    1    1    2  505  502  0.61220240672E+02  0.16586298484E+03 -0.13235791758E+03  0.22085530547E+03  0.00000000000E+00 0.  1.
         21    1    1    2  506  504 -0.35739282384E+02  0.19216799878E+02 -0.51189383099E+03  0.51349963574E+03  0.00000000000E+00 0.  1.
<scales pt_clust_3="35.97213" pt_clust_4="14000.00000" pt_clust_5="153.95407" pt_clust_6="34.59226"></scales>
<clustering>
<clus scale="   35.972">  2  3  1 -1</clus>
<clus scale="   34.592">  2  6  1 -1</clus>
<clus scale="  153.954">  2  5  1 -1</clus>
<clus scale="  153.954">  1  3  2 -1</clus>
</clustering>
</event>
<event>
 6    0  0.1344929E+003  0.1024881E+03  0.7546771E-02  0.1275149E+00
         21   -1    0    0  506  501  0.00000000000E+00  0.00000000000E+00  0.61598310305E+03  0.61598310305E+03  0.00000000000E+00 0. -1.
         21   -1    0    0  504  502 -0.00000000000E+00 -0.00000000000E+00 -0.66289309303E+02  0.66289309303E+02  0.00000000000E+00 0. -1.
         21    1    1    2  503  505  0.12394929631E+02  0.39531726714E+02  0.21405620791E+02  0.46632524047E+02  0.00000000000E+00 0. -1.
         21    1    1    2  504  501 -0.32744372180E+02 -0.12147891916E+03  0.13136930927E+03  0.18189892008E+03  0.00000000000E+00 0. -1.
         21    1    1    2  505  502 -0.14176321014E+02  0.45826587766E+02 -0.54532863356E+01  0.48278178877E+02  0.00000000000E+00 0. -1.
         21    1    1    2  506  503  0.34525763563E+02  0.36120604677E+02  0.40237215002E+03  0.40546278935E+03  0.00000000000E+00 0. -1.
<scales pt_clust_3="35.56274" pt_clust_4="95.07614" pt_clust_5="35.56274" pt_clust_6="49.96725"></scales>
<clustering>
<clus scale="   35.563">  3  5 -1 -1</clus>
<clus scale="   49.967">  1  6  2 -1</clus>
<clus scale="   95.076">  1  4  2 -1</clus>
<clus scale="   49.967">  1  3  2 -1</clus>
</clustering>
</event>
<event>
 6    0  0.1344929E+003  0.7772620E+02  0.7546771E-02  0.1335631E+00
         21   -1    0    0  505  501  0.00000000000E+00  0.00000000000E+00  0.15348501798E+03  0.15348501798E+03  0.00000000000E+00 0.  1.
         21   -1    0    0  504  502 -0.00000000000E+00 -0.00000000000E+00 -0.24815532934E+03  0.24815532934E+03  0.00000000000E+00 0.  1.
         21    1    1    2  503  506  0.56543350483E+02 -0.22791178842E+02  0.25328726809E+02  0.66016154982E+02  0.00000000000E+00 0.  1.
         21    1    1    2  504  503  0.57448192711E+02 -0.45783318522E+02 -0.13847052722E+03  0.15674978153E+03  0.00000000000E+00 0.  1.
         21    1    1    2  505  502 -0.87284305284E+02  0.36227715452E+02 -0.43504854277E+02  0.10403686684E+03  0.00000000000E+00 0.  1.
         21    1    1    2  506  501 -0.26707237909E+02  0.32346781912E+02  0.61976343322E+02  0.74837543976E+02  0.00000000000E+00 0.  1.
<scales pt_clust_3="42.55352" pt_clust_4="77.72620" pt_clust_5="14000.00000" pt_clust_6="41.94748"></scales>
<clustering>
<clus scale="   41.947">  1  6  2 -1</clus>
<clus scale="   42.554">  1  3  2 -1</clus>
<clus scale="   77.726">  2  4  1 -1</clus>
<clus scale="   41.947">  1  3  2 -1</clus>
</clustering>
</event>
<event>
 6    0  0.1344929E+003  0.1040749E+03  0.7546771E-02  0.1271953E+00
         21   -1    0    0  503  501  0.00000000000E+00  0.00000000000E+00  0.18428234227E+04  0.18428234227E+04  0.00000000000E+00 0. -1.
         21   -1    0    0  504  502 -0.00000000000E+00 -0.00000000000E+00 -0.31259393576E+02  0.31259393576E+02  0.00000000000E+00 0.  1.
         21    1    1    2  503  502 -0.31137038219E+02 -0.62379073472E+02  0.92222405738E+03  0.92485559736E+03  0.00000000000E+00 0. -1.
         21    1    1    2  504  505  0.22099487617E+01 -0.33019362710E+02  0.37358733953E+01  0.33303437320E+02  0.00000000000E+00 0.  1.
         21    1    1    2  505  506  0.11411621328E+03  0.28309425079E+02  0.34303212495E+03  0.36262235512E+03  0.00000000000E+00 0.  1.
         21    1    1    2  506  501 -0.85189123821E+02  0.67089011104E+02  0.54257197336E+03  0.55330142645E+03  0.00000000000E+00 0. -1.
<scales pt_clust_3="72.01141" pt_clust_4="33.09323" pt_clust_5="14000.00000" pt_clust_6="104.07487"></scales>
<clustering>
<clus scale="   33.093">  2  4  1 -1</clus>
<clus scale="   72.011">  1  3  2 -1</clus>
<clus scale="  104.075">  1  6  2 -1</clus>
<clus scale="   72.011">  1  3  2 -1</clus>
</clustering>
</event>
<event>
 6    0  0.1344929E+003  0.1506123E+03  0.7546771E-02  0.1199723E+00
         21   -1    0    0  503  501  0.00000000000E+00  0.00000000000E+00  0.55608255386E+03  0.55608255386E+03  0.00000000000E+00 0.  1.
         21   -1    0    0  505  502 -0.00000000000E+00 -0.00000000000E+00 -0.17124959951E+03  0.17124959951E+03  0.00000000000E+00 0.  1.
         21    1    1    2  503  506 -0.31470290297E+02 -0.43549636683E+02  0.61694412134E+02  0.81811677132E+02  0.00000000000E+00 0.  1.
         21    1    1    2  504  502  0.10350694218E+03  0.38403944763E+02 -0.11414243464E+03  0.15879875767E+03  0.00000000000E+00 0.  1.
         21    1    1    2  505  501 -0.10027990779E+03 -0.14917192404E+02  0.44041759361E+03  0.45193610090E+03  0.00000000000E+00 0.  1.
         21    1    1    2  506  504  0.28243255904E+02  0.20062884324E+02 -0.31366167625E+01  0.34785617663E+02  0.00000000000E+00 0.  1.
<scales pt_clust_3="53.73035" pt_clust_4="30.39471" pt_clust_5="140.49918" pt_clust_6="30.39471"></scales>
<clustering>
<clus scale="   30.395">  4  6 -1 -1</clus>
<clus scale="   53.730">  1  3  2 -1</clus>
<clus scale="  140.499">  1  5  2 -1</clus>
<clus scale="   53.730">  1  3  2 -1</clus>
</clustering>
</event>
<event>
 6    0  0.1344929E+003  0.1121343E+03  0.7546771E-02  0.1256668E+00
         21   -1    0    0  503  501  0.00000000000E+00  0.00000000000E+00  0.11314206195E+03  0.11314206195E+03  0.00000000000E+00 0. -1.
         21   -1    0    0  506  502 -0.00000000000E+00 -0.00000000000E+00 -0.18090496801E+04  0.18090496801E+04  0.00000000000E+00 0. -1.
         21    1    1    2  503  502  0.68893421617E+02 -0.18059156511E+02 -0.84945309481E+03  0.85243357334E+03  0.00000000000E+00 0.  1.
         21    1    1    2  504  505  0.42447469148E+02 -0.18795995922E+02 -0.98733221855E+02  0.10910236568E+03  0.00000000000E+00 0.  1.
         21    1    1    2  505  501 -0.92572478313E+02  0.66125723968E+02  0.75604921670E+02  0.13659567816E+03  0.00000000000E+00 0. -1.
         21    1    1    2  506  504 -0.18768412453E+02 -0.29270571535E+02 -0.82332622311E+03  0.82406012483E+03  0.00000000000E+00 0. -1.
<scales pt_clust_3="112.13432" pt_clust_4="46.00577" pt_clust_5="14000.00000" pt_clust_6="34.77096"></scales>
<clustering>
<clus scale="   34.771">  2  6  1 -1</clus>
<clus scale="   46.006">  2  4  1 -1</clus>
<clus scale="  112.134">  2  3  1 -1</clus>
<clus scale="  112.134">  1  3  2 -1</clus>
</clustering>
</event>
<event>
 6    0  0.1344929E+003  0.1134838E+03  0.7546771E-02  0.1254251E+00
         21   -1    0    0  502  501  0.00000000000E+00  0.00000000000E+00  0.19071630360E+04  0.19071630360E+04  0.00000000000E+00 0. -1.
         21   -1    0    0  503  502 -0.00000000000E+00 -0.00000000000E+00 -0.85501264777E+02  0.85501264777E+02  0.00000000000E+00 0.  1.
         21    1    1    2  503  505 -0.14657103135E+03  0.32322790544E+02  0.21377882311E+02  0.15160753237E+03  0.00000000000E+00 0.  1.
         21    1    1    2  504  501  0.28535525598E+02 -0.21008421641E+02  0.94982816175E+03  0.95048890938E+03  0.00000000000E+00 0. -1.
         21    1    1    2  505  506  0.63214170190E+02 -0.51360460605E+02  0.70674863038E+02  0.10783721293E+03  0.00000000000E+00 0.  1.
         21    1    1    2  506  504  0.54821335558E+02  0.40046091702E+02  0.77978086408E+03  0.78273064606E+03  0.00000000000E+00 0. -1.
<scales pt_clust_3="113.48384" pt_clust_4="35.43487" pt_clust_5="14000.00000" pt_clust_6="81.40269"></scales>
<clustering>
<clus scale="   35.435">  1  4  2 -1</clus>
<clus scale="   81.403">  1  6  2 -1</clus>
<clus scale="  113.484">  2  3  1 -1</clus>
<clus scale="   35.435">  1  3  2 -1</clus>
</clustering>
</event>
<event>
 6    0  0.1344929E+003  0.1179672E+03  0.7546771E-02  0.1246489E+00
         21   -1    0    0  503  501  0.00000000000E+00  0.00000000000E+00  0.89408930330E+03  0.89408930330E+03  0.00000000000E+00 0.  1.
         21   -1    0    0  506  502 -0.00000000000E+00 -0.00000000000E+00 -0.13682789574E+03  0.13682789574E+03  0.00000000000E+00 0. -1.
         21    1    1    2  503  505 -0.79327945353E+01  0.29811821697E+02  0.64588089849E+02  0.71577198132E+02  0.00000000000E+00 0. -1.
         21    1    1    2  504  501  0.99875329266E+02  0.46342647798E+02  0.66339199494E+03  0.67246684777E+03  0.00000000000E+00 0.  1.
         21    1    1    2  505  502  0.25075140045E+02 -0.29401153185E+02 -0.99473530205E+02  0.10671538628E+03  0.00000000000E+00 0. -1.
         21    1    1    2  506  504 -0.11701767478E+03 -0.46753316309E+02  0.12875485297E+03  0.18015776686E+03  0.00000000000E+00 0.  1.
<scales pt_clust_3="30.84921" pt_clust_4="14000.00000" pt_clust_5="38.51987" pt_clust_6="117.96720"></scales>
<clustering>
<clus scale="   30.849">  1  3  2 -1</clus>
<clus scale="   38.520">  2  5  1 -1</clus>
<clus scale="  117.967">  2  6  1 -1</clus>
<clus scale="   30.849">  1  3  2 -1</clus>
</clustering>
</event>
<event>
 6    0  0.1344929E+003  0.2166836E+03  0.7546771E-02  0.1136380E+00
         21   -1    0    0  506  501  0.00000000000E+00  0.00000000000E+00  0.82970062671E+03  0.82970062671E+03  0.00000000000E+00 0.  1.
         21   -1    0    0  505  502 -0.00000000000E+00 -0.00000000000E+00 -0.84909119594E+03  0.84909119594E+03  0.00000000000E+00 0.  1.
         21    1    1    2  503  502 -0.10603541777E+03  0.14060734281E+03 -0.24306442887E+03  0.30015704432E+03  0.00000000000E+00 0. -1.
         21    1    1    2  504  501 -0.33658982787E+02  0.32464521392E+00  0.61464256474E+03  0.61556357503E+03  0.00000000000E+00 0.  1.
         21    1    1    2  505  504 -0.66509834573E+02  0.23199446855E+02  0.14756018556E+03  0.16351079717E+03  0.00000000000E+00 0.  1.
         21    1    1    2  506  503  0.20620423513E+03 -0.16413143488E+03 -0.53852889067E+03  0.59956040612E+03  0.00000000000E+00 0.  1.
<scales pt_clust_3="216.68361" pt_clust_4="33.66055" pt_clust_5="93.87719" pt_clust_6="14000.00000"></scales>
<clustering>
<clus scale="   33.661">  1  4  2 -1</clus>
<clus scale="   93.877">  1  5  2 -1</clus>
<clus scale="  216.684">  2  3  1 -1</clus>
<clus scale="   33.661">  1  3  2 -1</clus>
</clustering>
</event>
<event>
 6    0  0.1344929E+003  0.2594800E+03  0.7546771E-02  0.1107456E+00
         21   -1    0    0  504  501  0.00000000000E+00  0.00000000000E+00  0.12345416593E+03  0.12345416593E+03  0.00000000000E+00 0.  1.
         21   -1    0    0  505  502 -0.00000000000E+00 -0.00000000000E+00 -0.88020666574E+03  0.88020666574E+03  0.00000000000E+00 0.  1.
         21    1    1    2  503  506 -0.10665952163E+02  0.44215448458E+02 -0.18851213659E+01  0.45522764640E+02  0.00000000000E+00 0.  1.
         21    1    1    2  504  503  0.33748108557E+02  0.22228023833E+03 -0.14479115248E+03  0.26741712177E+03  0.00000000000E+00 0.  1.
         21    1    1    2  505  501  0.27740313839E+02 -0.26511169302E+02 -0.61312312778E+01  0.38858192272E+02  0.00000000000E+00 0.  1.
         21    1    1    2  506  502 -0.50822470233E+02 -0.23998451748E+03 -0.60394499469E+03  0.65186275298E+03  0.00000000000E+00 0.  1.
<scales pt_clust_3="31.37123" pt_clust_4="31.37123" pt_clust_5="38.37144" pt_clust_6="249.93031"></scales>
<clustering>
<clus scale="   31.371">  3  4 -1 -1</clus>
<clus scale="   38.371">  1  5  2 -1</clus>
<clus scale="  249.930">  2  6  1 -1</clus>
<clus scale="   38.371">  1  3  2 -1</clus>
</clustering>
</event>
<event>
 6    0  0.1344929E+003  0.1039842E+03  0.7546771E-02  0.1272134E+00
         21   -1    0    0  505  501  0.00000000000E+00  0.00000000000E+00  0.14504653691E+03  0.14504653691E+03  0.00000000000E+00 0. -1.
         21   -1    0    0  504  502 -0.00000000000E+00 -0.00000000000E+00 -0.25138330453E+03  0.25138330453E+03  0.00000000000E+00 0. -1.
         21    1    1    2  503  502  0.15481053406E+02 -0.11790915034E+03 -0.13813360234E+03  0.18227211208E+03  0.00000000000E+00 0. -1.
         21    1    1    2  504  501 -0.75623341756E+02  0.38631822298E+02 -0.17028079470E+02  0.86609832022E+02  0.00000000000E+00 0. -1.
         21    1    1    2  505  506  0.46430177783E+02  0.10542715342E+02  0.16800581488E+02  0.50489303760E+02  0.00000000000E+00 0.  1.
         21    1    1    2  506  503  0.13712110566E+02  0.68734612699E+02  0.32024332692E+02  0.77058593573E+02  0.00000000000E+00 0. -1.
<scales pt_clust_3="103.98416" pt_clust_4="74.11941" pt_clust_5="47.61208" pt_clust_6="14000.00000"></scales>
<clustering>
<clus scale="   47.612">  1  5  2 -1</clus>
<clus scale="   74.119">  1  4  2 -1</clus>
<clus scale="  103.984">  2  3  1 -1</clus>
<clus scale="   47.612">  1  3  2 -1</clus>
</clustering>
</event>
<event>
 6    0  0.1344929E+003  0.1019195E+03  0.7546771E-02  0.1276311E+00
         21   -1    0    0  504  501  0.00000000000E+00  0.00000000000E+00  0.36706458825E+03  0.36706458825E+03  0.00000000000E+00 0.  1.
         21   -1    0    0  503  502 -0.00000000000E+00 -0.00000000000E+00 -0.51637522734E+03  0.51637522734E+03  0.00000000000E+00 0. -1.
         21    1    1    2  503  506  0.34605866983E+02  0.51442340842E+02 -0.38947395177E+03  0.39437778787E+03  0.00000000000E+00 0. -1.
         21    1    1    2  504  505 -0.14844722598E+02  0.27165365257E+02 -0.36247692834E+01  0.31168282129E+02  0.00000000000E+00 0. -1.
         21    1    1    2  505  502  0.79254110494E+01  0.43611843709E+02 -0.90563390902E+02  0.10082922604E+03  0.00000000000E+00 0. -1.
         21    1    1    2  506  501 -0.27686555434E+02 -0.12221954981E+03  0.33435147286E+03  0.35706451954E+03  0.00000000000E+00 0.  1.
<scales pt_clust_3="14000.00000" pt_clust_4="30.95679" pt_clust_5="44.67677" pt_clust_6="101.91948"></scales>
<clustering>
<clus scale="   30.957">  1  4  2 -1</clus>
<clus scale="   44.677">  2  5  1 -1</clus>
<clus scale="  101.919">  1  6  2 -1</clus>
<clus scale="   30.957">  1  3  2 -1</clus>
</clustering>
</event>
<event>
 6    0  0.1344929E+003  0.8923086E+02  0.7546771E-02  0.1304725E+00
         21   -1    0    0  504  501  0.00000000000E+00  0.00000000000E+00  0.62834192705E+02  0.62834192705E+02  0.00000000000E+00 0. -1.
         21   -1    0    0  505  502 -0.00000000000E+00 -0.00000000000E+00 -0.89192324394E+03  0.89192324394E+03  0.00000000000E+00 0.  1.
         21    1    1    2  503  502 -0.65892384316E+01  0.36247183226E+02 -0.24234460855E+03  0.24512891639E+03  0.00000000000E+00 0.  1.
         21    1    1    2  504  506  0.10724643896E+03 -0.95346721381E+01 -0.27623132157E+03  0.29647335742E+03  0.00000000000E+00 0.  1.
         21    1    1    2  505  501 -0.55102267531E+02 -0.47904472505E+02  0.22477133951E+02  0.76395810904E+02  0.00000000000E+00 0. -1.
         21    1    1    2  506  503 -0.45554932996E+02  0.21191961417E+02 -0.33299025507E+03  0.33675935194E+03  0.00000000000E+00 0.  1.
<scales pt_clust_3="33.88080" pt_clust_4="79.97916" pt_clust_5="73.01437" pt_clust_6="33.88080"></scales>
<clustering>
<clus scale="   33.881">  3  6 -1 -1</clus>
<clus scale="   73.014">  1  5  2 -1</clus>
<clus scale="   79.979">  1  4  2 -1</clus>
<clus scale="   73.014">  1  3  2 -1</clus>
</clustering>
</event>
<event>
 6    0  0.1344929E+003  0.1253165E+03  0.7546771E-02  0.1234575E+00
         21   -1    0    0  502  501  0.00000000000E+00  0.00000000000E+00  0.39481717528E+03  0.39481717528E+03  0.00000000000E+00 0. -1.
         21   -1    0    0  503  502 -0.00000000000E+00 -0.00000000000E+00 -0.32781263100E+03  0.32781263100E+03  0.00000000000E+00 0. -1.
         21    1    1    2  503  504 -0.26837956198E+01 -0.42904107447E+02 -0.12905788942E+03  0.13602905578E+03  0.00000000000E+00 0. -1.
         21    1    1    2  504  506  0.45340534307E+02 -0.68262072479E+02 -0.17171111311E+03  0.19026345144E+03  0.00000000000E+00 0. -1.
         21    1    1    2  505  501 -0.40228244282E+02  0.97846656539E+01  0.15804505514E+03  0.16337775483E+03  0.00000000000E+00 0. -1.
         21    1    1    2  506  505 -0.24284944047E+01  0.10138151427E+03  0.20972849167E+03  0.23295954422E+03  0.00000000000E+00 0. -1.
<scales pt_clust_3="30.96051" pt_clust_4="30.96051" pt_clust_5="41.40110" pt_clust_6="117.80039"></scales>
<clustering>
<clus scale="   30.961">  3  4 -1 -1</clus>
<clus scale="   41.401">  1  5  2 -1</clus>
<clus scale="  117.800">  1  6  2 -1</clus>
<clus scale="   41.401">  1  3  2 -1</clus>
</clustering>
</event>
<event>
 6    0  0.1344929E+003  0.1115524E+03  0.7546771E-02  0.1257722E+00
         21   -1    0    0  503  501  0.00000000000E+00  0.00000000000E+00  0.79644719623E+02  0.79644719623E+02  0.00000000000E+00 0.  1.
         21   -1    0    0  504  502 -0.00000000000E+00 -0.00000000000E+00 -0.26676636580E+04  0.26676636580E+04  0.00000000000E+00 0. -1.
         21    1    1    2  503  505  0.66097324059E+02 -0.96541684006E+02 -0.22704908068E+02  0.11918332874E+03  0.00000000000E+00 0.  1.
         21    1    1    2  504  506 -0.40221416099E+02 -0.21479098984E+02 -0.15869187952E+04  0.15875737390E+04  0.00000000000E+00 0. -1.
         21    1    1    2  505  502  0.21447017849E+02  0.12295208693E+03 -0.97514216910E+02  0.15838627704E+03  0.00000000000E+00 0.  1.
         21    1    1    2  506  501 -0.47322925809E+02 -0.49313039368E+01 -0.88088101818E+03  0.88216503289E+03  0.00000000000E+00 0.  1.
<scales pt_clust_3="14000.00000" pt_clust_4="34.08327" pt_clust_5="111.55242" pt_clust_6="97.84519"></scales>
<clustering>
<clus scale="   34.083">  4  6 -1 -1</clus>
<clus scale="   97.845">  2  4  1 -1</clus>
<clus scale="  111.552">  2  5  1 -1</clus>
<clus scale="  111.552">  1  3  2 -1</clus>
</clustering>
</event>
<event>
 6    0  0.1344929E+003  0.1170618E+03  0.7546771E-02  0.1248024E+00
         21   -1    0    0  504  501  0.00000000000E+00  0.00000000000E+00  0.30123935830E+04  0.30123935830E+04  0.00000000000E+00 0.  1.
         21   -1    0    0  506  502 -0.00000000000E+00 -0.00000000000E+00 -0.10101918633E+03  0.10101918633E+03  0.00000000000E+00 0. -1.
         21    1    1    2  503  501 -0.17798792921E+03 -0.14367453983E+02  0.66478391835E+03  0.68834859249E+03  0.00000000000E+00 0.  1.
         21    1    1    2  504  505  0.22209286030E+02  0.33821250466E+02  0.18769144296E+04  0.18773505015E+04  0.00000000000E+00 0.  1.
         21    1    1    2  505  502  0.49835337349E+02  0.24354128909E+02  0.41918341596E+03  0.42283734539E+03  0.00000000000E+00 0.  1.
         21    1    1    2  506  503  0.10594330584E+03 -0.43807925392E+02 -0.49507367227E+02  0.12487632998E+03  0.00000000000E+00 0. -1.
<scales pt_clust_3="117.06183" pt_clust_4="40.46146" pt_clust_5="68.80175" pt_clust_6="14000.00000"></scales>
<clustering>
<clus scale="   40.461">  1  4  2 -1</clus>
<clus scale="   68.802">  1  5  2 -1</clus>
<clus scale="  117.062">  1  3  2 -1</clus>
<clus scale="   40.461">  1  3  2 -1</clus>
</clustering>
</event>
<event>
 6    0  0.1344929E+003  0.1578749E+03  0.7546771E-02  0.1191117E+00
         21   -1    0    0  506  501  0.00000000000E+00  0.00000000000E+00  0.32269060951E+03  0.32269060951E+03  0.00000000000E+00 0. -1.
         21   -1    0    0  503  502 -0.00000000000E+00 -0.00000000000E+00 -0.32722808259E+03  0.32722808259E+03  0.00000000000E+00 0. -1.
         21    1    1    2  503  504 -0.59778179508E+02 -0.13002597617E+03 -0.16144860791E+03  0.21574484517E+03  0.00000000000E+00 0. -1.
         21    1    1    2  504  501 -0.77887125839E+02  0.11940694320E+02  0.12716486168E+03  0.14959908622E+03  0.00000000000E+00 0. -1.
         21    1    1    2  505  502  0.76460210088E+02 -0.38830923460E+02 -0.48867174411E+02  0.98701596129E+02  0.00000000000E+00 0. -1.
         21    1    1    2  506  505  0.61205095259E+02  0.15691620531E+03  0.78613447563E+02  0.18587316458E+03  0.00000000000E+00 0. -1.
<scales pt_clust_3="157.87486" pt_clust_4="78.79711" pt_clust_5="75.70930" pt_clust_6="14000.00000"></scales>
<clustering>
<clus scale="   78.797">  1  4  2 -1</clus>
<clus scale="   75.709">  2  5  1 -1</clus>
<clus scale="  157.875">  2  3  1 -1</clus>
<clus scale="   78.797">  1  3  2 -1</clus>
</clustering>
</event>
<event>
 6    0  0.1344929E+003  0.2980866E+03  0.7546771E-02  0.1086201E+00
         21   -1    0    0  506  501  0.00000000000E+00  0.00000000000E+00  0.42468806812E+03  0.42468806812E+03  0.00000000000E+00 0. -1.
         21   -1    0    0  505  502 -0.00000000000E+00 -0.00000000000E+00 -0.36823916322E+03  0.36823916322E+03  0.00000000000E+00 0.  1.
         21    1    1    2  503  501 -0.12020041311E+03  0.26047259190E+03  0.15910908307E+03  0.32803934330E+03  0.00000000000E+00 0. -1.
         21    1    1    2  504  502  0.15311919409E+03 -0.29713616281E+03 -0.92704796425E+02  0.34688552309E+03  0.00000000000E+00 0.  1.
         21    1    1    2  505  503 -0.70891214847E+02  0.27590975844E+02 -0.17928410863E+02  0.78155321038E+02  0.00000000000E+00 0.  1.
         21    1    1    2  506  504  0.37972433868E+02  0.90725950746E+01  0.79730291213E+01  0.39847043913E+02  0.00000000000E+00 0.  1.
<scales pt_clust_3="298.08661" pt_clust_4="14000.00000" pt_clust_5="73.67850" pt_clust_6="39.04123"></scales>
<clustering>
<clus scale="   39.041">  1  6  2 -1</clus>
<clus scale="   73.679">  2  5  1 -1</clus>
<clus scale="  298.087">  1  3  2 -1</clus>
<clus scale="   39.041">  1  3  2 -1</clus>
</clustering>
</event>
<event>
 6    0  0.1344929E+003  0.8278991E+02  0.7546771E-02  0.1321315E+00
         21   -1    0    0  506  501  0.00000000000E+00  0.00000000000E+00  0.10002608085E+03  0.10002608085E+03  0.00000000000E+00 0. -1.
         21   -1    0    0  504  502 -0.00000000000E+00 -0.00000000000E+00 -0.15418693082E+04  0.15418693082E+04  0.00000000000E+00 0.  1.
         21    1    1    2  503  501 -0.80529093495E+02 -0.12687245032E+02  0.68113375447E+02  0.10623244796E+03  0.00000000000E+00 0. -1.
         21    1    1    2  504  503 -0.31244006826E+02  0.64507905177E-01 -0.68451174989E+02  0.75244637558E+02  0.00000000000E+00 0.  1.
         21    1    1    2  505  502 -0.35112925959E+00  0.39743752571E+02 -0.10847077721E+04  0.10854356914E+04  0.00000000000E+00 0.  1.
         21    1    1    2  506  505  0.11212422958E+03 -0.27121015444E+02 -0.35679765568E+03  0.37498261218E+03  0.00000000000E+00 0.  1.
<scales pt_clust_3="14000.00000" pt_clust_4="31.24407" pt_clust_5="46.16859" pt_clust_6="82.78991"></scales>
<clustering>
<clus scale="   31.244">  2  4  1 -1</clus>
<clus scale="   46.169">  2  5  1 -1</clus>
<clus scale="   82.790">  2  6  1 -1</clus>
<clus scale="   82.790">  1  3  2 -1</clus>
</clustering>
</event>
<event>
 6    0  0.1344929E+003  0.8950226E+02  0.7546771E-02  0.1304062E+00
         21   -1    0    0  504  501  0.00000000000E+00  0.00000000000E+00  0.37356786245E+03  0.37356786245E+03  0.00000000000E+00 0.  1.
         21   -1    0    0  503  502 -0.00000000000E+00 -0.00000000000E+00 -0.26501144746E+03  0.26501144746E+03  0.00000000000E+00 0.  1.
         21    1    1    2  503  506 -0.82488837366E+02  0.78098616391E+02 -0.21787506475E+03  0.24570988179E+03  0.00000000000E+00 0.  1.
         21    1    1    2  504  505  0.50832576351E+02 -0.24072545586E+01  0.22773085451E+03  0.23334756864E+03  0.00000000000E+00 0.  1.
         21    1    1    2  505  502 -0.64860967515E+01 -0.38135597656E+02 -0.85846744767E+01  0.39624359876E+02  0.00000000000E+00 0.  1.
         21    1    1    2  506  501  0.38142357766E+02 -0.37555764176E+02  0.10728529971E+03  0.11989749961E+03  0.00000000000E+00 0.  1.
<scales pt_clust_3="89.50226" pt_clust_4="50.83702" pt_clust_5="38.68324" pt_clust_6="14000.00000"></scales>
<clustering>
<clus scale="   38.683">  2  5  1 -1</clus>
<clus scale="   50.837">  1  4  2 -1</clus>
<clus scale="   89.502">  2  3  1 -1</clus>
<clus scale="   50.837">  1  3  2 -1</clus>
</clustering>
</event>
<event>
 6    0  0.1344929E+003  0.1169407E+03  0.7546771E-02  0.1248231E+00
         21   -1    0    0  504  501  0.00000000000E+00  0.00000000000E+00  0.24478912550E+04  0.24478912550E+04  0.00000000000E+00 0.  1.
         21   -1    0    0  506  502 -0.00000000000E+00 -0.00000000000E+00 -0.48780155287E+02  0.48780155287E+02  0.00000000000E+00 0. -1.
         21    1    1    2  503  502 -0.41476388888E+02 -0.16236316388E+02 -0.14114339087E+02  0.46723905797E+02  0.00000000000E+00 0. -1.
         21    1    1    2  504  503  0.10154850047E+03  0.42472288607E+02  0.21595894096E+04  0.21623927514E+04  0.00000000000E+00 0.  1.
         21    1    1    2  505  501  0.24734132262E+02 -0.26404305322E+02  0.14657634425E+03  0.15097545937E+03  0.00000000000E+00 0.  1.
         21    1    1    2  506  505 -0.84806243845E+02  0.16833310365E+00  0.10705968494E+03  0.13657929371E+03  0.00000000000E+00 0. -1.
<scales pt_clust_3="44.44665" pt_clust_4="116.94069" pt_clust_5="36.17962" pt_clust_6="14000.00000"></scales>
<clustering>
<clus scale="   36.180">  1  5  2 -1</clus>
<clus scale="   44.447">  2  3  1 -1</clus>
<clus scale="  116.941">  1  4  2 -1</clus>
<clus scale="   36.180">  1  3  2 -1</clus>
</clustering>
</event>
<event>
 6    0  0.1344929E+003  0.8672663E+02  0.7546771E-02  0.1310978E+00
         21   -1    0    0  505  501  0.00000000000E+00  0.00000000000E+00  0.31971140801E+03  0.31971140801E+03  0.00000000000E+00 0.  1.
         21   -1    0    0  506  502 -0.00000000000E+00 -0.00000000000E+00 -0.32609850755E+03  0.32609850755E+03  0.00000000000E+00 0. -1.
         21    1    1    2  503  501  0.33590636143E+02  0.52395472475E+02  0.23717772824E+03  0.24520785295E+03  0.00000000000E+00 0.  1.
         21    1    1    2  504  503  0.64385535323E+02 -0.57461301475E+02 -0.14995562762E+03  0.17301441727E+03  0.00000000000E+00 0. -1.
         21    1    1    2  505  502 -0.78200344377E+02  0.28878615653E+02  0.38555488859E+02  0.91846578727E+02  0.00000000000E+00 0.  1.
         21    1    1    2  506  504 -0.19775827088E+02 -0.23812786653E+02 -0.13216468902E+03  0.13574106663E+03  0.00000000000E+00 0. -1.
<scales pt_clust_3="61.59651" pt_clust_4="86.72663" pt_clust_5="14000.00000" pt_clust_6="30.95371"></scales>
<clustering>
<clus scale="   30.954">  2  6  1 -1</clus>
<clus scale="   61.597">  1  3  2 -1</clus>
<clus scale="   86.727">  2  4  1 -1</clus>
<clus scale="   61.597">  1  3  2 -1</clus>
</clustering>
</event>
<event>
 6    0  0.1344929E+003  0.3609402E+03  0.7546771E-02  0.1058212E+00
         21   -1    0    0  506  501  0.00000000000E+00  0.00000000000E+00  0.20370257489E+03  0.20370257489E+03  0.00000000000E+00 0.  1.
         21   -1    0    0  503  502 -0.00000000000E+00 -0.00000000000E+00 -0.10511390433E+04  0.10511390433E+04  0.00000000000E+00 0.  1.
         21    1    1    2  503  504 -0.31833474059E+03 -0.67088511866E+01 -0.46544415378E+03  0.56393286483E+03  0.00000000000E+00 0.  1.
         21    1    1    2  504  501 -0.37073741445E+02 -0.31880025505E+02  0.78384662866E+02  0.92384813165E+02  0.00000000000E+00 0.  1.
         21    1    1    2  505  502  0.10970939092E+03  0.76086693144E+02 -0.17432797833E+03  0.21958046215E+03  0.00000000000E+00 0.  1.
         21    1    1    2  506  505  0.24569909112E+03 -0.37497816452E+02 -0.28604899914E+03  0.37894347800E+03  0.00000000000E+00 0.  1.
<scales pt_clust_3="334.36232" pt_clust_4="48.89579" pt_clust_5="98.51997" pt_clust_6="98.51997"></scales>
<clustering>
<clus scale="   48.896">  1  4  2 -1</clus>
<clus scale="   98.520">  5  6 -1 -1</clus>
<clus scale="  334.362">  2  3  1 -1</clus>
<clus scale="   48.896">  1  3  2 -1</clus>
</clustering>
</event>
<event>
 6    0  0.1344929E+003  0.1152195E+03  0.7546771E-02  0.1251198E+00
         21   -1    0    0  504  501  0.00000000000E+00  0.00000000000E+00  0.22660248718E+04  0.22660248718E+04  0.00000000000E+00 0.  1.
         21   -1    0    0  503  502 -0.00000000000E+00 -0.00000000000E+00 -0.31150230259E+03  0.31150230259E+03  0.00000000000E+00 0. -1.
         21    1    1    2  503  501 -0.76596271964E+02  0.10283906419E+02 -0.16998122304E+03  0.18672536998E+03  0.00000000000E+00 0. -1.
         21    1    1    2  504  506  0.58886168892E+02  0.98035488745E+02  0.16950144230E+04  0.16988679855E+04  0.00000000000E+00 0.  1.
         21    1    1    2  505  502  0.14287265326E+02  0.27321373018E+02 -0.12105315177E+03  0.12491776866E+03  0.00000000000E+00 0. -1.
         21    1    1    2  506  505  0.34228377455E+01 -0.13564076818E+03  0.55054252102E+03  0.56701605027E+03  0.00000000000E+00 0.  1.
<scales pt_clust_3="72.69483" pt_clust_4="14000.00000" pt_clust_5="30.83153" pt_clust_6="115.21951"></scales>
<clustering>
<clus scale="   30.832">  2  5  1 -1</clus>
<clus scale="   72.695">  2  3  1 -1</clus>
<clus scale="  115.220">  2  6  1 -1</clus>
<clus scale="  115.220">  1  3  2 -1</clus>
</clustering>
</event>
<event>
 6    0  0.1344929E+003  0.1362466E+03  0.7546771E-02  0.1218471E+00
         21   -1    0    0  504  501  0.00000000000E+00  0.00000000000E+00  0.25268266427E+03  0.25268266427E+03  0.00000000000E+00 0. -1.
         21   -1    0    0  503  502 -0.00000000000E+00 -0.00000000000E+00 -0.74471821107E+03  0.74471821107E+03  0.00000000000E+00 0. -1.
         21    1    1    2  503  506  0.13634786428E+02  0.27472789346E+02 -0.62313179395E+03  0.62388612277E+03  0.00000000000E+00 0. -1.
         21    1    1    2  504  502  0.96839082338E+02 -0.12975022785E+03  0.15022433393E+02  0.16259951722E+03  0.00000000000E+00 0. -1.
         21    1    1    2  505  501 -0.65356099580E+02  0.10791327673E+03  0.10494654954E+03  0.16410506789E+03  0.00000000000E+00 0. -1.
         21    1    1    2  506  505 -0.45117769186E+02 -0.56358382276E+01  0.11127264215E+02  0.46810167461E+02  0.00000000000E+00 0. -1.
<scales pt_clust_3="30.67021" pt_clust_4="136.24663" pt_clust_5="14000.00000" pt_clust_6="43.14017"></scales>
<clustering>
<clus scale="   30.670">  2  3  1 -1</clus>
<clus scale="   43.140">  2  6  1 -1</clus>
<clus scale="  136.247">  2  4  1 -1</clus>
<clus scale="  136.247">  1  3  2 -1</clus>
</clustering>
</event>
<event>
 6    0  0.1344929E+003  0.1069139E+03  0.7546771E-02  0.1266394E+00
         21   -1    0    0  503  501  0.00000000000E+00  0.00000000000E+00  0.15943870677E+03  0.15943870677E+03  0.00000000000E+00 0. -1.
         21   -1    0    0  505  502 -0.00000000000E+00 -0.00000000000E+00 -0.33182157258E+03  0.33182157258E+03  0.00000000000E+00 0. -1.
         21    1    1    2  503  506  0.42408540132E+02  0.27113753139E+01  0.22704798258E+02  0.48180324783E+02  0.00000000000E+00 0. -1.
         21    1    1    2  504  502 -0.56147165462E+02  0.54366085548E+02 -0.18256606349E+03  0.19859139706E+03  0.00000000000E+00 0. -1.
         21    1    1    2  505  501 -0.56971782478E+02 -0.11748886760E+03  0.41406727870E+02  0.13698151380E+03  0.00000000000E+00 0. -1.
         21    1    1    2  506  504  0.70710407808E+02  0.60411406742E+02 -0.53928328449E+02  0.10750704370E+03  0.00000000000E+00 0. -1.
<scales pt_clust_3="42.49513" pt_clust_4="76.33498" pt_clust_5="106.91393" pt_clust_6="14000.00000"></scales>
<clustering>
<clus scale="   42.495">  1  3  2 -1</clus>
<clus scale="   76.335">  2  4  1 -1</clus>
<clus scale="  106.914">  1  5  2 -1</clus>
<clus scale="   42.495">  1  3  2 -1</clus>
</clustering>
</event>
<event>
 6    0  0.1344929E+003  0.9682755E+02  0.7546771E-02  0.1287112E+00
         21   -1    0    0  505  501  0.00000000000E+00  0.00000000000E+00  0.80413187342E+03  0.80413187342E+03  0.00000000000E+00 0.  1.
         21   -1    0    0  506  502 -0.00000000000E+00 -0.00000000000E+00 -0.31826218722E+03  0.31826218722E+03  0.00000000000E+00 0.  1.
         21    1    1    2  503  502  0.44498439048E+02  0.10023710641E+02  0.21712496584E+02  0.50517505486E+02  0.00000000000E+00 0. -1.
         21    1    1    2  504  501 -0.17069833882E+03 -0.40573331517E+02  0.45207976408E+03  0.48493322345E+03  0.00000000000E+00 0.  1.
         21    1    1    2  505  503  0.30832774013E+02  0.24921704493E+02  0.29018716453E+03  0.29288281235E+03  0.00000000000E+00 0.  1.
         21    1    1    2  506  504  0.95367125763E+02  0.56279163832E+01 -0.27810973900E+03  0.29406051936E+03  0.00000000000E+00 0.  1.
<scales pt_clust_3="48.13438" pt_clust_4="96.82755" pt_clust_5="39.64532" pt_clust_6="14000.00000"></scales>
<clustering>
<clus scale="   39.645">  1  5  2 -1</clus>
<clus scale="   48.134">  1  3  2 -1</clus>
<clus scale="   96.828">  1  4  2 -1</clus>
<clus scale="   39.645">  1  3  2 -1</clus>
</clustering>
</event>
<event>
 6    0  0.1344929E+003  0.1039016E+03  0.7546771E-02  0.1272299E+00
         21   -1    0    0  506  501  0.00000000000E+00  0.00000000000E+00  0.14270999172E+04  0.14270999172E+04  0.00000000000E+00 0. -1.
         21   -1    0    0  504  502 -0.00000000000E+00 -0.00000000000E+00 -0.43436713696E+02  0.43436713696E+02  0.00000000000E+00 0. -1.
         21    1    1    2  503  501 -0.34256582249E+02  0.60973442135E+02  0.86406036581E+03  0.86688614583E+03  0.00000000000E+00 0.  1.
         21    1    1    2  504  505 -0.57764096002E+02 -0.58787809646E+01  0.47115975482E+02  0.74774099782E+02  0.00000000000E+00 0. -1.
         21    1    1    2  505  503 -0.30233697259E+02 -0.10215293150E+03  0.20449383739E+03  0.23057976363E+03  0.00000000000E+00 0. -1.
         21    1    1    2  506  502  0.12225437551E+03  0.47058270332E+02  0.26799302485E+03  0.29829662168E+03  0.00000000000E+00 0. -1.
<scales pt_clust_3="71.08867" pt_clust_4="58.06247" pt_clust_5="14000.00000" pt_clust_6="103.90163"></scales>
<clustering>
<clus scale="   58.062">  2  4  1 -1</clus>
<clus scale="   71.089">  1  3  2 -1</clus>
<clus scale="  103.902">  2  6  1 -1</clus>
<clus scale="   71.089">  1  3  2 -1</clus>
</clustering>
</event>
<event>
 6    0  0.1344929E+003  0.1144136E+03  0.7546771E-02  0.1252608E+00
         21   -1    0    0  504  501  0.00000000000E+00  0.00000000000E+00  0.51919308832E+03  0.51919308832E+03  0.00000000000E+00 0. -1.
         21   -1    0    0  505  502 -0.00000000000E+00 -0.00000000000E+00 -0.14707277260E+03  0.14707277260E+03  0.00000000000E+00 0. -1.
         21    1    1    2  503  506 -0.71654812876E+02  0.10292295361E+03  0.22173858970E+03  0.25474604757E+03  0.00000000000E+00 0. -1.
         21    1    1    2  504  503  0.34858418425E+02 -0.10295996948E+03  0.24660443802E+03  0.26949881911E+03  0.00000000000E+00 0. -1.
         21    1    1    2  505  501  0.16070820261E+02 -0.37296584597E+02 -0.90169901896E+02  0.98893466389E+02  0.00000000000E+00 0. -1.
         21    1    1    2  506  502  0.20725574190E+02  0.37333600462E+02 -0.60528101082E+01  0.43127527859E+02  0.00000000000E+00 0. -1.
<scales pt_clust_3="14000.00000" pt_clust_4="114.41356" pt_clust_5="40.61165" pt_clust_6="34.54032"></scales>
<clustering>
<clus scale="   40.612">  2  5  1 -1</clus>
<clus scale="   34.540">  2  6  1 -1</clus>
<clus scale="  114.414">  1  4  2 -1</clus>
<clus scale="  114.414">  1  3  2 -1</clus>
</clustering>
</event>
<event>
 6    0  0.1344929E+003  0.1504362E+03  0.7546771E-02  0.1199938E+00
         21   -1    0    0  502  501  0.00000000000E+00  0.00000000000E+00  0.78304801084E+03  0.78304801084E+03  0.00000000000E+00 0. -1.
         21   -1    0    0  503  502 -0.00000000000E+00 -0.00000000000E+00 -0.87532805012E+02  0.87532805012E+02  0.00000000000E+00 0. -1.
         21    1    1    2  503  505 -0.94833898032E+02  0.39930861273E+02  0.20318543298E+02  0.10488462757E+03  0.00000000000E+00 0. -1.
         21    1    1    2  504  506  0.16227167364E+03 -0.59783536207E+02  0.33572547924E+03  0.37764767268E+03  0.00000000000E+00 0. -1.
         21    1    1    2  505  504 -0.37925817189E+02 -0.11695123037E+02 -0.57785697143E+01  0.40106550341E+02  0.00000000000E+00 0. -1.
         21    1    1    2  506  501 -0.29511958415E+02  0.31547797971E+02  0.34524975300E+03  0.34794196527E+03  0.00000000000E+00 0. -1.
<scales pt_clust_3="30.35301" pt_clust_4="142.27588" pt_clust_5="30.35301" pt_clust_6="43.19976"></scales>
<clustering>
<clus scale="   30.353">  3  5 -1 -1</clus>
<clus scale="   43.200">  1  6  2 -1</clus>
<clus scale="  142.276">  1  4  2 -1</clus>
<clus scale="   43.200">  1  3  2 -1</clus>
</clustering>
</event>
<event>
 6    0  0.1344929E+003  0.9584507E+02  0.7546771E-02  0.1289284E+00
         21   -1    0    0  504  501  0.00000000000E+00  0.00000000000E+00  0.24200954768E+03  0.24200954768E+03  0.00000000000E+00 0. -1.
         21   -1    0    0  505  502 -0.00000000000E+00 -0.00000000000E+00 -0.13502422480E+04  0.13502422480E+04  0.00000000000E+00 0. -1.
         21    1    1    2  503  502  0.80886359521E+02 -0.28724342220E+02 -0.27820302982E+03  0.29114363602E+03  0.00000000000E+00 0.  1.
         21    1    1    2  504  503 -0.60125657747E+02  0.75775807090E+02  0.19881958467E+03  0.22110245342E+03  0.00000000000E+00 0. -1.
         21    1    1    2  505  506  0.36093675090E+02 -0.19170335468E+02 -0.10141836994E+04  0.10150068134E+04  0.00000000000E+00 0. -1.
         21    1    1    2  506  501 -0.56854376865E+02 -0.27881129403E+02 -0.14665555796E+02  0.64998892854E+02  0.00000000000E+00 0. -1.
<scales pt_clust_3="14000.00000" pt_clust_4="95.84507" pt_clust_5="40.86876" pt_clust_6="60.60615"></scales>
<clustering>
<clus scale="   40.869">  2  5  1 -1</clus>
<clus scale="   60.606">  2  6  1 -1</clus>
<clus scale="   95.845">  1  4  2 -1</clus>
<clus scale="   95.845">  1  3  2 -1</clus>
</clustering>
</event>
<event>
 6    0  0.1344929E+003  0.5952534E+02  0.7546771E-02  0.1399835E+00
         21   -1    0    0  506  501  0.00000000000E+00  0.00000000000E+00  0.91497936000E+03  0.91497936000E+03  0.00000000000E+00 0. -1.
         21   -1    0    0  503  502 -0.00000000000E+00 -0.00000000000E+00 -0.99824709803E+02  0.99824709803E+02  0.00000000000E+00 0. -1.
         21    1    1    2  503  501 -0.68171827671E+02  0.35296462322E+02  0.23292542637E+03  0.24524985747E+03  0.00000000000E+00 0. -1.
         21    1    1    2  504  505  0.68764328129E+01 -0.81508313151E+02  0.59591240821E+02  0.10120279850E+03  0.00000000000E+00 0. -1.
         21    1    1    2  505  502  0.24186948635E+02  0.52304081768E+02 -0.60761161468E+02  0.83741532090E+02  0.00000000000E+00 0. -1.
         21    1    1    2  506  504  0.37108446223E+02 -0.60922309387E+01  0.58339914448E+03  0.58460988175E+03  0.00000000000E+00 0. -1.
<scales pt_clust_3="51.62998" pt_clust_4="59.52534" pt_clust_5="14000.00000" pt_clust_6="37.60521"></scales>
<clustering>
<clus scale="   37.605">  1  6  2 -1</clus>
<clus scale="   51.630">  1  3  2 -1</clus>
<clus scale="   59.525">  1  4  2 -1</clus>
<clus scale="   37.605">  1  3  2 -1</clus>
</clustering>
</event>
<event>
 6    0  0.1344929E+003  0.1197943E+03  0.7546771E-02  0.1243437E+00
         21   -1    0    0  506  501  0.00000000000E+00  0.00000000000E+00  0.45842739408E+03  0.45842739408E+03  0.00000000000E+00 0.  1.
         21   -1    0    0  505  502 -0.00000000000E+00 -0.00000000000E+00 -0.13241444399E+04  0.13241444399E+04  0.00000000000E+00 0. -1.
         21    1    1    2  503  501  0.12570363875E+02  0.37280997115E+02  0.14873068778E+03  0.15384636584E+03  0.00000000000E+00 0.  1.
         21    1    1    2  504  503  0.99774970415E+02 -0.10203596652E+03 -0.28985745280E+03  0.32308470426E+03  0.00000000000E+00 0. -1.
         21    1    1    2  505  504  0.17072798324E+02  0.76776836143E+02 -0.99895489539E+03  0.10020464291E+04  0.00000000000E+00 0. -1.
         21    1    1    2  506  502 -0.12941813261E+03 -0.12021866734E+02  0.27436461464E+03  0.30359433475E+03  0.00000000000E+00 0.  1.
<scales pt_clust_3="39.34319" pt_clust_4="14000.00000" pt_clust_5="78.84905" pt_clust_6="119.79435"></scales>
<clustering>
<clus scale="   39.343">  1  3  2 -1</clus>
<clus scale="   78.849">  2  5  1 -1</clus>
<clus scale="  119.794">  1  6  2 -1</clus>
<clus scale="   39.343">  1  3  2 -1</clus>
</clustering>
</event>
<event>
 6    0  0.1344929E+003  0.9028090E+02  0.7546771E-02  0.1302173E+00
         21   -1    0    0  504  501  0.00000000000E+00  0.00000000000E+00  0.13847852284E+04  0.13847852284E+04  0.00000000000E+00 0.  1.
         21   -1    0    0  506  502 -0.00000000000E+00 -0.00000000000E+00 -0.18066188638E+03  0.18066188638E+03  0.00000000000E+00 0.  1.
         21    1    1    2  503  502 -0.50054492656E+02  0.65916677320E+02 -0.96172723513E+02  0.12688440933E+03  0.00000000000E+00 0.  1.
         21    1    1    2  504  503  0.93025753947E+02  0.70548223305E+02  0.93726770736E+03  0.94451130114E+03  0.00000000000E+00 0.  1.
         21    1    1    2  505  501 -0.74633867765E+02 -0.51319923819E+01  0.35047882822E+03  0.35837405123E+03  0.00000000000E+00 0.  1.
         21    1    1    2  506  505  0.31662606474E+02 -0.13133290824E+03  0.12549529952E+02  0.13567735308E+03  0.00000000000E+00 0.  1.
<scales pt_clust_3="90.28090" pt_clust_4="70.40191" pt_clust_5="74.81010" pt_clust_6="14000.00000"></scales>
<clustering>
<clus scale="   74.810">  1  5  2 -1</clus>
<clus scale="   70.402">  1  4  2 -1</clus>
<clus scale="   90.281">  2  3  1 -1</clus>
<clus scale="   74.810">  1  3  2 -1</clus>
</clustering>
</event>
<event>
 6    0  0.1344929E+003  0.1715089E+03  0.7546771E-02  0.1176283E+00
         21   -1    0    0  504  501  0.00000000000E+00  0.00000000000E+00  0.44216555378E+02  0.44216555378E+02  0.00000000000E+00 0.  1.
         21   -1    0    0  506  502 -0.00000000000E+00 -0.00000000000E+00 -0.25284292470E+04  0.25284292470E+04  0.00000000000E+00 0.  1.
         21    1    1    2  503  502 -0.42567550542E+02  0.11243497063E+03 -0.56604127499E+03  0.57866773193E+03  0.00000000000E+00 0.  1.
         21    1    1    2  504  503  0.55379775826E+02  0.82705570841E+02 -0.44881525056E+02  0.10918554075E+03  0.00000000000E+00 0.  1.
         21    1    1    2  505  501  0.76621566217E+01 -0.16968778049E+03 -0.13785519812E+04  0.13889773995E+04  0.00000000000E+00 0.  1.
         21    1    1    2  506  505 -0.20474381905E+02 -0.25452760972E+02 -0.49473791038E+03  0.49581513019E+03  0.00000000000E+00 0.  1.
<scales pt_clust_3="156.30551" pt_clust_4="99.53457" pt_clust_5="30.95871" pt_clust_6="30.95871"></scales>
<clustering>
<clus scale="   30.959">  5  6 -1 -1</clus>
<clus scale="   99.535">  1  4  2 -1</clus>
<clus scale="  156.306">  1  3  2 -1</clus>
<clus scale="   99.535">  1  3  2 -1</clus>
</clustering>
</event>
<event>
 6    0  0.1344929E+003  0.1641922E+03  0.7546771E-02  0.1184043E+00
         21   -1    0    0  505  501  0.00000000000E+00  0.00000000000E+00  0.91279975061E+03  0.91279975061E+03  0.00000000000E+00 0.  1.
         21   -1    0    0  503  502 -0.00000000000E+00 -0.00000000000E+00 -0.43996915312E+03  0.43996915312E+03  0.00000000000E+00 0.  1.
         21    1    1    2  503  504  0.49102415001E+02  0.11024067369E+03 -0.63699511647E+02  0.13646128051E+03  0.00000000000E+00 0.  1.
         21    1    1    2  504  501  0.34115958030E+02  0.13432104984E+02 -0.64416912908E+01  0.37226541919E+02  0.00000000000E+00 0. -1.
         21    1    1    2  505  506 -0.47343049344E+02 -0.14795606270E+03  0.85249884307E+03  0.86653715341E+03  0.00000000000E+00 0.  1.
         21    1    1    2  506  502 -0.35875323687E+02  0.24283284026E+02 -0.30952704264E+03  0.31254392789E+03  0.00000000000E+00 0.  1.
<scales pt_clust_3="30.32782" pt_clust_4="30.32782" pt_clust_5="154.69861" pt_clust_6="43.32109"></scales>
<clustering>
<clus scale="   30.328">  3  4 -1 -1</clus>
<clus scale="   43.321">  2  6  1 -1</clus>
<clus scale="  154.699">  1  5  2 -1</clus>
<clus scale="  154.699">  1  3  2 -1</clus>
</clustering>
</event>
<event>
 6    0  0.1344929E+003  0.1000545E+03  0.7546771E-02  0.1280181E+00
         21   -1    0    0  506  501  0.00000000000E+00  0.00000000000E+00  0.12082508111E+04  0.12082508111E+04  0.00000000000E+00 0. -1.
         21   -1    0    0  504  502 -0.00000000000E+00 -0.00000000000E+00 -0.28319653023E+03  0.28319653023E+03  0.00000000000E+00 0. -1.
         21    1    1    2  503  505  0.38658389730E+02  0.63221932100E+02  0.11696862547E+01  0.74113777133E+02  0.00000000000E+00 0.  1.
         21    1    1    2  504  503 -0.65737786307E+02 -0.86524212233E+02 -0.22683761589E+03  0.25152176811E+03  0.00000000000E+00 0. -1.
         21    1    1    2  505  501  0.12919753219E+02 -0.39498124381E+02  0.10122899795E+04  0.10131426477E+04  0.00000000000E+00 0. -1.
         21    1    1    2  506  502  0.14159643359E+02  0.62800404514E+02  0.13843223103E+03  0.15266914847E+03  0.00000000000E+00 0. -1.
<scales pt_clust_3="14000.00000" pt_clust_4="100.05454" pt_clust_5="41.55745" pt_clust_6="40.99794"></scales>
<clustering>
<clus scale="   41.557">  1  5  2 -1</clus>
<clus scale="   40.998">  1  6  2 -1</clus>
<clus scale="  100.055">  2  4  1 -1</clus>
<clus scale="   41.557">  1  3  2 -1</clus>
</clustering>
</event>
<event>
 6    0  0.1344929E+003  0.8179010E+02  0.7546771E-02  0.1324047E+00
         21   -1    0    0  505  501  0.00000000000E+00  0.00000000000E+00  0.12368340506E+04  0.12368340506E+04  0.00000000000E+00 0. -1.
         21   -1    0    0  504  502 -0.00000000000E+00 -0.00000000000E+00 -0.82340018644E+02  0.82340018644E+02  0.00000000000E+00 0. -1.
         21    1    1    2  503  502  0.76463811643E+00  0.31446749585E+02  0.53118401973E+00  0.31460529038E+02  0.00000000000E+00 0. -1.
         21    1    1    2  504  506  0.77103240287E+02 -0.21670339882E+02 -0.28630737480E+02  0.85054291027E+02  0.00000000000E+00 0. -1.
         21    1    1    2  505  503  0.64047164667E+02  0.27452462299E+02  0.46802778605E+03  0.47318673429E+03  0.00000000000E+00 0. -1.
         21    1    1    2  506  501 -0.14191504307E+03 -0.37228872001E+02  0.71456579934E+03  0.72947251487E+03  0.00000000000E+00 0. -1.
<scales pt_clust_3="31.45604" pt_clust_4="14000.00000" pt_clust_5="70.19632" pt_clust_6="81.79010"></scales>
<clustering>
<clus scale="   31.456">  2  3  1 -1</clus>
<clus scale="   70.196">  1  5  2 -1</clus>
<clus scale="   81.790">  1  6  2 -1</clus>
<clus scale="   70.196">  1  3  2 -1</clus>
</clustering>
</event>
<event>
 6    0  0.1344929E+003  0.1018519E+03  0.7546771E-02  0.1276449E+00
         21   -1    0    0  504  501  0.00000000000E+00  0.00000000000E+00  0.20008571206E+03  0.20008571206E+03  0.00000000000E+00 0.  1.
         21   -1    0    0  505  502 -0.00000000000E+00 -0.00000000000E+00 -0.12524220152E+04  0.12524220152E+04  0.00000000000E+00 0.  1.
         21    1    1    2  503  501  0.23573439829E+02 -0.64790162995E+02  0.12024467990E+02  0.69986142319E+02  0.00000000000E+00 0.  1.
         21    1    1    2  504  502 -0.12185869844E+03  0.91115442528E+02  0.11506033266E+03  0.19076280141E+03  0.00000000000E+00 0.  1.
         21    1    1    2  505  506  0.20381301378E+02  0.24650251596E+02 -0.81519946263E+03  0.81582669497E+03  0.00000000000E+00 0.  1.
         21    1    1    2  506  503  0.77903957229E+02 -0.50975531129E+02 -0.36422164113E+03  0.37593208854E+03  0.00000000000E+00 0.  1.
<scales pt_clust_3="67.89578" pt_clust_4="101.85188" pt_clust_5="31.98488" pt_clust_6="14000.00000"></scales>
<clustering>
<clus scale="   31.985">  2  5  1 -1</clus>
<clus scale="   67.896">  1  3  2 -1</clus>
<clus scale="  101.852">  1  4  2 -1</clus>
<clus scale="   67.896">  1  3  2 -1</clus>
</clustering>
</event>
<event>
 6    0  0.1344929E+003  0.1122192E+03  0.7546771E-02  0.1256515E+00
         21   -1    0    0  503  501  0.00000000000E+00  0.00000000000E+00  0.18736411332E+03  0.18736411332E+03  0.00000000000E+00 0. -1.
         21   -1    0    0  505  502 -0.00000000000E+00 -0.00000000000E+00 -0.25190844142E+03  0.25190844142E+03  0.00000000000E+00 0.  1.
         21    1    1    2  503  502 -0.59704933260E+02  0.11837203719E+02 -0.22991154227E+02  0.65064518903E+02  0.00000000000E+00 0.  1.
         21    1    1    2  504  506  0.47251608429E+02  0.50679395940E+02  0.59479718114E+02  0.91317865387E+02  0.00000000000E+00 0. -1.
         21    1    1    2  505  504 -0.26871582545E+02 -0.78273364526E+02 -0.17729081486E+03  0.19565488641E+03  0.00000000000E+00 0.  1.
         21    1    1    2  506  501  0.39324907375E+02  0.15756764867E+02  0.76257922876E+02  0.87235284034E+02  0.00000000000E+00 0. -1.
<scales pt_clust_3="60.86706" pt_clust_4="30.75714" pt_clust_5="105.09944" pt_clust_6="30.75714"></scales>
<clustering>
<clus scale="   30.757">  4  6 -1 -1</clus>
<clus scale="   60.867">  2  3  1 -1</clus>
<clus scale="  105.099">  2  5  1 -1</clus>
<clus scale="  112.219">  1  3  2 -1</clus>
</clustering>
</event>
<event>
 6    0  0.1344929E+003  0.2449563E+03  0.7546771E-02  0.1116534E+00
         21   -1    0    0  503  501  0.00000000000E+00  0.00000000000E+00  0.14521713168E+04  0.14521713168E+04  0.00000000000E+00 0.  1.
         21   -1    0    0  504  502 -0.00000000000E+00 -0.00000000000E+00 -0.23276757558E+03  0.23276757558E+03  0.00000000000E+00 0.  1.
         21    1    1    2  503  505  0.10102181374E+03  0.29085928774E+02  0.79536315226E+03  0.80228046348E+03  0.00000000000E+00 0.  1.
         21    1    1    2  504  506  0.64917314067E+02 -0.22273686836E+03 -0.12780081449E+02  0.23235597835E+03  0.00000000000E+00 0.  1.
         21    1    1    2  505  502  0.36199773036E+02 -0.10331468737E+01 -0.65531535480E+02  0.74872378770E+02  0.00000000000E+00 0.  1.
         21    1    1    2  506  501 -0.20213890085E+03  0.19468408646E+03  0.50235220587E+03  0.57543007177E+03  0.00000000000E+00 0.  1.
<scales pt_clust_3="105.85991" pt_clust_4="244.95631" pt_clust_5="36.21451" pt_clust_6="14000.00000"></scales>
<clustering>
<clus scale="   36.215">  2  5  1 -1</clus>
<clus scale="  105.860">  1  3  2 -1</clus>
<clus scale="  244.956">  2  4  1 -1</clus>
<clus scale="  105.860">  1  3  2 -1</clus>
</clustering>
</event>
<event>
 6    0  0.1344929E+003  0.1186992E+03  0.7546771E-02  0.1245258E+00
         21   -1    0    0  504  501  0.00000000000E+00  0.00000000000E+00  0.93330422819E+03  0.93330422819E+03  0.00000000000E+00 0. -1.
         21   -1    0    0  505  502 -0.00000000000E+00 -0.00000000000E+00 -0.58956411033E+02  0.58956411033E+02  0.00000000000E+00 0. -1.
         21    1    1    2  503  502 -0.19813916025E+02  0.50590245747E+02  0.16058978215E+02  0.56655582376E+02  0.00000000000E+00 0. -1.
         21    1    1    2  504  503 -0.88475974545E+02 -0.77542494828E+02  0.63413031275E+03  0.64495123081E+03  0.00000000000E+00 0. -1.
         21    1    1    2  505  506  0.19908613306E+02 -0.58594262080E+02  0.69851802782E+02  0.93321566556E+02  0.00000000000E+00 0.  1.
         21    1    1    2  506  501  0.88381277265E+02  0.85546511161E+02  0.15430672341E+03  0.19733225948E+03  0.00000000000E+00 0. -1.
<scales pt_clust_3="54.33198" pt_clust_4="14000.00000" pt_clust_5="45.41485" pt_clust_6="118.69923"></scales>
<clustering>
<clus scale="   54.332">  2  3  1 -1</clus>
<clus scale="   45.415">  2  5  1 -1</clus>
<clus scale="  118.699">  2  6  1 -1</clus>
<clus scale="  118.699">  1  3  2 -1</clus>
</clustering>
</event>
<event>
 6    0  0.1344929E+003  0.1317993E+03  0.7546771E-02  0.1224810E+00
         21   -1    0    0  505  501  0.00000000000E+00  0.00000000000E+00  0.27528723574E+03  0.27528723574E+03  0.00000000000E+00 0. -1.
         21   -1    0    0  503  502 -0.00000000000E+00 -0.00000000000E+00 -0.31913906442E+03  0.31913906442E+03  0.00000000000E+00 0. -1.
         21    1    1    2  503  504  0.85566798278E+02 -0.10885107476E+03 -0.15040424624E+03  0.20443011209E+03  0.00000000000E+00 0. -1.
         21    1    1    2  504  501 -0.16401236886E+03 -0.35806565426E+02  0.40550931795E+02  0.17270363440E+03  0.00000000000E+00 0. -1.
         21    1    1    2  505  506  0.35768332494E+02  0.68119222940E+02  0.97473377082E+02  0.12417995564E+03  0.00000000000E+00 0. -1.
         21    1    1    2  506  502  0.42677238090E+02  0.76538417249E+02 -0.31471891326E+02  0.93112598018E+02  0.00000000000E+00 0. -1.
<scales pt_clust_3="14000.00000" pt_clust_4="131.79935" pt_clust_5="76.93895" pt_clust_6="102.04727"></scales>
<clustering>
<clus scale="   76.939">  1  5  2 -1</clus>
<clus scale="  102.047">  2  6  1 -1</clus>
<clus scale="  131.799">  1  4  2 -1</clus>
<clus scale="   76.939">  1  3  2 -1</clus>
</clustering>
</event>
<event>
 6    0  0.1344929E+003  0.6519859E+02  0.7546771E-02  0.1377226E+00
         21   -1    0    0  506  501  0.00000000000E+00  0.00000000000E+00  0.18323033093E+04  0.18323033093E+04  0.00000000000E+00 0.  1.
         21   -1    0    0  505  502 -0.00000000000E+00 -0.00000000000E+00 -0.33611915745E+02  0.33611915745E+02  0.00000000000E+00 0. -1.
         21    1    1    2  503  504 -0.87101803631E+02  0.30319491634E+02  0.80287088153E+02  0.12227842121E+03  0.00000000000E+00 0. -1.
         21    1    1    2  504  501  0.37792010992E+02  0.53776460010E+02  0.29703339776E+03  0.30421864363E+03  0.00000000000E+00 0. -1.
         21    1    1    2  505  503  0.28104166693E+02 -0.16948528024E+02  0.24958215360E+02  0.41231169055E+02  0.00000000000E+00 0. -1.
         21    1    1    2  506  502  0.21205625947E+02 -0.67147423620E+02  0.13964126922E+04  0.13981869911E+04  0.00000000000E+00 0.  1.
<scales pt_clust_3="65.99732" pt_clust_4="65.19859" pt_clust_5="32.81915" pt_clust_6="14000.00000"></scales>
<clustering>
<clus scale="   32.819">  2  5  1 -1</clus>
<clus scale="   65.997">  2  3  1 -1</clus>
<clus scale="   65.199">  2  4  1 -1</clus>
<clus scale="   65.199">  1  3  2 -1</clus>
</clustering>
</event>
<event>
 6    0  0.1344929E+003  0.8987603E+02  0.7546771E-02  0.1303152E+00
         21   -1    0    0  504  501  0.00000000000E+00  0.00000000000E+00  0.13795242316E+03  0.13795242316E+03  0.00000000000E+00 0. -1.
         21   -1    0    0  505  502 -0.00000000000E+00 -0.00000000000E+00 -0.20424512029E+03  0.20424512029E+03  0.00000000000E+00 0. -1.
         21    1    1    2  503  502 -0.58464531782E+02  0.12537125179E+02 -0.99142023691E+02  0.11577746692E+03  0.00000000000E+00 0. -1.
         21    1    1    2  504  503  0.75633666086E+02 -0.90378406974E+02  0.20703074991E+02  0.11965502583E+03  0.00000000000E+00 0. -1.
         21    1    1    2  505  506 -0.42444897891E+02  0.56716980083E+02  0.18501492245E+02  0.73216735805E+02  0.00000000000E+00 0. -1.
         21    1    1    2  506  501  0.25275763587E+02  0.21124301711E+02 -0.63552406755E+01  0.33548314887E+02  0.00000000000E+00 0.  1.
<scales pt_clust_3="58.46266" pt_clust_4="14000.00000" pt_clust_5="89.87603" pt_clust_6="32.94086"></scales>
<clustering>
<clus scale="   32.941">  1  6  2 -1</clus>
<clus scale="   58.463">  2  3  1 -1</clus>
<clus scale="   89.876">  1  5  2 -1</clus>
<clus scale="   32.941">  1  3  2 -1</clus>
</clustering>
</event>
<event>
 6    0  0.1344929E+003  0.1065226E+03  0.7546771E-02  0.1267148E+00
         21   -1    0    0  506  501  0.00000000000E+00  0.00000000000E+00  0.66131277588E+02  0.66131277588E+02  0.00000000000E+00 0.  1.
         21   -1    0    0  504  502 -0.00000000000E+00 -0.00000000000E+00 -0.95810768610E+03  0.95810768610E+03  0.00000000000E+00 0.  1.
         21    1    1    2  503  502 -0.28866137159E+01 -0.35931589774E+02 -0.26434882923E+03  0.26679526832E+03  0.00000000000E+00 0. -1.
         21    1    1    2  504  505  0.88668616699E+02  0.10966849304E+03 -0.59290003562E+03  0.60944216640E+03  0.00000000000E+00 0.  1.
         21    1    1    2  505  501 -0.31051887417E+02 -0.21674302592E+02  0.30167833919E+02  0.48415837371E+02  0.00000000000E+00 0.  1.
         21    1    1    2  506  503 -0.54730115566E+02 -0.52062600676E+02 -0.64895377584E+02  0.99585691597E+02  0.00000000000E+00 0.  1.
<scales pt_clust_3="36.04735" pt_clust_4="106.52256" pt_clust_5="38.17202" pt_clust_6="14000.00000"></scales>
<clustering>
<clus scale="   36.047">  2  3  1 -1</clus>
<clus scale="   38.172">  1  5  2 -1</clus>
<clus scale="  106.523">  2  4  1 -1</clus>
<clus scale="   38.172">  1  3  2 -1</clus>
</clustering>
</event>
<event>
 6    0  0.1344929E+003  0.1273397E+03  0.7546771E-02  0.1231457E+00
         21   -1    0    0  506  501  0.00000000000E+00  0.00000000000E+00  0.43402326289E+03  0.43402326289E+03  0.00000000000E+00 0.  1.
         21   -1    0    0  503  502 -0.00000000000E+00 -0.00000000000E+00 -0.32174128668E+03  0.32174128668E+03  0.00000000000E+00 0. -1.
         21    1    1    2  503  505 -0.10805343693E+03  0.77983322265E+02 -0.24722123266E+03  0.28084743485E+03  0.00000000000E+00 0. -1.
         21    1    1    2  504  501 -0.36729546920E+02 -0.24065600077E+02  0.14269293557E+03  0.14929663956E+03  0.00000000000E+00 0.  1.
         21    1    1    2  505  504  0.79321019019E+02 -0.72171008152E+02  0.97379577302E+01  0.10768150397E+03  0.00000000000E+00 0. -1.
         21    1    1    2  506  502  0.65461964833E+02  0.18253285964E+02  0.20707231557E+03  0.21793897119E+03  0.00000000000E+00 0.  1.
<scales pt_clust_3="127.33968" pt_clust_4="43.91142" pt_clust_5="14000.00000" pt_clust_6="38.36636"></scales>
<clustering>
<clus scale="   43.911">  1  4  2 -1</clus>
<clus scale="   38.366">  1  6  2 -1</clus>
<clus scale="  127.340">  2  3  1 -1</clus>
<clus scale="   43.911">  1  3  2 -1</clus>
</clustering>
</event>
<event>
 6    0  0.1344929E+003  0.6937036E+02  0.7546771E-02  0.1362247E+00
         21   -1    0    0  503  501  0.00000000000E+00  0.00000000000E+00  0.98558953007E+02  0.98558953007E+02  0.00000000000E+00 0. -1.
         21   -1    0    0  506  502 -0.00000000000E+00 -0.00000000000E+00 -0.11251322652E+04  0.11251322652E+04  0.00000000000E+00 0.  1.
         21    1    1    2  503  502  0.67958892668E+02  0.31807437660E+02 -0.94664339620E+03  0.94961247030E+03  0.00000000000E+00 0.  1.
         21    1    1    2  504  505 -0.61577702857E+02  0.32621369918E+02 -0.37493236121E+02  0.79130967511E+02  0.00000000000E+00 0.  1.
         21    1    1    2  505  501  0.30163106965E+02 -0.66275870109E+02  0.54748324372E+02  0.91102596022E+02  0.00000000000E+00 0. -1.
         21    1    1    2  506  504 -0.36544296777E+02  0.18470625310E+01 -0.97185004202E+02  0.10384518433E+03  0.00000000000E+00 0.  1.
<scales pt_clust_3="47.84440" pt_clust_4="69.37036" pt_clust_5="14000.00000" pt_clust_6="36.59095"></scales>
<clustering>
<clus scale="   36.591">  2  6  1 -1</clus>
<clus scale="   47.844">  2  3  1 -1</clus>
<clus scale="   69.370">  2  4  1 -1</clus>
<clus scale="   69.370">  1  3  2 -1</clus>
</clustering>
</event>
<event>
 6    0  0.1344929E+003  0.1189790E+03  0.7546771E-02  0.1244791E+00
         21   -1    0    0  504  501  0.00000000000E+00  0.00000000000E+00  0.22380610989E+03  0.22380610989E+03  0.00000000000E+00 0. -1.
         21   -1    0    0  505  502 -0.00000000000E+00 -0.00000000000E+00 -0.39722527254E+03  0.39722527254E+03  0.00000000000E+00 0. -1.
         21    1    1    2  503  501 -0.12245509585E+03  0.11452489923E+03 -0.14949528859E+02  0.16832911648E+03  0.00000000000E+00 0. -1.
         21    1    1    2  504  506  0.10244937666E+03 -0.38449946517E+02  0.11214631827E+03  0.15668781020E+03  0.00000000000E+00 0. -1.
         21    1    1    2  505  503  0.49631318175E+02 -0.55646195998E+02 -0.12098209649E+03  0.14211416025E+03  0.00000000000E+00 0. -1.
         21    1    1    2  506  502 -0.29625598980E+02 -0.20428756711E+02 -0.14963385559E+03  0.15390029550E+03  0.00000000000E+00 0.  1.
<scales pt_clust_3="14000.00000" pt_clust_4="118.97898" pt_clust_5="74.66039" pt_clust_6="35.98625"></scales>
<clustering>
<clus scale="   35.986">  2  6  1 -1</clus>
<clus scale="   74.660">  2  5  1 -1</clus>
<clus scale="  118.979">  1  4  2 -1</clus>
<clus scale="  118.979">  1  3  2 -1</clus>
</clustering>
</event>
<event>
 6    0  0.1344929E+003  0.2738013E+03  0.7546771E-02  0.1099124E+00
         21   -1    0    0  503  501  0.00000000000E+00  0.00000000000E+00  0.14452927470E+03  0.14452927470E+03  0.00000000000E+00 0. -1.
         21   -1    0    0  505  502 -0.00000000000E+00 -0.00000000000E+00 -0.13236746962E+04  0.13236746962E+04  0.00000000000E+00 0.  1.
         21    1    1    2  503  504 -0.70766274726E+02 -0.89832635380E+02 -0.20439562304E+03  0.23421216607E+03  0.00000000000E+00 0.  1.
         21    1    1    2  504  506 -0.10207591797E+03 -0.20252279876E+02 -0.45580433980E+03  0.46753314754E+03  0.00000000000E+00 0.  1.
         21    1    1    2  505  501  0.20234058026E+03  0.15304877586E+03 -0.90066557945E+01  0.25386366038E+03  0.00000000000E+00 0. -1.
         21    1    1    2  506  502 -0.29498387560E+02 -0.42963860605E+02 -0.50993880285E+03  0.51259499689E+03  0.00000000000E+00 0.  1.
<scales pt_clust_3="120.10580" pt_clust_4="120.10580" pt_clust_5="245.71891" pt_clust_6="52.11572"></scales>
<clustering>
<clus scale="   52.116">  2  6  1 -1</clus>
<clus scale="  120.106">  3  4 -1 -1</clus>
<clus scale="  245.719">  1  5  2 -1</clus>
<clus scale="  245.719">  1  3  2 -1</clus>
</clustering>
</event>
<event>
 6    0  0.1344929E+003  0.1054119E+03  0.7546771E-02  0.1269310E+00
         21   -1    0    0  506  501  0.00000000000E+00  0.00000000000E+00  0.27960928488E+04  0.27960928488E+04  0.00000000000E+00 0. -1.
         21   -1    0    0  504  502 -0.00000000000E+00 -0.00000000000E+00 -0.42038181917E+03  0.42038181917E+03  0.00000000000E+00 0.  1.
         21    1    1    2  503  505  0.43024954474E+02 -0.79243303948E+02  0.16864132482E+03  0.19123426566E+03  0.00000000000E+00 0. -1.
         21    1    1    2  504  503  0.12132109184E+02  0.28393419664E+02 -0.87559752930E+02  0.92844411176E+02  0.00000000000E+00 0.  1.
         21    1    1    2  505  501 -0.10454750766E+03  0.32189849859E+02  0.26101737706E+04  0.26124650200E+04  0.00000000000E+00 0. -1.
         21    1    1    2  506  502  0.49390444005E+02  0.18660034426E+02 -0.31554431293E+03  0.31993097110E+03  0.00000000000E+00 0.  1.
<scales pt_clust_3="14000.00000" pt_clust_4="30.87676" pt_clust_5="105.41194" pt_clust_6="76.44255"></scales>
<clustering>
<clus scale="   30.877">  2  4  1 -1</clus>
<clus scale="   76.443">  2  6  1 -1</clus>
<clus scale="  105.412">  1  5  2 -1</clus>
<clus scale="  105.412">  1  3  2 -1</clus>
</clustering>
</event>
<event>
 6    0  0.1344929E+003  0.1089113E+03  0.7546771E-02  0.1262599E+00
         21   -1    0    0  505  501  0.00000000000E+00  0.00000000000E+00  0.20200250485E+03  0.20200250485E+03  0.00000000000E+00 0. -1.
         21   -1    0    0  504  502 -0.00000000000E+00 -0.00000000000E+00 -0.25288678776E+03  0.25288678776E+03  0.00000000000E+00 0. -1.
         21    1    1    2  503  502  0.48597054857E+02 -0.42658733971E+02 -0.20375096427E+02  0.67798125927E+02  0.00000000000E+00 0.  1.
         21    1    1    2  504  501 -0.97481699652E+01 -0.77959999424E+02 -0.13419143190E+03  0.15549961004E+03  0.00000000000E+00 0. -1.
         21    1    1    2  505  506 -0.78755308449E+02 -0.88884189241E-01  0.51891274599E+02  0.94313895523E+02  0.00000000000E+00 0. -1.
         21    1    1    2  506  503  0.39906423557E+02  0.12070761758E+03  0.51790970819E+02  0.13727766112E+03  0.00000000000E+00 0. -1.
<scales pt_clust_3="64.66407" pt_clust_4="14000.00000" pt_clust_5="73.95085" pt_clust_6="108.91127"></scales>
<clustering>
<clus scale="   64.664">  2  3  1 -1</clus>
<clus scale="   73.951">  1  5  2 -1</clus>
<clus scale="  108.911">  1  6  2 -1</clus>
<clus scale="   73.951">  1  3  2 -1</clus>
</clustering>
</event>
<event>
 6    0  0.1344929E+003  0.1728594E+03  0.7546771E-02  0.1174898E+00
         21   -1    0    0  502  501  0.00000000000E+00  0.00000000000E+00  0.26009023551E+03  0.26009023551E+03  0.00000000000E+00 0.  1.
         21   -1    0    0  503  502 -0.00000000000E+00 -0.00000000000E+00 -0.22904448095E+03  0.22904448095E+03  0.00000000000E+00 0.  1.
         21    1    1    2  503  504  0.27779139275E+02  0.22959571794E+02 -0.41065102488E+02  0.54636664962E+02  0.00000000000E+00 0.  1.
         21    1    1    2  504  505 -0.16661314045E+02  0.13900543716E+03 -0.10758790462E+03  0.17656519523E+03  0.00000000000E+00 0.  1.
         21    1    1    2  505  506 -0.43785583481E+02 -0.13607476363E+03  0.13177246585E+03  0.19441579508E+03  0.00000000000E+00 0.  1.
         21    1    1    2  506  501  0.32667758250E+02 -0.25890245323E+02  0.47926295820E+02  0.63517061197E+02  0.00000000000E+00 0.  1.
<scales pt_clust_3="35.87744" pt_clust_4="35.87744" pt_clust_5="157.73418" pt_clust_6="41.68318"></scales>
<clustering>
<clus scale="   35.877">  3  4 -1 -1</clus>
<clus scale="   41.683">  1  6  2 -1</clus>
<clus scale="  157.734">  1  5  2 -1</clus>
<clus scale="   41.683">  1  3  2 -1</clus>
</clustering>
</event>
<event>
 6    0  0.1344929E+003  0.7852373E+02  0.7546771E-02  0.1333294E+00
         21   -1    0    0  503  501  0.00000000000E+00  0.00000000000E+00  0.56138013280E+02  0.56138013280E+02  0.00000000000E+00 0. -1.
         21   -1    0    0  504  502 -0.00000000000E+00 -0.00000000000E+00 -0.14779908988E+04  0.14779908988E+04  0.00000000000E+00 0. -1.
         21    1    1    2  503  505  0.39235261474E+02 -0.65611803851E+02  0.67171131475E+01  0.76742648876E+02  0.00000000000E+00 0. -1.
         21    1    1    2  504  506 -0.30241635251E+00  0.32889837431E+02 -0.86125924234E+03  0.86188706649E+03  0.00000000000E+00 0. -1.
         21    1    1    2  505  502 -0.75800373292E+02 -0.24846095261E+02 -0.12742708610E+03  0.15033524974E+03  0.00000000000E+00 0. -1.
         21    1    1    2  506  501  0.36867528170E+02  0.57568061681E+02 -0.43988367018E+03  0.44516394693E+03  0.00000000000E+00 0. -1.
<scales pt_clust_3="74.84191" pt_clust_4="32.89123" pt_clust_5="14000.00000" pt_clust_6="78.52373"></scales>
<clustering>
<clus scale="   32.891">  2  4  1 -1</clus>
<clus scale="   74.842">  1  3  2 -1</clus>
<clus scale="   78.524">  2  6  1 -1</clus>
<clus scale="   74.842">  1  3  2 -1</clus>
</clustering>
</event>
<event>
 6    0  0.1344929E+003  0.1224445E+03  0.7546771E-02  0.1239118E+00
         21   -1    0    0  503  501  0.00000000000E+00  0.00000000000E+00  0.39045305609E+03  0.39045305609E+03  0.00000000000E+00 0.  1.
         21   -1    0    0  505  502 -0.00000000000E+00 -0.00000000000E+00 -0.22448040224E+03  0.22448040224E+03  0.00000000000E+00 0.  1.
         21    1    1    2  503  504 -0.26867976445E+02 -0.13415567162E+02  0.24686686036E+02  0.38875417270E+02  0.00000000000E+00 0. -1.
         21    1    1    2  504  502 -0.10100547885E+03 -0.28388387137E+02 -0.66315125082E+02  0.12411971277E+03  0.00000000000E+00 0.  1.
         21    1    1    2  505  506 -0.22010628138E+02  0.20586944627E+02 -0.10251213497E+03  0.10685049301E+03  0.00000000000E+00 0.  1.
         21    1    1    2  506  501  0.14988408344E+03  0.21217009672E+02  0.31011322786E+03  0.34508783528E+03  0.00000000000E+00 0.  1.
<scales pt_clust_3="30.03108" pt_clust_4="122.44446" pt_clust_5="30.20158" pt_clust_6="14000.00000"></scales>
<clustering>
<clus scale="   30.031">  1  3  2 -1</clus>
<clus scale="   30.202">  2  5  1 -1</clus>
<clus scale="  122.444">  2  4  1 -1</clus>
<clus scale="   30.031">  1  3  2 -1</clus>
</clustering>
</event>
<event>
 6    0  0.1344929E+003  0.6527251E+02  0.7546771E-02  0.1376949E+00
         21   -1    0    0  504  501  0.00000000000E+00  0.00000000000E+00  0.87542690948E+03  0.87542690948E+03  0.00000000000E+00 0. -1.
         21   -1    0    0  503  502 -0.00000000000E+00 -0.00000000000E+00 -0.25512562674E+03  0.25512562674E+03  0.00000000000E+00 0. -1.
         21    1    1    2  503  506  0.18622447593E+02 -0.25988528231E+02 -0.22798914373E+03  0.23022000089E+03  0.00000000000E+00 0. -1.
         21    1    1    2  504  505  0.46406279900E+01  0.42409649417E+02  0.15938381859E+03  0.16499489513E+03  0.00000000000E+00 0. -1.
         21    1    1    2  505  502 -0.59515602887E+02  0.64424666497E+02  0.75983550178E+02  0.11604371822E+03  0.00000000000E+00 0. -1.
         21    1    1    2  506  501  0.36252527303E+02 -0.80845787683E+02  0.61292305770E+03  0.61929392197E+03  0.00000000000E+00 0. -1.
<scales pt_clust_3="31.97185" pt_clust_4="40.16174" pt_clust_5="65.27251" pt_clust_6="14000.00000"></scales>
<clustering>
<clus scale="   31.972">  2  3  1 -1</clus>
<clus scale="   40.162">  1  4  2 -1</clus>
<clus scale="   65.273">  2  5  1 -1</clus>
<clus scale="   40.162">  1  3  2 -1</clus>
</clustering>
</event>
<event>
 6    0  0.1344929E+003  0.1032890E+03  0.7546771E-02  0.1273528E+00
         21   -1    0    0  503  501  0.00000000000E+00  0.00000000000E+00  0.34382094081E+03  0.34382094081E+03  0.00000000000E+00 0. -1.
         21   -1    0    0  506  502 -0.00000000000E+00 -0.00000000000E+00 -0.14206069623E+03  0.14206069623E+03  0.00000000000E+00 0. -1.
         21    1    1    2  503  504  0.10611882531E+02 -0.31338828844E+02  0.87341434440E+02  0.93398396208E+02  0.00000000000E+00 0.  1.
         21    1    1    2  504  505  0.36753582539E+02 -0.12794790224E+03  0.48357486466E+02  0.14163311058E+03  0.00000000000E+00 0. -1.
         21    1    1    2  505  502  0.27985907632E+01  0.95589391586E+02 -0.51056150030E+02  0.10840615458E+03  0.00000000000E+00 0. -1.
         21    1    1    2  506  501 -0.50164055833E+02  0.63697339496E+02  0.11711747370E+03  0.14244397566E+03  0.00000000000E+00 0. -1.
<scales pt_clust_3="33.08677" pt_clust_4="103.28900" pt_clust_5="14000.00000" pt_clust_6="65.35539"></scales>
<clustering>
<clus scale="   33.087">  1  3  2 -1</clus>
<clus scale="   65.355">  1  6  2 -1</clus>
<clus scale="  103.289">  1  4  2 -1</clus>
<clus scale="   33.087">  1  3  2 -1</clus>
</clustering>
</event>
<event>
 6    0  0.2431511E+003  0.1055967E+03  0.7546771E-02  0.1268948E+00
         21   -1    0    0  504  501  0.00000000000E+00  0.00000000000E+00  0.35693855795E+03  0.35693855795E+03  0.00000000000E+00 0. -1.
         21   -1    0    0  503  502 -0.00000000000E+00 -0.00000000000E+00 -0.37570487117E+03  0.37570487117E+03  0.00000000000E+00 0. -1.
         21    1    1    2  503  505 -0.90204028070E+02 -0.10322685565E+02 -0.27063715516E+03  0.28546067027E+03  0.00000000000E+00 0. -1.
         21    1    1    2  504  502 -0.12102384440E+02  0.49851007202E+02  0.30899702582E+03  0.31322635999E+03  0.00000000000E+00 0. -1.
         21    1    1    2  505  506  0.83796825003E+02 -0.82129138895E+01 -0.45846621016E+02  0.95871124400E+02  0.00000000000E+00 0. -1.
         21    1    1    2  506  501  0.18509587508E+02 -0.31315407747E+02 -0.11279562863E+02  0.38085274457E+02  0.00000000000E+00 0. -1.
<scales pt_clust_3="92.18910" pt_clust_4="51.29903" pt_clust_5="33.84792" pt_clust_6="33.84792"></scales>
<clustering>
<clus scale="   33.848">  5  6 -1 -1</clus>
<clus scale="   51.299">  1  4  2 -1</clus>
<clus scale="   92.189">  2  3  1 -1</clus>
<clus scale="   51.299">  1  3  2 -1</clus>
</clustering>
</event>
<event>
 6    0  0.1344929E+003  0.1010601E+03  0.7546771E-02  0.1278082E+00
         21   -1    0    0  505  501  0.00000000000E+00  0.00000000000E+00  0.57288313507E+03  0.57288313507E+03  0.00000000000E+00 0.  1.
         21   -1    0    0  503  502 -0.00000000000E+00 -0.00000000000E+00 -0.15982372943E+03  0.15982372943E+03  0.00000000000E+00 0.  1.
         21    1    1    2  503  501 -0.23487299480E+02  0.36477455805E+02  0.38630555986E+02  0.58091117003E+02  0.00000000000E+00 0.  1.
         21    1    1    2  504  502  0.39179738444E+02  0.33398961748E+02 -0.93898282790E+02  0.10708608715E+03  0.00000000000E+00 0.  1.
         21    1    1    2  505  506 -0.58663460921E+02 -0.11596105927E+03  0.48519772682E+03  0.50229991342E+03  0.00000000000E+00 0.  1.
         21    1    1    2  506  504  0.42971021957E+02  0.46084641717E+02 -0.16870594376E+02  0.65229746932E+02  0.00000000000E+00 0.  1.
<scales pt_clust_3="43.38500" pt_clust_4="51.55904" pt_clust_5="101.06008" pt_clust_6="14000.00000"></scales>
<clustering>
<clus scale="   43.385">  1  3  2 -1</clus>
<clus scale="   51.559">  2  4  1 -1</clus>
<clus scale="  101.060">  1  5  2 -1</clus>
<clus scale="   43.385">  1  3  2 -1</clus>
</clustering>
</event>
<event>
 6    0  0.1344929E+003  0.8508957E+02  0.7546771E-02  0.1315198E+00
         21   -1    0    0  504  501  0.00000000000E+00  0.00000000000E+00  0.25649903891E+03  0.25649903891E+03  0.00000000000E+00 0.  1.
         21   -1    0    0  503  502 -0.00000000000E+00 -0.00000000000E+00 -0.92475612098E+03  0.92475612098E+03  0.00000000000E+00 0. -1.
         21    1    1    2  503  506  0.16372595330E+02 -0.12238357098E+03 -0.41860217191E+02  0.13037667777E+03  0.00000000000E+00 0. -1.
         21    1    1    2  504  505 -0.16479612363E+02  0.82462949039E+02 -0.22361232011E+03  0.23890204121E+03  0.00000000000E+00 0. -1.
         21    1    1    2  505  502 -0.22976506590E+02 -0.39059119500E+02 -0.59821553517E+03  0.59992946351E+03  0.00000000000E+00 0. -1.
         21    1    1    2  506  501  0.23083523622E+02  0.78979741437E+02  0.19543099039E+03  0.21204697741E+03  0.00000000000E+00 0.  1.
<scales pt_clust_3="85.08957" pt_clust_4="63.80181" pt_clust_5="45.31594" pt_clust_6="14000.00000"></scales>
<clustering>
<clus scale="   45.316">  2  5  1 -1</clus>
<clus scale="   63.802">  2  4  1 -1</clus>
<clus scale="   85.090">  2  3  1 -1</clus>
<clus scale="   85.090">  1  3  2 -1</clus>
</clustering>
</event>
<event>
 6    0  0.1344929E+003  0.1450743E+03  0.7546771E-02  0.1206660E+00
         21   -1    0    0  505  501  0.00000000000E+00  0.00000000000E+00  0.21438270674E+03  0.21438270674E+03  0.00000000000E+00 0.  1.
         21   -1    0    0  506  502 -0.00000000000E+00 -0.00000000000E+00 -0.38430049947E+03  0.38430049947E+03  0.00000000000E+00 0.  1.
         21    1    1    2  503  501 -0.85814205088E+02 -0.38657034909E+02  0.12787438908E+03  0.15877752840E+03  0.00000000000E+00 0.  1.
         21    1    1    2  504  502  0.53470222555E+02  0.16247520954E+02 -0.65192475895E+02  0.85866789567E+02  0.00000000000E+00 0. -1.
         21    1    1    2  505  504  0.80024625651E+02 -0.64029527755E+00 -0.27486704702E+03  0.28628001017E+03  0.00000000000E+00 0.  1.
         21    1    1    2  506  503 -0.47680643118E+02  0.23049809233E+02  0.42267341101E+02  0.67758878072E+02  0.00000000000E+00 0.  1.
<scales pt_clust_3="49.22373" pt_clust_4="55.88423" pt_clust_5="129.38504" pt_clust_6="49.22373"></scales>
<clustering>
<clus scale="   49.224">  3  6 -1 -1</clus>
<clus scale="   55.884">  2  4  1 -1</clus>
<clus scale="  129.385">  2  5  1 -1</clus>
<clus scale="  145.074">  1  3  2 -1</clus>
</clustering>
</event>
<event>
 6    0  0.1344929E+003  0.2621494E+03  0.7546771E-02  0.1105859E+00
         21   -1    0    0  503  501  0.00000000000E+00  0.00000000000E+00  0.96164830981E+03  0.96164830981E+03  0.00000000000E+00 0.  1.
         21   -1    0    0  504  502 -0.00000000000E+00 -0.00000000000E+00 -0.36999095983E+03  0.36999095983E+03  0.00000000000E+00 0.  1.
         21    1    1    2  503  505 -0.25048104171E+03  0.82754938752E+02  0.68515503818E+03  0.73418428101E+03  0.00000000000E+00 0.  1.
         21    1    1    2  504  501  0.26298632147E+03 -0.14853167419E+02  0.11458983465E+03  0.28725120029E+03  0.00000000000E+00 0.  1.
         21    1    1    2  505  506 -0.78930393381E+02 -0.65617223242E+02 -0.12221697605E+02  0.10336825856E+03  0.00000000000E+00 0.  1.
         21    1    1    2  506  502  0.66425113613E+02 -0.22845480910E+01 -0.19586582525E+03  0.20683552978E+03  0.00000000000E+00 0.  1.
<scales pt_clust_3="262.14939" pt_clust_4="14000.00000" pt_clust_5="86.96880" pt_clust_6="66.46439"></scales>
<clustering>
<clus scale="   66.464">  2  6  1 -1</clus>
<clus scale="   86.969">  2  5  1 -1</clus>
<clus scale="  262.149">  1  3  2 -1</clus>
<clus scale="  262.149">  1  3  2 -1</clus>
</clustering>
</event>
<event>
 6    0  0.1344929E+003  0.1034413E+03  0.7546771E-02  0.1273221E+00
         21   -1    0    0  504  501  0.00000000000E+00  0.00000000000E+00  0.58688041008E+02  0.58688041008E+02  0.00000000000E+00 0. -1.
         21   -1    0    0  503  502 -0.00000000000E+00 -0.00000000000E+00 -0.20781592925E+04  0.20781592925E+04  0.00000000000E+00 0.  1.
         21    1    1    2  503  505 -0.35212428993E+01  0.45587127750E+02 -0.96902849916E+03  0.97010660113E+03  0.00000000000E+00 0.  1.
         21    1    1    2  504  502 -0.68324425424E+02 -0.60550660174E+02 -0.14410651008E+03  0.17059101912E+03  0.00000000000E+00 0. -1.
         21    1    1    2  505  506  0.11485974327E+03 -0.27117444695E+02 -0.92550206057E+03  0.93299634541E+03  0.00000000000E+00 0.  1.
         21    1    1    2  506  501 -0.43014074944E+02  0.42080977119E+02  0.19165818320E+02  0.63153367847E+02  0.00000000000E+00 0. -1.
<scales pt_clust_3="45.72292" pt_clust_4="103.44126" pt_clust_5="14000.00000" pt_clust_6="60.86025"></scales>
<clustering>
<clus scale="   45.723">  2  3  1 -1</clus>
<clus scale="   60.860">  1  6  2 -1</clus>
<clus scale="  103.441">  1  4  2 -1</clus>
<clus scale="   60.860">  1  3  2 -1</clus>
</clustering>
</event>
<event>
 6    0  0.1344929E+003  0.1126018E+03  0.7546771E-02  0.1255826E+00
         21   -1    0    0  504  501  0.00000000000E+00  0.00000000000E+00  0.12673619224E+03  0.12673619224E+03  0.00000000000E+00 0.  1.
         21   -1    0    0  506  502 -0.00000000000E+00 -0.00000000000E+00 -0.47179169288E+03  0.47179169288E+03  0.00000000000E+00 0.  1.
         21    1    1    2  503  502 -0.35703890871E+02 -0.40838321683E+02 -0.95817892169E+01  0.55084907423E+02  0.00000000000E+00 0.  1.
         21    1    1    2  504  503 -0.33633381237E+02  0.25556720754E+01 -0.22220527581E+01  0.33803451180E+02  0.00000000000E+00 0.  1.
         21    1    1    2  505  501  0.81902737814E+02  0.12142608229E+03  0.18815581378E+02  0.14766982774E+03  0.00000000000E+00 0.  1.
         21    1    1    2  506  505 -0.12565465705E+02 -0.83143432686E+02 -0.35206724004E+03  0.36196969878E+03  0.00000000000E+00 0.  1.
<scales pt_clust_3="30.42409" pt_clust_4="30.42409" pt_clust_5="105.78554" pt_clust_6="84.08758"></scales>
<clustering>
<clus scale="   30.424">  3  4 -1 -1</clus>
<clus scale="   84.088">  2  6  1 -1</clus>
<clus scale="  105.786">  2  5  1 -1</clus>
<clus scale="  112.602">  1  3  2 -1</clus>
</clustering>
</event>
<event>
 6    0  0.1344929E+003  0.1390811E+03  0.7546771E-02  0.1214571E+00
         21   -1    0    0  504  501  0.00000000000E+00  0.00000000000E+00  0.39611965402E+03  0.39611965402E+03  0.00000000000E+00 0.  1.
         21   -1    0    0  503  502 -0.00000000000E+00 -0.00000000000E+00 -0.18897665081E+03  0.18897665081E+03  0.00000000000E+00 0. -1.
         21    1    1    2  503  506  0.25750723205E+02 -0.25828939139E+02 -0.68609769594E+02  0.77701572226E+02  0.00000000000E+00 0. -1.
         21    1    1    2  504  505  0.22040037598E+01 -0.62662214339E+02 -0.15627502196E+02  0.64619111440E+02  0.00000000000E+00 0. -1.
         21    1    1    2  505  502 -0.28703590537E+02 -0.43564707271E+02 -0.52741320743E+02  0.74185084370E+02  0.00000000000E+00 0. -1.
         21    1    1    2  506  501  0.74886357249E+00  0.13205586075E+03  0.34412159575E+03  0.36859053679E+03  0.00000000000E+00 0.  1.
<scales pt_clust_3="36.47237" pt_clust_4="46.26864" pt_clust_5="46.26864" pt_clust_6="129.37400"></scales>
<clustering>
<clus scale="   36.472">  2  3  1 -1</clus>
<clus scale="   46.269">  4  5 -1 -1</clus>
<clus scale="  129.374">  1  6  2 -1</clus>
<clus scale="  129.374">  1  3  2 -1</clus>
</clustering>
</event>
<event>
 6    0  0.1344929E+003  0.1733871E+03  0.7546771E-02  0.1174361E+00
         21   -1    0    0  504  501  0.00000000000E+00  0.00000000000E+00  0.73493971523E+03  0.73493971523E+03  0.00000000000E+00 0.  1.
         21   -1    0    0  503  502 -0.00000000000E+00 -0.00000000000E+00 -0.24694008238E+03  0.24694008238E+03  0.00000000000E+00 0. -1.
         21    1    1    2  503  506 -0.28694919304E+02 -0.12923028327E+03  0.42798696032E+02  0.13912437921E+03  0.00000000000E+00 0. -1.
         21    1    1    2  504  505  0.20926131620E+02 -0.34506032972E+02  0.13862006517E+03  0.14437483079E+03  0.00000000000E+00 0.  1.
         21    1    1    2  505  502  0.17230016654E+01  0.19692606408E+03 -0.14561906654E+03  0.24492398002E+03  0.00000000000E+00 0. -1.
         21    1    1    2  506  501  0.60457860188E+01 -0.33189747838E+02  0.45219993818E+03  0.45345660760E+03  0.00000000000E+00 0.  1.
<scales pt_clust_3="14000.00000" pt_clust_4="56.48563" pt_clust_5="173.38705" pt_clust_6="33.73590"></scales>
<clustering>
<clus scale="   33.736">  1  6  2 -1</clus>
<clus scale="   56.486">  1  4  2 -1</clus>
<clus scale="  173.387">  2  5  1 -1</clus>
<clus scale="   33.736">  1  3  2 -1</clus>
</clustering>
</event>
<event>
 6    0  0.1344929E+003  0.1017140E+03  0.7546771E-02  0.1276732E+00
         21   -1    0    0  504  501  0.00000000000E+00  0.00000000000E+00  0.10988389891E+03  0.10988389891E+03  0.00000000000E+00 0.  1.
         21   -1    0    0  505  502 -0.00000000000E+00 -0.00000000000E+00 -0.32156198255E+03  0.32156198255E+03  0.00000000000E+00 0. -1.
         21    1    1    2  503  502 -0.73087410703E+02 -0.40880674976E+02 -0.55578203011E+02  0.10050838691E+03  0.00000000000E+00 0.  1.
         21    1    1    2  504  503  0.50221299303E+02  0.12015280643E+03 -0.84567385778E+01  0.13050054492E+03  0.00000000000E+00 0. -1.
         21    1    1    2  505  506 -0.95099749750E+01 -0.47242267814E+02 -0.14720514106E+03  0.15489230144E+03  0.00000000000E+00 0.  1.
         21    1    1    2  506  501  0.32376086376E+02 -0.32029863638E+02 -0.43800099130E+00  0.45544648188E+02  0.00000000000E+00 0. -1.
<scales pt_clust_3="101.71396" pt_clust_4="14000.00000" pt_clust_5="49.31918" pt_clust_6="45.54254"></scales>
<clustering>
<clus scale="   45.543">  1  6  2 -1</clus>
<clus scale="   49.319">  2  5  1 -1</clus>
<clus scale="  101.714">  2  3  1 -1</clus>
<clus scale="   45.543">  1  3  2 -1</clus>
</clustering>
</event>
<event>
 6    0  0.1344929E+003  0.1158440E+03  0.7546771E-02  0.1250115E+00
         21   -1    0    0  503  501  0.00000000000E+00  0.00000000000E+00  0.19330764775E+03  0.19330764775E+03  0.00000000000E+00 0.  1.
         21   -1    0    0  505  502 -0.00000000000E+00 -0.00000000000E+00 -0.39182527569E+03  0.39182527569E+03  0.00000000000E+00 0.  1.
         21    1    1    2  503  504 -0.45493148134E+02 -0.48692820809E+02  0.87218291925E+02  0.10976177737E+03  0.00000000000E+00 0.  1.
         21    1    1    2  504  502 -0.29189382523E+02 -0.10391900726E+03 -0.91097771517E+01  0.10832436550E+03  0.00000000000E+00 0.  1.
         21    1    1    2  505  506 -0.29414951957E+02  0.71926014244E+02 -0.20024660291E+03  0.21479593316E+03  0.00000000000E+00 0.  1.
         21    1    1    2  506  501  0.10409748261E+03  0.80685813821E+02 -0.76379539798E+02  0.15225084741E+03  0.00000000000E+00 0.  1.
<scales pt_clust_3="66.63796" pt_clust_4="14000.00000" pt_clust_5="75.71432" pt_clust_6="115.84401"></scales>
<clustering>
<clus scale="   66.638">  1  3  2 -1</clus>
<clus scale="   75.714">  2  5  1 -1</clus>
<clus scale="  115.844">  1  6  2 -1</clus>
<clus scale="   66.638">  1  3  2 -1</clus>
</clustering>
</event>
<event>
 6    0  0.1344929E+003  0.1353960E+03  0.7546771E-02  0.1219662E+00
         21   -1    0    0  505  501  0.00000000000E+00  0.00000000000E+00  0.46951461177E+02  0.46951461177E+02  0.00000000000E+00 0. -1.
         21   -1    0    0  506  502 -0.00000000000E+00 -0.00000000000E+00 -0.96988964127E+03  0.96988964127E+03  0.00000000000E+00 0. -1.
         21    1    1    2  503  504  0.33009075330E+02 -0.23799691223E+02 -0.61797542318E+02  0.73992976646E+02  0.00000000000E+00 0. -1.
         21    1    1    2  504  502  0.12925504868E+03  0.59835169491E+00 -0.55929651200E+03  0.57403816421E+03  0.00000000000E+00 0. -1.
         21    1    1    2  505  503 -0.12114635605E+02  0.31598367225E+02 -0.26459182619E+01  0.33944397043E+02  0.00000000000E+00 0. -1.
         21    1    1    2  506  501 -0.15014948840E+03 -0.83970276974E+01 -0.29919820751E+03  0.33486556455E+03  0.00000000000E+00 0. -1.
<scales pt_clust_3="35.36509" pt_clust_4="14000.00000" pt_clust_5="33.84112" pt_clust_6="135.39605"></scales>
<clustering>
<clus scale="   33.841">  1  5  2 -1</clus>
<clus scale="   35.365">  1  3  2 -1</clus>
<clus scale="  135.396">  1  6  2 -1</clus>
<clus scale="   33.841">  1  3  2 -1</clus>
</clustering>
</event>
<event>
 6    0  0.1344929E+003  0.9120896E+02  0.7546771E-02  0.1299950E+00
         21   -1    0    0  505  501  0.00000000000E+00  0.00000000000E+00  0.62619634519E+03  0.62619634519E+03  0.00000000000E+00 0.  1.
         21   -1    0    0  503  502 -0.00000000000E+00 -0.00000000000E+00 -0.41752233184E+03  0.41752233184E+03  0.00000000000E+00 0.  1.
         21    1    1    2  503  506  0.21510189298E+02  0.25882066324E+02 -0.39284466814E+03  0.39428353109E+03  0.00000000000E+00 0.  1.
         21    1    1    2  504  501  0.30666326831E+02 -0.28306443732E+01  0.21009112111E+03  0.21233632595E+03  0.00000000000E+00 0.  1.
         21    1    1    2  505  502 -0.11593504373E+03 -0.43873496241E+02  0.29134999981E+03  0.31662381532E+03  0.00000000000E+00 0.  1.
         21    1    1    2  506  504  0.63758527601E+02  0.20822074290E+02  0.10007756058E+03  0.12047500467E+03  0.00000000000E+00 0.  1.
<scales pt_clust_3="33.68391" pt_clust_4="30.79669" pt_clust_5="91.20896" pt_clust_6="14000.00000"></scales>
<clustering>
<clus scale="   30.797">  1  4  2 -1</clus>
<clus scale="   33.684">  2  3  1 -1</clus>
<clus scale="   91.209">  1  5  2 -1</clus>
<clus scale="   30.797">  1  3  2 -1</clus>
</clustering>
</event>
<event>
 6    0  0.1344929E+003  0.9709975E+02  0.7546771E-02  0.1286516E+00
         21   -1    0    0  505  501  0.00000000000E+00  0.00000000000E+00  0.87678158482E+02  0.87678158482E+02  0.00000000000E+00 0. -1.
         21   -1    0    0  506  502 -0.00000000000E+00 -0.00000000000E+00 -0.11217376967E+04  0.11217376967E+04  0.00000000000E+00 0.  1.
         21    1    1    2  503  502  0.68123250163E+02  0.84692078631E+02 -0.73012114680E+03  0.73816692854E+03  0.00000000000E+00 0.  1.
         21    1    1    2  504  501  0.46957917398E+02  0.35090795829E+02 -0.55865723579E+02  0.80977706990E+02  0.00000000000E+00 0.  1.
         21    1    1    2  505  503 -0.68914936220E+02 -0.12485090654E+03 -0.48883199772E+01  0.14269167100E+03  0.00000000000E+00 0. -1.
         21    1    1    2  506  504 -0.46166231340E+02  0.50680320849E+01 -0.24318434790E+03  0.24757954869E+03  0.00000000000E+00 0.  1.
<scales pt_clust_3="97.09975" pt_clust_4="56.02512" pt_clust_5="14000.00000" pt_clust_6="46.44358"></scales>
<clustering>
<clus scale="   46.444">  2  6  1 -1</clus>
<clus scale="   56.025">  1  4  2 -1</clus>
<clus scale="   97.100">  2  3  1 -1</clus>
<clus scale="   56.025">  1  3  2 -1</clus>
</clustering>
</event>
<event>
 6    0  0.1344929E+003  0.1224890E+03  0.7546771E-02  0.1239046E+00
         21   -1    0    0  506  501  0.00000000000E+00  0.00000000000E+00  0.54872833404E+03  0.54872833404E+03  0.00000000000E+00 0.  1.
         21   -1    0    0  503  502 -0.00000000000E+00 -0.00000000000E+00 -0.13065886091E+03  0.13065886091E+03  0.00000000000E+00 0.  1.
         21    1    1    2  503  504 -0.33750702946E+02 -0.82609267990E+02  0.46683093209E+02  0.10071103365E+03  0.00000000000E+00 0.  1.
         21    1    1    2  504  501 -0.51447921327E+02  0.25671729021E+02  0.13593201984E+03  0.14759214172E+03  0.00000000000E+00 0.  1.
         21    1    1    2  505  502  0.90836828492E+02  0.12154099935E+03 -0.32683964185E+02  0.15521528742E+03  0.00000000000E+00 0.  1.
         21    1    1    2  506  505 -0.56382042185E+01 -0.64603460383E+02  0.26813832427E+03  0.27586873216E+03  0.00000000000E+00 0.  1.
<scales pt_clust_3="122.48905" pt_clust_4="57.49718" pt_clust_5="14000.00000" pt_clust_6="62.07259"></scales>
<clustering>
<clus scale="   57.497">  1  4  2 -1</clus>
<clus scale="   62.073">  1  6  2 -1</clus>
<clus scale="  122.489">  1  3  2 -1</clus>
<clus scale="   57.497">  1  3  2 -1</clus>
</clustering>
</event>
<event>
 6    0  0.1344929E+003  0.1078723E+03  0.7546771E-02  0.1264562E+00
         21   -1    0    0  505  501  0.00000000000E+00  0.00000000000E+00  0.24939517140E+03  0.24939517140E+03  0.00000000000E+00 0.  1.
         21   -1    0    0  506  502 -0.00000000000E+00 -0.00000000000E+00 -0.40564898213E+03  0.40564898213E+03  0.00000000000E+00 0. -1.
         21    1    1    2  503  501  0.31722320870E+02 -0.32388618450E+00  0.10772406927E+03  0.11229819964E+03  0.00000000000E+00 0.  1.
         21    1    1    2  504  502 -0.24741464386E+02 -0.45269004064E+02 -0.21182518508E+03  0.21801681546E+03  0.00000000000E+00 0. -1.
         21    1    1    2  505  504 -0.65297457197E+02  0.11066930559E+03 -0.14734933925E+03  0.19550775149E+03  0.00000000000E+00 0. -1.
         21    1    1    2  506  503  0.58316600714E+02 -0.65076415340E+02  0.95196644319E+02  0.12922138694E+03  0.00000000000E+00 0.  1.
<scales pt_clust_3="31.72397" pt_clust_4="51.26116" pt_clust_5="107.87227" pt_clust_6="14000.00000"></scales>
<clustering>
<clus scale="   31.724">  1  3  2 -1</clus>
<clus scale="   51.261">  2  4  1 -1</clus>
<clus scale="  107.872">  2  5  1 -1</clus>
<clus scale="   31.724">  1  3  2 -1</clus>
</clustering>
</event>
<event>
 6    0  0.1344929E+003  0.2038251E+03  0.7546771E-02  0.1146551E+00
         21   -1    0    0  505  501  0.00000000000E+00  0.00000000000E+00  0.23000568455E+03  0.23000568455E+03  0.00000000000E+00 0.  1.
         21   -1    0    0  506  502 -0.00000000000E+00 -0.00000000000E+00 -0.49209652193E+03  0.49209652193E+03  0.00000000000E+00 0.  1.
         21    1    1    2  503  501  0.16907388740E+02  0.28503837604E+02  0.56263439319E+02  0.65298569327E+02  0.00000000000E+00 0.  1.
         21    1    1    2  504  503 -0.29501431480E+02  0.25811741403E+02  0.72461560314E+02  0.82384817635E+02  0.00000000000E+00 0.  1.
         21    1    1    2  505  502  0.20960091720E+03 -0.60466191290E+02 -0.15790253273E+03  0.26929893171E+03  0.00000000000E+00 0.  1.
         21    1    1    2  506  504 -0.19700687446E+03  0.61506122835E+01 -0.23291330430E+03  0.30511988780E+03  0.00000000000E+00 0.  1.
<scales pt_clust_3="33.14104" pt_clust_4="44.53419" pt_clust_5="14000.00000" pt_clust_6="203.82505"></scales>
<clustering>
<clus scale="   33.141">  1  3  2 -1</clus>
<clus scale="   44.534">  1  4  2 -1</clus>
<clus scale="  203.825">  2  6  1 -1</clus>
<clus scale="   33.141">  1  3  2 -1</clus>
</clustering>
</event>
<event>
 6    0  0.1344929E+003  0.7929813E+02  0.7546771E-02  0.1331055E+00
         21   -1    0    0  506  501  0.00000000000E+00  0.00000000000E+00  0.16227731359E+04  0.16227731359E+04  0.00000000000E+00 0. -1.
         21   -1    0    0  504  502 -0.00000000000E+00 -0.00000000000E+00 -0.17870828010E+03  0.17870828010E+03  0.00000000000E+00 0. -1.
         21    1    1    2  503  505 -0.12973960640E+03  0.50574641946E+02  0.19339901119E+03  0.23831352753E+03  0.00000000000E+00 0. -1.
         21    1    1    2  504  503  0.66346325893E+02 -0.31093416087E+02 -0.65395926511E+02  0.98210298277E+02  0.00000000000E+00 0. -1.
         21    1    1    2  505  501  0.54325921153E+02 -0.48340408041E+02  0.13864441074E+04  0.13883498708E+04  0.00000000000E+00 0. -1.
         21    1    1    2  506  502  0.90673593569E+01  0.28859182182E+02 -0.70382336309E+02  0.76607719365E+02  0.00000000000E+00 0. -1.
<scales pt_clust_3="79.29813" pt_clust_4="14000.00000" pt_clust_5="72.60736" pt_clust_6="30.25011"></scales>
<clustering>
<clus scale="   30.250">  2  6  1 -1</clus>
<clus scale="   72.607">  1  5  2 -1</clus>
<clus scale="   79.298">  1  3  2 -1</clus>
<clus scale="   72.607">  1  3  2 -1</clus>
</clustering>
</event>
<event>
 6    0  0.1344929E+003  0.6899553E+02  0.7546771E-02  0.1363542E+00
         21   -1    0    0  504  501  0.00000000000E+00  0.00000000000E+00  0.28961310628E+03  0.28961310628E+03  0.00000000000E+00 0. -1.
         21   -1    0    0  503  502 -0.00000000000E+00 -0.00000000000E+00 -0.21365763888E+03  0.21365763888E+03  0.00000000000E+00 0. -1.
         21    1    1    2  503  501 -0.80205557807E+02 -0.82710001151E+02 -0.27358966600E+02  0.11841616801E+03  0.00000000000E+00 0. -1.
         21    1    1    2  504  506  0.17543026036E+02  0.64402544178E+02  0.22165425880E+03  0.23148662144E+03  0.00000000000E+00 0. -1.
         21    1    1    2  505  502  0.18504247526E+02  0.25197821605E+02 -0.10049351991E+03  0.10524393063E+03  0.00000000000E+00 0. -1.
         21    1    1    2  506  505  0.44158284246E+02 -0.68903646325E+01 -0.17846304889E+02  0.48124025086E+02  0.00000000000E+00 0. -1.
<scales pt_clust_3="68.99553" pt_clust_4="14000.00000" pt_clust_5="31.26240" pt_clust_6="49.67132"></scales>
<clustering>
<clus scale="   31.262">  2  5  1 -1</clus>
<clus scale="   49.671">  2  6  1 -1</clus>
<clus scale="   68.996">  2  3  1 -1</clus>
<clus scale="   68.996">  1  3  2 -1</clus>
</clustering>
</event>
<event>
 6    0  0.1344929E+003  0.1406874E+03  0.7546771E-02  0.1212407E+00
         21   -1    0    0  506  501  0.00000000000E+00  0.00000000000E+00  0.14885668901E+04  0.14885668901E+04  0.00000000000E+00 0. -1.
         21   -1    0    0  504  502 -0.00000000000E+00 -0.00000000000E+00 -0.15741994302E+03  0.15741994302E+03  0.00000000000E+00 0. -1.
         21    1    1    2  503  501  0.36553138529E+02  0.70697417299E+01  0.86985137422E+03  0.87064776254E+03  0.00000000000E+00 0. -1.
         21    1    1    2  504  503 -0.27354995879E+02 -0.99103733091E+02  0.48577148122E+03  0.49653174891E+03  0.00000000000E+00 0. -1.
         21    1    1    2  505  502 -0.14952867433E+02  0.14316803110E+03 -0.10851439358E+03  0.18026659975E+03  0.00000000000E+00 0. -1.
         21    1    1    2  506  505  0.57547247827E+01 -0.51134039735E+02  0.84038485257E+02  0.98540721944E+02  0.00000000000E+00 0. -1.
<scales pt_clust_3="37.23054" pt_clust_4="14000.00000" pt_clust_5="140.68743" pt_clust_6="51.31656"></scales>
<clustering>
<clus scale="   37.231">  1  3  2 -1</clus>
<clus scale="   51.317">  1  6  2 -1</clus>
<clus scale="  140.687">  2  5  1 -1</clus>
<clus scale="   37.231">  1  3  2 -1</clus>
</clustering>
</event>
<event>
 6    0  0.1344929E+003  0.7467750E+02  0.7546771E-02  0.1344873E+00
         21   -1    0    0  506  501  0.00000000000E+00  0.00000000000E+00  0.19070942213E+03  0.19070942213E+03  0.00000000000E+00 0.  1.
         21   -1    0    0  503  502 -0.00000000000E+00 -0.00000000000E+00 -0.25006200065E+03  0.25006200065E+03  0.00000000000E+00 0.  1.
         21    1    1    2  503  504  0.20347014659E+01 -0.43079414624E+02 -0.19436366163E+02  0.47304844403E+02  0.00000000000E+00 0.  1.
         21    1    1    2  504  501  0.13645437639E+02  0.69209461733E+02  0.11733255296E+03  0.13690535251E+03  0.00000000000E+00 0.  1.
         21    1    1    2  505  502  0.59139511205E+02 -0.23155438741E+02 -0.16920692872E+03  0.18073361850E+03  0.00000000000E+00 0.  1.
         21    1    1    2  506  505 -0.74819650310E+02 -0.29746083676E+01  0.11958163400E+02  0.75827607370E+02  0.00000000000E+00 0.  1.
<scales pt_clust_3="43.12744" pt_clust_4="68.65233" pt_clust_5="14000.00000" pt_clust_6="74.67750"></scales>
<clustering>
<clus scale="   43.127">  2  3  1 -1</clus>
<clus scale="   68.652">  1  4  2 -1</clus>
<clus scale="   74.678">  1  6  2 -1</clus>
<clus scale="   68.652">  1  3  2 -1</clus>
</clustering>
</event>
<event>
 6    0  0.1344929E+003  0.6700470E+02  0.7546771E-02  0.1370585E+00
         21   -1    0    0  504  501  0.00000000000E+00  0.00000000000E+00  0.11707590514E+04  0.11707590514E+04  0.00000000000E+00 0.  1.
         21   -1    0    0  503  502 -0.00000000000E+00 -0.00000000000E+00 -0.48249008459E+03  0.48249008459E+03  0.00000000000E+00 0.  1.
         21    1    1    2  503  505 -0.48833786314E+02  0.84386306405E+01 -0.39886141351E+03  0.40192832241E+03  0.00000000000E+00 0.  1.
         21    1    1    2  504  506 -0.65062034902E+01  0.45654388343E+02  0.62096268549E+02  0.77347271617E+02  0.00000000000E+00 0. -1.
         21    1    1    2  505  501  0.45128243755E+02 -0.10085590273E+03  0.10887163349E+04  0.10943087907E+04  0.00000000000E+00 0.  1.
         21    1    1    2  506  502  0.10211746050E+02  0.46762883750E+02 -0.63682223129E+02  0.79664751281E+02  0.00000000000E+00 0.  1.
<scales pt_clust_3="67.00470" pt_clust_4="46.11566" pt_clust_5="14000.00000" pt_clust_6="48.17868"></scales>
<clustering>
<clus scale="   46.116">  1  4  2 -1</clus>
<clus scale="   48.179">  2  6  1 -1</clus>
<clus scale="   67.005">  2  3  1 -1</clus>
<clus scale="   46.116">  1  3  2 -1</clus>
</clustering>
</event>
<event>
 6    0  0.1344929E+003  0.1147255E+03  0.7546771E-02  0.1252061E+00
         21   -1    0    0  506  501  0.00000000000E+00  0.00000000000E+00  0.77734867138E+03  0.77734867138E+03  0.00000000000E+00 0.  1.
         21   -1    0    0  503  502 -0.00000000000E+00 -0.00000000000E+00 -0.15131485894E+03  0.15131485894E+03  0.00000000000E+00 0.  1.
         21    1    1    2  503  501  0.51886151315E+02 -0.14515045109E+02 -0.30148482629E+02  0.61739697420E+02  0.00000000000E+00 0.  1.
         21    1    1    2  504  502 -0.29993295240E+02 -0.11133674249E+02 -0.76891642555E+02  0.83281937757E+02  0.00000000000E+00 0.  1.
         21    1    1    2  505  504  0.69064316855E+02  0.95776354384E+02  0.15820895481E+03  0.19741596517E+03  0.00000000000E+00 0. -1.
         21    1    1    2  506  505 -0.90957172930E+02 -0.70127635027E+02  0.57486498281E+03  0.58622592997E+03  0.00000000000E+00 0.  1.
<scales pt_clust_3="39.10971" pt_clust_4="31.99307" pt_clust_5="14000.00000" pt_clust_6="114.72548"></scales>
<clustering>
<clus scale="   31.993">  2  4  1 -1</clus>
<clus scale="   39.110">  2  3  1 -1</clus>
<clus scale="  114.725">  1  6  2 -1</clus>
<clus scale="  114.725">  1  3  2 -1</clus>
</clustering>
</event>
<event>
 6    0  0.1344929E+003  0.9466465E+02  0.7546771E-02  0.1291933E+00
         21   -1    0    0  505  501  0.00000000000E+00  0.00000000000E+00  0.39341642914E+03  0.39341642914E+03  0.00000000000E+00 0. -1.
         21   -1    0    0  503  502 -0.00000000000E+00 -0.00000000000E+00 -0.20463161656E+03  0.20463161656E+03  0.00000000000E+00 0.  1.
         21    1    1    2  503  506  0.19884544685E+02  0.23020447295E+02 -0.16107512542E+03  0.16392233569E+03  0.00000000000E+00 0.  1.
         21    1    1    2  504  501 -0.36452969321E+02  0.13855775091E+02  0.14908222966E+03  0.15409838635E+03  0.00000000000E+00 0. -1.
         21    1    1    2  505  502  0.35826590978E+02  0.71099831041E+02  0.51624348464E+02  0.94888376261E+02  0.00000000000E+00 0.  1.
         21    1    1    2  506  504 -0.19258166343E+02 -0.10797605343E+03  0.14915335987E+03  0.18513894740E+03  0.00000000000E+00 0. -1.
<scales pt_clust_3="30.41934" pt_clust_4="38.41559" pt_clust_5="94.66465" pt_clust_6="14000.00000"></scales>
<clustering>
<clus scale="   30.419">  2  3  1 -1</clus>
<clus scale="   38.416">  1  4  2 -1</clus>
<clus scale="   94.665">  2  5  1 -1</clus>
<clus scale="   38.416">  1  3  2 -1</clus>
</clustering>
</event>
<event>
 6    0  0.1344929E+003  0.8719988E+02  0.7546771E-02  0.1309778E+00
         21   -1    0    0  503  501  0.00000000000E+00  0.00000000000E+00  0.93117653691E+03  0.93117653691E+03  0.00000000000E+00 0. -1.
         21   -1    0    0  505  502 -0.00000000000E+00 -0.00000000000E+00 -0.41602447463E+02  0.41602447463E+02  0.00000000000E+00 0. -1.
         21    1    1    2  503  504  0.31944419323E+02  0.24077681655E+02  0.17145609998E+03  0.17606071368E+03  0.00000000000E+00 0. -1.
         21    1    1    2  504  506 -0.47405308021E+02 -0.20365492332E+02  0.28282237354E+03  0.28749001979E+03  0.00000000000E+00 0.  1.
         21    1    1    2  505  501  0.71465969962E+02 -0.53081732717E+02  0.25381033679E+02  0.92570254842E+02  0.00000000000E+00 0. -1.
         21    1    1    2  506  502 -0.56005081265E+02  0.49369543393E+02  0.40991458225E+03  0.41665799606E+03  0.00000000000E+00 0. -1.
<scales pt_clust_3="40.00226" pt_clust_4="37.13971" pt_clust_5="14000.00000" pt_clust_6="87.19988"></scales>
<clustering>
<clus scale="   40.002">  1  3  2 -1</clus>
<clus scale="   37.140">  1  4  2 -1</clus>
<clus scale="   87.200">  1  6  2 -1</clus>
<clus scale="   40.002">  1  3  2 -1</clus>
</clustering>
</event>
<event>
 6    0  0.1344929E+003  0.8770345E+02  0.7546771E-02  0.1308510E+00
         21   -1    0    0  505  501  0.00000000000E+00  0.00000000000E+00  0.20263715040E+04  0.20263715040E+04  0.00000000000E+00 0. -1.
         21   -1    0    0  506  502 -0.00000000000E+00 -0.00000000000E+00 -0.13832326443E+03  0.13832326443E+03  0.00000000000E+00 0.  1.
         21    1    1    2  503  504  0.54575774210E+02  0.48109432307E+02 -0.20568693442E+02  0.75604918871E+02  0.00000000000E+00 0.  1.
         21    1    1    2  504  501  0.72398872868E+02  0.14711822108E+02 -0.13369042848E+02  0.75078397752E+02  0.00000000000E+00 0.  1.
         21    1    1    2  505  502 -0.68366625439E+02 -0.38070126225E+02  0.19448380240E+04  0.19464116393E+04  0.00000000000E+00 0. -1.
         21    1    1    2  506  503 -0.58608021639E+02 -0.24751128190E+02 -0.22852048147E+02  0.67599812512E+02  0.00000000000E+00 0.  1.
<scales pt_clust_3="38.23621" pt_clust_4="38.23621" pt_clust_5="78.78625" pt_clust_6="63.62011"></scales>
<clustering>
<clus scale="   38.236">  3  4 -1 -1</clus>
<clus scale="   63.620">  2  6  1 -1</clus>
<clus scale="   78.786">  1  5  2 -1</clus>
<clus scale="   78.786">  1  3  2 -1</clus>
</clustering>
</event>
<event>
 6    0  0.1344929E+003  0.1591486E+03  0.7546771E-02  0.1189661E+00
         21   -1    0    0  506  501  0.00000000000E+00  0.00000000000E+00  0.64454940324E+03  0.64454940324E+03  0.00000000000E+00 0.  1.
         21   -1    0    0  504  502 -0.00000000000E+00 -0.00000000000E+00 -0.60330737541E+03  0.60330737541E+03  0.00000000000E+00 0.  1.
         21    1    1    2  503  502  0.13467914308E+03 -0.62404619716E+02 -0.12519408882E+03  0.19418127618E+03  0.00000000000E+00 0.  1.
         21    1    1    2  504  505 -0.70857556230E+01  0.31108335636E+02 -0.19545476077E+03  0.19804166225E+03  0.00000000000E+00 0.  1.
         21    1    1    2  505  501  0.59233428131E+02  0.79444684371E+02  0.56609526277E+03  0.57470331773E+03  0.00000000000E+00 0.  1.
         21    1    1    2  506  503 -0.18682681559E+03 -0.48148400291E+02 -0.20420438535E+03  0.28093052250E+03  0.00000000000E+00 0.  1.
<scales pt_clust_3="14000.00000" pt_clust_4="31.90512" pt_clust_5="99.31571" pt_clust_6="159.14861"></scales>
<clustering>
<clus scale="   31.905">  2  4  1 -1</clus>
<clus scale="   99.316">  1  5  2 -1</clus>
<clus scale="  159.149">  1  6  2 -1</clus>
<clus scale="   99.316">  1  3  2 -1</clus>
</clustering>
</event>
<event>
 6    0  0.1344929E+003  0.1207134E+03  0.7546771E-02  0.1241925E+00
         21   -1    0    0  503  501  0.00000000000E+00  0.00000000000E+00  0.27794180787E+03  0.27794180787E+03  0.00000000000E+00 0. -1.
         21   -1    0    0  504  502 -0.00000000000E+00 -0.00000000000E+00 -0.38532909448E+03  0.38532909448E+03  0.00000000000E+00 0. -1.
         21    1    1    2  503  505 -0.11545415878E+03 -0.23596946281E+02  0.74732716953E+02  0.13954016496E+03  0.00000000000E+00 0. -1.
         21    1    1    2  504  506 -0.60684557857E+01 -0.39769688545E+02 -0.21724096878E+03  0.22093458942E+03  0.00000000000E+00 0. -1.
         21    1    1    2  505  502  0.31492783415E+02 -0.37018432197E+02 -0.10044628479E+03  0.11158680862E+03  0.00000000000E+00 0. -1.
         21    1    1    2  506  501  0.90029831153E+02  0.10038506702E+03  0.13556725002E+03  0.19120933935E+03  0.00000000000E+00 0. -1.
<scales pt_clust_3="120.71339" pt_clust_4="40.23002" pt_clust_5="68.22287" pt_clust_6="14000.00000"></scales>
<clustering>
<clus scale="   40.230">  2  4  1 -1</clus>
<clus scale="   68.223">  2  5  1 -1</clus>
<clus scale="  120.713">  2  3  1 -1</clus>
<clus scale="  120.713">  1  3  2 -1</clus>
</clustering>
</event>
<event>
 6    0  0.3213519E+003  0.8179240E+02  0.7546771E-02  0.1324040E+00
         21   -1    0    0  503  501  0.00000000000E+00  0.00000000000E+00  0.22060343496E+04  0.22060343496E+04  0.00000000000E+00 0. -1.
         21   -1    0    0  506  502 -0.00000000000E+00 -0.00000000000E+00 -0.29330834266E+03  0.29330834266E+03  0.00000000000E+00 0.  1.
         21    1    1    2  503  505 -0.20772332402E+02  0.24385930916E+02  0.94666998576E+03  0.94721181652E+03  0.00000000000E+00 0. -1.
         21    1    1    2  504  501  0.46119731094E+02  0.15027770663E+02  0.89136572545E+02  0.10148000814E+03  0.00000000000E+00 0.  1.
         21    1    1    2  505  502 -0.10567930450E+03 -0.24510292407E+02  0.11553747419E+04  0.11604566619E+04  0.00000000000E+00 0. -1.
         21    1    1    2  506  504  0.80331905805E+02 -0.14903409171E+02 -0.27845529327E+03  0.29019420574E+03  0.00000000000E+00 0.  1.
<scales pt_clust_3="32.03379" pt_clust_4="47.63599" pt_clust_5="81.79240" pt_clust_6="14000.00000"></scales>
<clustering>
<clus scale="   32.034">  1  3  2 -1</clus>
<clus scale="   47.636">  1  4  2 -1</clus>
<clus scale="   81.792">  1  5  2 -1</clus>
<clus scale="   32.034">  1  3  2 -1</clus>
</clustering>
</event>
<event>
 6    0  0.1344929E+003  0.1194650E+03  0.7546771E-02  0.1243982E+00
         21   -1    0    0  503  501  0.00000000000E+00  0.00000000000E+00  0.51716535037E+03  0.51716535037E+03  0.00000000000E+00 0.  1.
         21   -1    0    0  505  502 -0.00000000000E+00 -0.00000000000E+00 -0.39028857651E+03  0.39028857651E+03  0.00000000000E+00 0.  1.
         21    1    1    2  503  504 -0.78746269857E+01  0.11239281317E+03  0.49614236966E+03  0.50877441482E+03  0.00000000000E+00 0.  1.
         21    1    1    2  504  506 -0.27061683608E+02 -0.33893523736E+02 -0.89178591439E+02  0.99166157745E+02  0.00000000000E+00 0.  1.
         21    1    1    2  505  501  0.37195606361E+02 -0.21960602101E+02 -0.72874894280E+02  0.84714410779E+02  0.00000000000E+00 0.  1.
         21    1    1    2  506  502 -0.22592957679E+01 -0.56538687336E+02 -0.20721211008E+03  0.21479894354E+03  0.00000000000E+00 0.  1.
<scales pt_clust_3="112.17375" pt_clust_4="35.98018" pt_clust_5="43.19469" pt_clust_6="35.98018"></scales>
<clustering>
<clus scale="   35.980">  4  6 -1 -1</clus>
<clus scale="   43.195">  2  5  1 -1</clus>
<clus scale="  112.174">  1  3  2 -1</clus>
<clus scale="  112.174">  1  3  2 -1</clus>
</clustering>
</event>
<event>
 6    0  0.1344929E+003  0.1433489E+03  0.7546771E-02  0.1208893E+00
         21   -1    0    0  506  501  0.00000000000E+00  0.00000000000E+00  0.97841192831E+03  0.97841192831E+03  0.00000000000E+00 0. -1.
         21   -1    0    0  504  502 -0.00000000000E+00 -0.00000000000E+00 -0.17935132363E+03  0.17935132363E+03  0.00000000000E+00 0. -1.
         21    1    1    2  503  502  0.10978609584E+02 -0.31472688765E+02 -0.92704675780E+02  0.98515059346E+02  0.00000000000E+00 0. -1.
         21    1    1    2  504  505  0.33966840580E+02 -0.64414257569E+01  0.40882907447E+02  0.53541108936E+02  0.00000000000E+00 0. -1.
         21    1    1    2  505  501 -0.11347853009E+03  0.94955786894E+02  0.89435205732E+03  0.90650955907E+03  0.00000000000E+00 0. -1.
         21    1    1    2  506  503  0.68533079921E+02 -0.57041672372E+02 -0.43469684309E+02  0.99197524588E+02  0.00000000000E+00 0. -1.
<scales pt_clust_3="33.33257" pt_clust_4="35.89704" pt_clust_5="14000.00000" pt_clust_6="143.34886"></scales>
<clustering>
<clus scale="   33.333">  2  3  1 -1</clus>
<clus scale="   35.897">  2  4  1 -1</clus>
<clus scale="  143.349">  2  6  1 -1</clus>
<clus scale="  143.349">  1  3  2 -1</clus>
</clustering>
</event>
<event>
 6    0  0.1344929E+003  0.1071607E+03  0.7546771E-02  0.1265920E+00
         21   -1    0    0  503  501  0.00000000000E+00  0.00000000000E+00  0.72443721299E+03  0.72443721299E+03  0.00000000000E+00 0.  1.
         21   -1    0    0  506  502 -0.00000000000E+00 -0.00000000000E+00 -0.32524993053E+03  0.32524993053E+03  0.00000000000E+00 0.  1.
         21    1    1    2  503  504  0.13778633621E+02 -0.67160282557E+02  0.58900171039E+03  0.59297838843E+03  0.00000000000E+00 0.  1.
         21    1    1    2  504  502  0.78794735934E+01  0.10236966577E+03 -0.42837579179E+02  0.11125058546E+03  0.00000000000E+00 0.  1.
         21    1    1    2  505  501 -0.24705567696E+02 -0.73763039841E+02  0.82122795582E+02  0.11311721653E+03  0.00000000000E+00 0.  1.
         21    1    1    2  506  505  0.30474604813E+01  0.38553656625E+02 -0.22909964434E+03  0.23234095311E+03  0.00000000000E+00 0.  1.
<scales pt_clust_3="67.77800" pt_clust_4="14000.00000" pt_clust_5="107.16069" pt_clust_6="38.67391"></scales>
<clustering>
<clus scale="   38.674">  2  6  1 -1</clus>
<clus scale="   67.778">  1  3  2 -1</clus>
<clus scale="  107.161">  1  5  2 -1</clus>
<clus scale="   67.778">  1  3  2 -1</clus>
</clustering>
</event>
<event>
 6    0  0.1344929E+003  0.1381227E+03  0.7546771E-02  0.1215878E+00
         21   -1    0    0  504  501  0.00000000000E+00  0.00000000000E+00  0.98480282086E+02  0.98480282086E+02  0.00000000000E+00 0.  1.
         21   -1    0    0  506  502 -0.00000000000E+00 -0.00000000000E+00 -0.42067568868E+03  0.42067568868E+03  0.00000000000E+00 0.  1.
         21    1    1    2  503  501  0.33029158548E+02  0.34600252777E+01  0.46945275369E+01  0.33540060794E+02  0.00000000000E+00 0.  1.
         21    1    1    2  504  502  0.94914448456E+02 -0.12686162152E+03 -0.17586168454E+03  0.23670647568E+03  0.00000000000E+00 0.  1.
         21    1    1    2  505  503 -0.21516714815E+02  0.55844177867E+02 -0.11628338876E+02  0.60965231757E+02  0.00000000000E+00 0.  1.
         21    1    1    2  506  505 -0.10642689219E+03  0.67557418377E+02 -0.13939991072E+03  0.18794420253E+03  0.00000000000E+00 0.  1.
<scales pt_clust_3="33.20989" pt_clust_4="138.12271" pt_clust_5="58.02082" pt_clust_6="14000.00000"></scales>
<clustering>
<clus scale="   33.210">  1  3  2 -1</clus>
<clus scale="   58.021">  1  5  2 -1</clus>
<clus scale="  138.123">  1  4  2 -1</clus>
<clus scale="   33.210">  1  3  2 -1</clus>
</clustering>
</event>
<event>
 6    0  0.1344929E+003  0.1197104E+03  0.7546771E-02  0.1243576E+00
         21   -1    0    0  506  501  0.00000000000E+00  0.00000000000E+00  0.11780108633E+03  0.11780108633E+03  0.00000000000E+00 0. -1.
         21   -1    0    0  503  502 -0.00000000000E+00 -0.00000000000E+00 -0.10798430337E+04  0.10798430337E+04  0.00000000000E+00 0.  1.
         21    1    1    2  503  505  0.18504761670E+02  0.27089325386E+02 -0.19611897368E+03  0.19884393275E+03  0.00000000000E+00 0. -1.
         21    1    1    2  504  501 -0.50615717522E+02  0.11723007604E+03  0.61318018132E+02  0.14165006507E+03  0.00000000000E+00 0. -1.
         21    1    1    2  505  504 -0.27391025016E+02 -0.96349983774E+02 -0.18499928592E+03  0.21037662279E+03  0.00000000000E+00 0.  1.
         21    1    1    2  506  502  0.59501980868E+02 -0.47969417647E+02 -0.64224170585E+03  0.64677349938E+03  0.00000000000E+00 0.  1.
<scales pt_clust_3="32.80637" pt_clust_4="14000.00000" pt_clust_5="119.71043" pt_clust_6="78.26846"></scales>
<clustering>
<clus scale="   32.806">  2  3  1 -1</clus>
<clus scale="   78.268">  2  6  1 -1</clus>
<clus scale="  119.710">  2  5  1 -1</clus>
<clus scale="  119.710">  1  3  2 -1</clus>
</clustering>
</event>
<event>
 6    0  0.1344929E+003  0.9545872E+02  0.7546771E-02  0.1290146E+00
         21   -1    0    0  506  501  0.00000000000E+00  0.00000000000E+00  0.17702105018E+04  0.17702105018E+04  0.00000000000E+00 0. -1.
         21   -1    0    0  505  502 -0.00000000000E+00 -0.00000000000E+00 -0.35135362309E+02  0.35135362309E+02  0.00000000000E+00 0.  1.
         21    1    1    2  503  504  0.11550322455E+03 -0.55510917106E+01  0.33970273498E+03  0.35884503293E+03  0.00000000000E+00 0. -1.
         21    1    1    2  504  502 -0.86973419886E+02  0.27643116061E+02  0.60781075601E+02  0.10964878834E+03  0.00000000000E+00 0.  1.
         21    1    1    2  505  501 -0.31616102717E+02  0.15153281318E+02  0.89086417250E+03  0.89155379744E+03  0.00000000000E+00 0. -1.
         21    1    1    2  506  503  0.30862980538E+01 -0.37245305668E+02  0.44372715641E+03  0.44529824541E+03  0.00000000000E+00 0. -1.
<scales pt_clust_3="95.45872" pt_clust_4="14000.00000" pt_clust_5="35.05995" pt_clust_6="32.27340"></scales>
<clustering>
<clus scale="   35.060">  1  5  2 -1</clus>
<clus scale="   32.273">  1  6  2 -1</clus>
<clus scale="   95.459">  1  3  2 -1</clus>
<clus scale="   35.060">  1  3  2 -1</clus>
</clustering>
</event>
<event>
 6    0  0.1344929E+003  0.7829537E+02  0.7546771E-02  0.1333960E+00
         21   -1    0    0  504  501  0.00000000000E+00  0.00000000000E+00  0.24516056138E+03  0.24516056138E+03  0.00000000000E+00 0.  1.
         21   -1    0    0  506  502 -0.00000000000E+00 -0.00000000000E+00 -0.52894718965E+03  0.52894718965E+03  0.00000000000E+00 0. -1.
         21    1    1    2  503  501  0.76453432613E+02 -0.20401018701E+02  0.21739195042E+03  0.23134517291E+03  0.00000000000E+00 0.  1.
         21    1    1    2  504  502 -0.19917164249E+02  0.91125245687E+02 -0.28154842814E+03  0.29659740596E+03  0.00000000000E+00 0. -1.
         21    1    1    2  505  503 -0.45697029021E+02 -0.23881882605E+02 -0.16746176596E+03  0.17521987854E+03  0.00000000000E+00 0. -1.
         21    1    1    2  506  505 -0.10839239343E+02 -0.46842344380E+02 -0.52168384588E+02  0.70945293622E+02  0.00000000000E+00 0. -1.
<scales pt_clust_3="14000.00000" pt_clust_4="78.29537" pt_clust_5="64.44055" pt_clust_6="48.08008"></scales>
<clustering>
<clus scale="   48.080">  2  6  1 -1</clus>
<clus scale="   64.441">  2  5  1 -1</clus>
<clus scale="   78.295">  2  4  1 -1</clus>
<clus scale="   78.295">  1  3  2 -1</clus>
</clustering>
</event>
<event>
 6    0  0.1344929E+003  0.1094410E+03  0.7546771E-02  0.1261609E+00
         21   -1    0    0  506  501  0.00000000000E+00  0.00000000000E+00  0.81845405524E+03  0.81845405524E+03  0.00000000000E+00 0.  1.
         21   -1    0    0  505  502 -0.00000000000E+00 -0.00000000000E+00 -0.88351272921E+02  0.88351272921E+02  0.00000000000E+00 0.  1.
         21    1    1    2  503  502  0.28070462693E+02  0.14298600487E+02 -0.30340028451E+02  0.43736920080E+02  0.00000000000E+00 0.  1.
         21    1    1    2  504  503 -0.11219787912E+03  0.61889858139E+02  0.49878158985E+02  0.13750108859E+03  0.00000000000E+00 0.  1.
         21    1    1    2  505  501  0.28240435151E+02 -0.39608891790E+02  0.98381717611E+02  0.10975130453E+03  0.00000000000E+00 0.  1.
         21    1    1    2  506  504  0.55886981277E+02 -0.36579566836E+02  0.61218293417E+03  0.61581601496E+03  0.00000000000E+00 0.  1.
<scales pt_clust_3="31.50239" pt_clust_4="14000.00000" pt_clust_5="49.28209" pt_clust_6="109.44102"></scales>
<clustering>
<clus scale="   31.502">  2  3  1 -1</clus>
<clus scale="   49.282">  1  5  2 -1</clus>
<clus scale="  109.441">  1  6  2 -1</clus>
<clus scale="   49.282">  1  3  2 -1</clus>
</clustering>
</event>
<event>
 6    0  0.1344929E+003  0.7948187E+02  0.7546771E-02  0.1330528E+00
         21   -1    0    0  505  501  0.00000000000E+00  0.00000000000E+00  0.39460225068E+03  0.39460225068E+03  0.00000000000E+00 0. -1.
         21   -1    0    0  506  502 -0.00000000000E+00 -0.00000000000E+00 -0.11843864733E+03  0.11843864733E+03  0.00000000000E+00 0.  1.
         21    1    1    2  503  502 -0.45031484034E+02 -0.27657076697E+02 -0.76685659291E+02  0.93131298641E+02  0.00000000000E+00 0.  1.
         21    1    1    2  504  501 -0.21170746641E+02 -0.32055144091E+02  0.94412216146E+02  0.10192840298E+03  0.00000000000E+00 0. -1.
         21    1    1    2  505  503  0.17704004120E+02  0.10914061060E+03  0.11988180172E+03  0.16308510363E+03  0.00000000000E+00 0. -1.
         21    1    1    2  506  504  0.48498226555E+02 -0.49428389809E+02  0.13855524477E+03  0.15489609276E+03  0.00000000000E+00 0. -1.
<scales pt_clust_3="53.81412" pt_clust_4="38.41527" pt_clust_5="79.48187" pt_clust_6="14000.00000"></scales>
<clustering>
<clus scale="   38.415">  1  4  2 -1</clus>
<clus scale="   53.814">  2  3  1 -1</clus>
<clus scale="   79.482">  2  5  1 -1</clus>
<clus scale="   38.415">  1  3  2 -1</clus>
</clustering>
</event>
<event>
 6    0  0.1344929E+003  0.9335213E+02  0.7546771E-02  0.1294931E+00
         21   -1    0    0  504  501  0.00000000000E+00  0.00000000000E+00  0.80546136460E+03  0.80546136460E+03  0.00000000000E+00 0.  1.
         21   -1    0    0  505  502 -0.00000000000E+00 -0.00000000000E+00 -0.21136455275E+03  0.21136455275E+03  0.00000000000E+00 0.  1.
         21    1    1    2  503  502  0.53019371561E+02  0.10788425276E+02 -0.18207480415E+03  0.18994388168E+03  0.00000000000E+00 0.  1.
         21    1    1    2  504  506  0.70072049792E+02 -0.27206214945E+02  0.19790531762E+03  0.21169975209E+03  0.00000000000E+00 0.  1.
         21    1    1    2  505  501 -0.87353442632E+02  0.67838102896E+02  0.51279052193E+03  0.52458245446E+03  0.00000000000E+00 0.  1.
         21    1    1    2  506  503 -0.35737978721E+02 -0.51420313227E+02  0.65475776453E+02  0.90599829125E+02  0.00000000000E+00 0.  1.
<scales pt_clust_3="54.10586" pt_clust_4="93.35213" pt_clust_5="14000.00000" pt_clust_6="47.03841"></scales>
<clustering>
<clus scale="   54.106">  2  3  1 -1</clus>
<clus scale="   47.038">  2  6  1 -1</clus>
<clus scale="   93.352">  2  4  1 -1</clus>
<clus scale="   93.352">  1  3  2 -1</clus>
</clustering>
</event>
<event>
 6    0  0.1344929E+003  0.2007137E+03  0.7546771E-02  0.1149138E+00
         21   -1    0    0  505  501  0.00000000000E+00  0.00000000000E+00  0.20240608260E+04  0.20240608260E+04  0.00000000000E+00 0. -1.
         21   -1    0    0  503  502 -0.00000000000E+00 -0.00000000000E+00 -0.59848098726E+02  0.59848098726E+02  0.00000000000E+00 0. -1.
         21    1    1    2  503  506  0.34523978624E+02  0.33835706533E+02  0.26708972545E+01  0.48413777261E+02  0.00000000000E+00 0. -1.
         21    1    1    2  504  502 -0.54204805646E+02 -0.56216537126E+02  0.51319060993E+03  0.51909831643E+03  0.00000000000E+00 0. -1.
         21    1    1    2  505  504 -0.16915987029E+01 -0.11539453544E+03  0.13256681510E+04  0.13306820834E+04  0.00000000000E+00 0. -1.
         21    1    1    2  506  501  0.21372425725E+02  0.13777536604E+03  0.12268306904E+03  0.18571474766E+03  0.00000000000E+00 0. -1.
<scales pt_clust_3="47.57390" pt_clust_4="72.23548" pt_clust_5="72.23548" pt_clust_6="197.74365"></scales>
<clustering>
<clus scale="   47.574">  3  6 -1 -1</clus>
<clus scale="   72.235">  4  5 -1 -1</clus>
<clus scale="  197.744">  2  3  1 -1</clus>
<clus scale="  200.714">  1  3  2 -1</clus>
</clustering>
</event>
<event>
 6    0  0.1344929E+003  0.1076993E+03  0.7546771E-02  0.1264891E+00
         21   -1    0    0  504  501  0.00000000000E+00  0.00000000000E+00  0.27002107788E+03  0.27002107788E+03  0.00000000000E+00 0.  1.
         21   -1    0    0  505  502 -0.00000000000E+00 -0.00000000000E+00 -0.24424424724E+03  0.24424424724E+03  0.00000000000E+00 0.  1.
         21    1    1    2  503  501 -0.43312663034E+02 -0.85614748874E+02  0.29214040476E+02  0.10029622209E+03  0.00000000000E+00 0.  1.
         21    1    1    2  504  502  0.51212299829E+02 -0.18268957780E+02  0.18628807407E+03  0.19406107547E+03  0.00000000000E+00 0.  1.
         21    1    1    2  505  506  0.13111900658E+02  0.50582180776E+02 -0.10945357331E+03  0.12128711251E+03  0.00000000000E+00 0.  1.
         21    1    1    2  506  503 -0.21011537453E+02  0.53301525878E+02 -0.80271710588E+02  0.98620915062E+02  0.00000000000E+00 0.  1.
<scales pt_clust_3="100.44655" pt_clust_4="54.37329" pt_clust_5="37.10585" pt_clust_6="37.10585"></scales>
<clustering>
<clus scale="   37.106">  5  6 -1 -1</clus>
<clus scale="   54.373">  1  4  2 -1</clus>
<clus scale="  100.447">  1  3  2 -1</clus>
<clus scale="   54.373">  1  3  2 -1</clus>
</clustering>
</event>
<event>
 6    0  0.1344929E+003  0.2015538E+03  0.7546771E-02  0.1148435E+00
         21   -1    0    0  506  501  0.00000000000E+00  0.00000000000E+00  0.98356934869E+03  0.98356934869E+03  0.00000000000E+00 0. -1.
         21   -1    0    0  504  502 -0.00000000000E+00 -0.00000000000E+00 -0.87954938849E+02  0.87954938849E+02  0.00000000000E+00 0. -1.
         21    1    1    2  503  501  0.11650818147E+03 -0.16491891440E+03  0.15299721600E+03  0.25333881026E+03  0.00000000000E+00 0. -1.
         21    1    1    2  504  503  0.33339020662E+02  0.19258386074E+02 -0.36931515546E+01  0.38678354429E+02  0.00000000000E+00 0. -1.
         21    1    1    2  505  502 -0.11672838576E+03  0.14813325149E+03  0.67482440370E+03  0.70068320378E+03  0.00000000000E+00 0. -1.
         21    1    1    2  506  505 -0.33118816373E+02 -0.24727231604E+01  0.71485941697E+02  0.78823919073E+02  0.00000000000E+00 0. -1.
<scales pt_clust_3="201.55380" pt_clust_4="37.92660" pt_clust_5="14000.00000" pt_clust_6="33.21100"></scales>
<clustering>
<clus scale="   33.211">  1  6  2 -1</clus>
<clus scale="   37.927">  2  4  1 -1</clus>
<clus scale="  201.554">  2  3  1 -1</clus>
<clus scale="   33.211">  1  3  2 -1</clus>
</clustering>
</event>
<event>
 6    0  0.1344929E+003  0.1168075E+03  0.7546771E-02  0.1248459E+00
         21   -1    0    0  503  501  0.00000000000E+00  0.00000000000E+00  0.11721830041E+03  0.11721830041E+03  0.00000000000E+00 0. -1.
         21   -1    0    0  504  502 -0.00000000000E+00 -0.00000000000E+00 -0.59279858942E+03  0.59279858942E+03  0.00000000000E+00 0.  1.
         21    1    1    2  503  506  0.22953371185E+02 -0.80097752857E+02  0.48058830341E+02  0.96188140825E+02  0.00000000000E+00 0. -1.
         21    1    1    2  504  505 -0.52042939549E+02  0.12087940143E+03 -0.46662955419E+03  0.48483341272E+03  0.00000000000E+00 0.  1.
         21    1    1    2  505  501 -0.14704157151E+02  0.28002388238E+02 -0.43462584111E+01  0.31925474886E+02  0.00000000000E+00 0. -1.
         21    1    1    2  506  502  0.43793725514E+02 -0.68784036814E+02 -0.52663306742E+02  0.97069861398E+02  0.00000000000E+00 0.  1.
<scales pt_clust_3="61.88802" pt_clust_4="116.80751" pt_clust_5="31.62825" pt_clust_6="14000.00000"></scales>
<clustering>
<clus scale="   31.628">  1  5  2 -1</clus>
<clus scale="   61.888">  1  3  2 -1</clus>
<clus scale="  116.808">  2  4  1 -1</clus>
<clus scale="   31.628">  1  3  2 -1</clus>
</clustering>
</event>
<event>
 6    0  0.1344929E+003  0.9784990E+02  0.7546771E-02  0.1284883E+00
         21   -1    0    0  505  501  0.00000000000E+00  0.00000000000E+00  0.50801766933E+02  0.50801766933E+02  0.00000000000E+00 0. -1.
         21   -1    0    0  503  502 -0.00000000000E+00 -0.00000000000E+00 -0.35047494126E+04  0.35047494126E+04  0.00000000000E+00 0. -1.
         21    1    1    2  503  504 -0.44920104109E+02 -0.39053424586E+02 -0.50233034287E+03  0.50584459975E+03  0.00000000000E+00 0. -1.
         21    1    1    2  504  501  0.15947632381E+00 -0.93551051170E+02 -0.36553821803E+02  0.10043906857E+03  0.00000000000E+00 0. -1.
         21    1    1    2  505  506  0.83912948139E+02  0.10818178090E+03 -0.26036203298E+03  0.29416503668E+03  0.00000000000E+00 0. -1.
         21    1    1    2  506  502 -0.39152320355E+02  0.24422694861E+02 -0.26547014480E+04  0.26551024745E+04  0.00000000000E+00 0. -1.
<scales pt_clust_3="72.43656" pt_clust_4="97.84990" pt_clust_5="14000.00000" pt_clust_6="46.14512"></scales>
<clustering>
<clus scale="   46.145">  2  6  1 -1</clus>
<clus scale="   72.437">  2  3  1 -1</clus>
<clus scale="   97.850">  1  4  2 -1</clus>
<clus scale="   97.850">  1  3  2 -1</clus>
</clustering>
</event>
<event>
 6    0  0.1344929E+003  0.7610548E+02  0.7546771E-02  0.1340482E+00
         21   -1    0    0  506  501  0.00000000000E+00  0.00000000000E+00  0.82903223676E+03  0.82903223676E+03  0.00000000000E+00 0.  1.
         21   -1    0    0  505  502 -0.00000000000E+00 -0.00000000000E+00 -0.29599245134E+03  0.29599245134E+03  0.00000000000E+00 0.  1.
         21    1    1    2  503  504 -0.78704271205E+02 -0.44188310336E+02 -0.15188688696E+03  0.17668218786E+03  0.00000000000E+00 0.  1.
         21    1    1    2  504  502  0.52587940732E+01  0.33607149141E+02 -0.11903244088E+03  0.12379748532E+03  0.00000000000E+00 0. -1.
         21    1    1    2  505  501  0.11106433611E+03 -0.10918220971E+01  0.31511561219E+03  0.33411723673E+03  0.00000000000E+00 0.  1.
         21    1    1    2  506  503 -0.37618858982E+02  0.11672983292E+02  0.48884350106E+03  0.49042777819E+03  0.00000000000E+00 0.  1.
<scales pt_clust_3="76.10548" pt_clust_4="34.01610" pt_clust_5="14000.00000" pt_clust_6="39.41098"></scales>
<clustering>
<clus scale="   34.016">  2  4  1 -1</clus>
<clus scale="   39.411">  1  6  2 -1</clus>
<clus scale="   76.105">  2  3  1 -1</clus>
<clus scale="   39.411">  1  3  2 -1</clus>
</clustering>
</event>
<event>
 6    0  0.1344929E+003  0.6657187E+02  0.7546771E-02  0.1372154E+00
         21   -1    0    0  505  501  0.00000000000E+00  0.00000000000E+00  0.15517258450E+04  0.15517258450E+04  0.00000000000E+00 0. -1.
         21   -1    0    0  503  502 -0.00000000000E+00 -0.00000000000E+00 -0.49626612566E+03  0.49626612566E+03  0.00000000000E+00 0.  1.
         21    1    1    2  503  501 -0.60952530308E+02 -0.27147142576E+02  0.20743599673E+03  0.21790335252E+03  0.00000000000E+00 0.  1.
         21    1    1    2  504  506  0.79489593596E+02  0.83839846677E+02  0.25944472230E+03  0.28400577338E+03  0.00000000000E+00 0. -1.
         21    1    1    2  505  504 -0.59385443355E+02 -0.22673666547E+02  0.10649045747E+04  0.10668001121E+04  0.00000000000E+00 0. -1.
         21    1    1    2  506  502  0.40848380067E+02 -0.34019037554E+02 -0.47632557434E+03  0.47928273268E+03  0.00000000000E+00 0.  1.
<scales pt_clust_3="61.57302" pt_clust_4="66.57187" pt_clust_5="14000.00000" pt_clust_6="53.15905"></scales>
<clustering>
<clus scale="   53.159">  2  6  1 -1</clus>
<clus scale="   61.573">  2  3  1 -1</clus>
<clus scale="   66.572">  2  4  1 -1</clus>
<clus scale="   66.572">  1  3  2 -1</clus>
</clustering>
</event>
<event>
 6    0  0.1344929E+003  0.2433346E+03  0.7546771E-02  0.1117591E+00
         21   -1    0    0  503  501  0.00000000000E+00  0.00000000000E+00  0.12180173283E+04  0.12180173283E+04  0.00000000000E+00 0.  1.
         21   -1    0    0  506  502 -0.00000000000E+00 -0.00000000000E+00 -0.23551039926E+03  0.23551039926E+03  0.00000000000E+00 0. -1.
         21    1    1    2  503  504 -0.27061960090E+02  0.36793274331E+02  0.23824573036E+03  0.24258425908E+03  0.00000000000E+00 0.  1.
         21    1    1    2  504  502  0.41755829505E+02 -0.29455450423E+03  0.51897372944E+03  0.59819698855E+03  0.00000000000E+00 0.  1.
         21    1    1    2  505  501  0.54893758705E+01  0.20114785094E+03  0.38921165964E+03  0.43815100957E+03  0.00000000000E+00 0. -1.
         21    1    1    2  506  505 -0.20183245286E+02  0.56613378955E+02 -0.16392419040E+03  0.17459547035E+03  0.00000000000E+00 0. -1.
<scales pt_clust_3="45.67379" pt_clust_4="243.33465" pt_clust_5="14000.00000" pt_clust_6="60.34236"></scales>
<clustering>
<clus scale="   45.674">  1  3  2 -1</clus>
<clus scale="   60.342">  2  6  1 -1</clus>
<clus scale="  243.335">  2  4  1 -1</clus>
<clus scale="   45.674">  1  3  2 -1</clus>
</clustering>
</event>
<event>
 6    0  0.1344929E+003  0.1599996E+03  0.7546771E-02  0.1188697E+00
         21   -1    0    0  504  501  0.00000000000E+00  0.00000000000E+00  0.20109198378E+03  0.20109198378E+03  0.00000000000E+00 0. -1.
         21   -1    0    0  503  502 -0.00000000000E+00 -0.00000000000E+00 -0.23119597477E+03  0.23119597477E+03  0.00000000000E+00 0. -1.
         21    1    1    2  503  501 -0.12553283377E+03 -0.24301826786E+02 -0.76023590696E+02  0.14875704179E+03  0.00000000000E+00 0. -1.
         21    1    1    2  504  505  0.24653125838E+02  0.24203959833E+02  0.20746600917E+02  0.40299252286E+02  0.00000000000E+00 0. -1.
         21    1    1    2  505  506  0.13048444370E+03 -0.25153188151E+02  0.94960847367E+02  0.16332922413E+03  0.00000000000E+00 0. -1.
         21    1    1    2  506  502 -0.29604735763E+02  0.25251055104E+02 -0.69787848584E+02  0.79902440347E+02  0.00000000000E+00 0. -1.
<scales pt_clust_3="146.94250" pt_clust_4="32.27947" pt_clust_5="32.27947" pt_clust_6="38.91087"></scales>
<clustering>
<clus scale="   32.279">  4  5 -1 -1</clus>
<clus scale="   38.911">  2  6  1 -1</clus>
<clus scale="  146.943">  2  3  1 -1</clus>
<clus scale="  160.000">  1  3  2 -1</clus>
</clustering>
</event>
<event>
 6    0  0.1344929E+003  0.2006782E+03  0.7546771E-02  0.1149168E+00
         21   -1    0    0  505  501  0.00000000000E+00  0.00000000000E+00  0.31997315768E+03  0.31997315768E+03  0.00000000000E+00 0. -1.
         21   -1    0    0  504  502 -0.00000000000E+00 -0.00000000000E+00 -0.15697410733E+04  0.15697410733E+04  0.00000000000E+00 0. -1.
         21    1    1    2  503  501  0.85317368360E+02 -0.77842870072E+02  0.23866098895E+03  0.26513700876E+03  0.00000000000E+00 0. -1.
         21    1    1    2  504  503 -0.12647062806E+03  0.11138495710E+03 -0.58410815619E+03  0.60793401497E+03  0.00000000000E+00 0. -1.
         21    1    1    2  505  506  0.15051480526E+03 -0.35395315549E+02 -0.60934892313E+02  0.16619445257E+03  0.00000000000E+00 0.  1.
         21    1    1    2  506  502 -0.10936154556E+03  0.18532285248E+01 -0.84338585605E+03  0.85044875465E+03  0.00000000000E+00 0. -1.
<scales pt_clust_3="113.99795" pt_clust_4="200.67818" pt_clust_5="14000.00000" pt_clust_6="109.37725"></scales>
<clustering>
<clus scale="  109.377">  2  6  1 -1</clus>
<clus scale="  113.998">  1  3  2 -1</clus>
<clus scale="  200.678">  2  4  1 -1</clus>
<clus scale="  113.998">  1  3  2 -1</clus>
</clustering>
</event>
<event>
 6    0  0.1344929E+003  0.9806807E+02  0.7546771E-02  0.1284412E+00
         21   -1    0    0  506  501  0.00000000000E+00  0.00000000000E+00  0.54634905367E+02  0.54634905367E+02  0.00000000000E+00 0. -1.
         21   -1    0    0  505  502 -0.00000000000E+00 -0.00000000000E+00 -0.20232101981E+04  0.20232101981E+04  0.00000000000E+00 0. -1.
         21    1    1    2  503  501  0.65998894129E+01 -0.47282104983E+02 -0.37028200204E+02  0.60417245900E+02  0.00000000000E+00 0. -1.
         21    1    1    2  504  502 -0.43075269769E+02 -0.52764108170E+02 -0.10603457485E+04  0.10625312402E+04  0.00000000000E+00 0. -1.
         21    1    1    2  505  503  0.62894392614E+02  0.15003640946E+03 -0.88238706792E+03  0.89725891827E+03  0.00000000000E+00 0. -1.
         21    1    1    2  506  504 -0.26419012258E+02 -0.49990196306E+02  0.11185723935E+02  0.57637699081E+02  0.00000000000E+00 0. -1.
<scales pt_clust_3="47.74051" pt_clust_4="68.94572" pt_clust_5="14000.00000" pt_clust_6="98.06807"></scales>
<clustering>
<clus scale="   47.741">  1  3  2 -1</clus>
<clus scale="   68.946">  2  4  1 -1</clus>
<clus scale="   98.068">  1  6  2 -1</clus>
<clus scale="   47.741">  1  3  2 -1</clus>
</clustering>
</event>
<event>
 6    0  0.1344929E+003  0.9489450E+02  0.7546771E-02  0.1291414E+00
         21   -1    0    0  502  501  0.00000000000E+00  0.00000000000E+00  0.71434468696E+03  0.71434468696E+03  0.00000000000E+00 0. -1.
         21   -1    0    0  503  502 -0.00000000000E+00 -0.00000000000E+00 -0.53036676962E+03  0.53036676962E+03  0.00000000000E+00 0. -1.
         21    1    1    2  503  506 -0.10920507671E+02 -0.95293638642E+02 -0.46434226503E+03  0.47414541456E+03  0.00000000000E+00 0. -1.
         21    1    1    2  504  501  0.56766655425E+02 -0.57831349530E+01  0.46791738973E+03  0.47138368813E+03  0.00000000000E+00 0. -1.
         21    1    1    2  505  504 -0.11234714404E+03  0.27229361421E+02  0.16055682307E+03  0.19784289811E+03  0.00000000000E+00 0. -1.
         21    1    1    2  506  505  0.66500996285E+02  0.73847412175E+02  0.19845969556E+02  0.10133945579E+03  0.00000000000E+00 0. -1.
<scales pt_clust_3="14000.00000" pt_clust_4="57.06048" pt_clust_5="74.41615" pt_clust_6="94.89450"></scales>
<clustering>
<clus scale="   57.060">  1  4  2 -1</clus>
<clus scale="   74.416">  1  5  2 -1</clus>
<clus scale="   94.894">  1  6  2 -1</clus>
<clus scale="   57.060">  1  3  2 -1</clus>
</clustering>
</event>
<event>
 6    0  0.1344929E+003  0.1131021E+03  0.7546771E-02  0.1254931E+00
         21   -1    0    0  503  501  0.00000000000E+00  0.00000000000E+00  0.70709366493E+03  0.70709366493E+03  0.00000000000E+00 0. -1.
         21   -1    0    0  504  502 -0.00000000000E+00 -0.00000000000E+00 -0.48152384852E+03  0.48152384852E+03  0.00000000000E+00 0. -1.
         21    1    1    2  503  502 -0.13842305666E+02 -0.59270683106E+02  0.20191139703E+03  0.21088583535E+03  0.00000000000E+00 0. -1.
         21    1    1    2  504  505  0.22694705709E+02 -0.25719302022E+02 -0.73669966104E+02  0.81263743881E+02  0.00000000000E+00 0. -1.
         21    1    1    2  505  506 -0.80119328596E+02 -0.70610387419E+02 -0.37719662714E+03  0.39202325078E+03  0.00000000000E+00 0. -1.
         21    1    1    2  506  501  0.71266928553E+02  0.15560037255E+03  0.47452501263E+03  0.50444468344E+03  0.00000000000E+00 0. -1.
<scales pt_clust_3="61.08723" pt_clust_4="34.30061" pt_clust_5="113.10213" pt_clust_6="14000.00000"></scales>
<clustering>
<clus scale="   34.301">  2  4  1 -1</clus>
<clus scale="   61.087">  1  3  2 -1</clus>
<clus scale="  113.102">  2  5  1 -1</clus>
<clus scale="   61.087">  1  3  2 -1</clus>
</clustering>
</event>
<event>
 6    0  0.1344929E+003  0.1214296E+03  0.7546771E-02  0.1240757E+00
         21   -1    0    0  505  501  0.00000000000E+00  0.00000000000E+00  0.84368824494E+03  0.84368824494E+03  0.00000000000E+00 0. -1.
         21   -1    0    0  503  502 -0.00000000000E+00 -0.00000000000E+00 -0.28353096273E+03  0.28353096273E+03  0.00000000000E+00 0. -1.
         21    1    1    2  503  501  0.92197011454E+02 -0.84907818888E+02 -0.23194472562E+03  0.26364366552E+03  0.00000000000E+00 0. -1.
         21    1    1    2  504  506 -0.53020730064E+02  0.37493916330E+02  0.21055025182E+03  0.22033701487E+03  0.00000000000E+00 0. -1.
         21    1    1    2  505  504  0.51789157178E+02 -0.84290013219E-02  0.52211897951E+03  0.52468118475E+03  0.00000000000E+00 0. -1.
         21    1    1    2  506  502 -0.90965438568E+02  0.47422331558E+02  0.59432776490E+02  0.11855734252E+03  0.00000000000E+00 0. -1.
<scales pt_clust_3="14000.00000" pt_clust_4="41.66585" pt_clust_5="51.78916" pt_clust_6="121.42959"></scales>
<clustering>
<clus scale="   51.789">  1  5  2 -1</clus>
<clus scale="   41.666">  1  4  2 -1</clus>
<clus scale="  121.430">  1  6  2 -1</clus>
<clus scale="   51.789">  1  3  2 -1</clus>
</clustering>
</event>
<event>
 6    0  0.1344929E+003  0.1013515E+03  0.7546771E-02  0.1277479E+00
         21   -1    0    0  504  501  0.00000000000E+00  0.00000000000E+00  0.12409187181E+03  0.12409187181E+03  0.00000000000E+00 0. -1.
         21   -1    0    0  503  502 -0.00000000000E+00 -0.00000000000E+00 -0.79893138343E+03  0.79893138343E+03  0.00000000000E+00 0.  1.
         21    1    1    2  503  505  0.12231892054E+01  0.58415247816E+02 -0.50111806291E+03  0.50451278512E+03  0.00000000000E+00 0.  1.
         21    1    1    2  504  506 -0.31753717821E+02  0.17283675620E+02  0.35831309277E+02  0.50900950511E+02  0.00000000000E+00 0. -1.
         21    1    1    2  505  501  0.72970778796E+02  0.22289072529E+02 -0.24380618011E+03  0.25546622237E+03  0.00000000000E+00 0.  1.
         21    1    1    2  506  502 -0.42440250180E+02 -0.97987995965E+02  0.34253422123E+02  0.11214329724E+03  0.00000000000E+00 0. -1.
<scales pt_clust_3="58.78128" pt_clust_4="36.15279" pt_clust_5="101.35152" pt_clust_6="14000.00000"></scales>
<clustering>
<clus scale="   36.153">  1  4  2 -1</clus>
<clus scale="   58.781">  2  3  1 -1</clus>
<clus scale="  101.352">  2  5  1 -1</clus>
<clus scale="   36.153">  1  3  2 -1</clus>
</clustering>
</event>
<event>
 6    0  0.1344929E+003  0.1791696E+03  0.7546771E-02  0.1168609E+00
         21   -1    0    0  505  501  0.00000000000E+00  0.00000000000E+00  0.21168955613E+04  0.21168955613E+04  0.00000000000E+00 0.  1.
         21   -1    0    0  504  502 -0.00000000000E+00 -0.00000000000E+00 -0.15568305000E+03  0.15568305000E+03  0.00000000000E+00 0. -1.
         21    1    1    2  503  502 -0.40645147276E+02 -0.28457087686E+02  0.68891036816E+01  0.50092849652E+02  0.00000000000E+00 0.  1.
         21    1    1    2  504  506  0.21372993968E+03 -0.24732432755E+02 -0.38080989333E+02  0.21850021074E+03  0.00000000000E+00 0. -1.
         21    1    1    2  505  503 -0.40801849569E+02 -0.73864097358E+01  0.10115158204E+04  0.10123653515E+04  0.00000000000E+00 0.  1.
         21    1    1    2  506  501 -0.13228294283E+03  0.60575930177E+02  0.98088857657E+03  0.99162019944E+03  0.00000000000E+00 0.  1.
<scales pt_clust_3="50.58991" pt_clust_4="179.16962" pt_clust_5="41.46505" pt_clust_6="14000.00000"></scales>
<clustering>
<clus scale="   41.465">  1  5  2 -1</clus>
<clus scale="   50.590">  2  3  1 -1</clus>
<clus scale="  179.170">  2  4  1 -1</clus>
<clus scale="   41.465">  1  3  2 -1</clus>
</clustering>
</event>
<event>
 6    0  0.1344929E+003  0.8775321E+02  0.7546771E-02  0.1308386E+00
         21   -1    0    0  503  501  0.00000000000E+00  0.00000000000E+00  0.60693179923E+02  0.60693179923E+02  0.00000000000E+00 0. -1.
         21   -1    0    0  504  502 -0.00000000000E+00 -0.00000000000E+00 -0.44733456043E+03  0.44733456043E+03  0.00000000000E+00 0. -1.
         21    1    1    2  503  506 -0.10645490736E+03 -0.21715039502E+01 -0.82644784627E+02  0.13478695470E+03  0.00000000000E+00 0. -1.
         21    1    1    2  504  505 -0.19275899094E+01  0.48237680741E+02 -0.14828993993E+02  0.50502361419E+02  0.00000000000E+00 0. -1.
         21    1    1    2  505  501  0.39834248909E+02  0.87697735826E+01 -0.34687634349E+02  0.53543517736E+02  0.00000000000E+00 0.  1.
         21    1    1    2  506  502  0.68548248363E+02 -0.54835950373E+02 -0.25447996753E+03  0.26919490649E+03  0.00000000000E+00 0. -1.
<scales pt_clust_3="14000.00000" pt_clust_4="52.65858" pt_clust_5="40.78819" pt_clust_6="87.75321"></scales>
<clustering>
<clus scale="   40.788">  1  5  2 -1</clus>
<clus scale="   52.659">  1  4  2 -1</clus>
<clus scale="   87.753">  2  6  1 -1</clus>
<clus scale="   40.788">  1  3  2 -1</clus>
</clustering>
</event>
<event>
 6    0  0.1344929E+003  0.1312116E+03  0.7546771E-02  0.1225669E+00
         21   -1    0    0  505  501  0.00000000000E+00  0.00000000000E+00  0.26664361511E+03  0.26664361511E+03  0.00000000000E+00 0. -1.
         21   -1    0    0  504  502 -0.00000000000E+00 -0.00000000000E+00 -0.21635439354E+04  0.21635439354E+04  0.00000000000E+00 0. -1.
         21    1    1    2  503  501  0.21617173520E+03  0.50493272089E+02  0.14735357752E+03  0.26644486565E+03  0.00000000000E+00 0. -1.
         21    1    1    2  504  503  0.23441971912E+02 -0.62810876152E+02 -0.16029838023E+04  0.16043851790E+04  0.00000000000E+00 0. -1.
         21    1    1    2  505  506 -0.94810182529E+02 -0.29253231384E+02 -0.67362555046E+01  0.99448978857E+02  0.00000000000E+00 0. -1.
         21    1    1    2  506  502 -0.14480352458E+03  0.41570835447E+02 -0.43453384000E+03  0.45990852698E+03  0.00000000000E+00 0. -1.
<scales pt_clust_3="131.21156" pt_clust_4="67.04276" pt_clust_5="99.05605" pt_clust_6="14000.00000"></scales>
<clustering>
<clus scale="   67.043">  2  4  1 -1</clus>
<clus scale="   99.056">  1  5  2 -1</clus>
<clus scale="  131.212">  1  3  2 -1</clus>
<clus scale="   99.056">  1  3  2 -1</clus>
</clustering>
</event>
<event>
 6    0  0.1344929E+003  0.8165336E+02  0.7546771E-02  0.1324424E+00
         21   -1    0    0  502  501  0.00000000000E+00  0.00000000000E+00  0.20591383695E+04  0.20591383695E+04  0.00000000000E+00 0.  1.
         21   -1    0    0  504  502 -0.00000000000E+00 -0.00000000000E+00 -0.43046890587E+02  0.43046890587E+02  0.00000000000E+00 0.  1.
         21    1    1    2  503  501 -0.12519276062E+01  0.30524633081E+02  0.57508708344E+03  0.57589797195E+03  0.00000000000E+00 0.  1.
         21    1    1    2  504  506 -0.75339149835E+02 -0.24450027941E+02  0.71245477867E+01  0.79527042855E+02  0.00000000000E+00 0.  1.
         21    1    1    2  505  503 -0.41290278547E+02 -0.15323322821E+02  0.84386783475E+03  0.84501633940E+03  0.00000000000E+00 0.  1.
         21    1    1    2  506  505  0.11788135599E+03  0.92487176815E+01  0.59001201297E+03  0.60174390593E+03  0.00000000000E+00 0.  1.
<scales pt_clust_3="30.55030" pt_clust_4="14000.00000" pt_clust_5="42.05284" pt_clust_6="81.65336"></scales>
<clustering>
<clus scale="   30.550">  1  3  2 -1</clus>
<clus scale="   42.053">  1  5  2 -1</clus>
<clus scale="   81.653">  1  6  2 -1</clus>
<clus scale="   30.550">  1  3  2 -1</clus>
</clustering>
</event>
<event>
 6    0  0.1344929E+003  0.1183562E+03  0.7546771E-02  0.1245834E+00
         21   -1    0    0  504  501  0.00000000000E+00  0.00000000000E+00  0.54021876821E+03  0.54021876821E+03  0.00000000000E+00 0. -1.
         21   -1    0    0  503  502 -0.00000000000E+00 -0.00000000000E+00 -0.15053861386E+03  0.15053861386E+03  0.00000000000E+00 0. -1.
         21    1    1    2  503  506  0.76471032889E+02  0.10282071150E+03 -0.58848374147E+02  0.14100726479E+03  0.00000000000E+00 0. -1.
         21    1    1    2  504  502  0.79794740399E+01 -0.11852521829E+03  0.38896532092E+02  0.12499935834E+03  0.00000000000E+00 0. -1.
         21    1    1    2  505  501 -0.38081309026E+02 -0.85608145743E+01  0.30772958052E+03  0.31019504891E+03  0.00000000000E+00 0. -1.
         21    1    1    2  506  505 -0.46369197902E+02  0.24265321366E+02  0.10190241589E+03  0.11455571003E+03  0.00000000000E+00 0. -1.
<scales pt_clust_3="118.35618" pt_clust_4="14000.00000" pt_clust_5="39.03170" pt_clust_6="67.31240"></scales>
<clustering>
<clus scale="   39.032">  1  5  2 -1</clus>
<clus scale="   67.312">  1  6  2 -1</clus>
<clus scale="  118.356">  2  3  1 -1</clus>
<clus scale="   39.032">  1  3  2 -1</clus>
</clustering>
</event>
<event>
 6    0  0.1344929E+003  0.1618933E+03  0.7546771E-02  0.1186576E+00
         21   -1    0    0  506  501  0.00000000000E+00  0.00000000000E+00  0.12061106347E+03  0.12061106347E+03  0.00000000000E+00 0.  1.
         21   -1    0    0  503  502 -0.00000000000E+00 -0.00000000000E+00 -0.85733256174E+03  0.85733256174E+03  0.00000000000E+00 0.  1.
         21    1    1    2  503  505 -0.17019788482E+03  0.19082407718E+02 -0.65236955365E+03  0.67447571699E+03  0.00000000000E+00 0.  1.
         21    1    1    2  504  501  0.10049699594E+03  0.64180689956E+02 -0.80452992885E+02  0.14384537261E+03  0.00000000000E+00 0.  1.
         21    1    1    2  505  504  0.10087863882E+03 -0.58123848638E+02  0.10879222799E+02  0.11693262607E+03  0.00000000000E+00 0.  1.
         21    1    1    2  506  502 -0.31177749945E+02 -0.25139249036E+02 -0.14778174531E+02  0.42689909536E+02  0.00000000000E+00 0.  1.
<scales pt_clust_3="14000.00000" pt_clust_4="107.42055" pt_clust_5="161.89330" pt_clust_6="40.05039"></scales>
<clustering>
<clus scale="   40.050">  1  6  2 -1</clus>
<clus scale="  107.421">  1  4  2 -1</clus>
<clus scale="  161.893">  1  5  2 -1</clus>
<clus scale="   40.050">  1  3  2 -1</clus>
</clustering>
</event>
<event>
 6    0  0.1344929E+003  0.8871539E+02  0.7546771E-02  0.1305993E+00
         21   -1    0    0  506  501  0.00000000000E+00  0.00000000000E+00  0.44967636634E+03  0.44967636634E+03  0.00000000000E+00 0.  1.
         21   -1    0    0  501  502 -0.00000000000E+00 -0.00000000000E+00 -0.64804235444E+02  0.64804235444E+02  0.00000000000E+00 0. -1.
         21    1    1    2  503  505 -0.71086240499E+02  0.93575391661E+02  0.62176316400E+02  0.13294924533E+03  0.00000000000E+00 0. -1.
         21    1    1    2  504  502  0.34529751092E+02  0.22629487257E+02  0.33228856077E+02  0.52995794929E+02  0.00000000000E+00 0.  1.
         21    1    1    2  505  504  0.30118178361E+02 -0.30343508026E+02  0.23092827146E+02  0.48591273009E+02  0.00000000000E+00 0.  1.
         21    1    1    2  506  503  0.64383110454E+01 -0.85861370892E+02  0.26637413128E+03  0.27994428852E+03  0.00000000000E+00 0.  1.
<scales pt_clust_3="14000.00000" pt_clust_4="41.28435" pt_clust_5="45.64774" pt_clust_6="88.71539"></scales>
<clustering>
<clus scale="   41.284">  2  4  1 -1</clus>
<clus scale="   45.648">  2  5  1 -1</clus>
<clus scale="   88.715">  1  6  2 -1</clus>
<clus scale="   88.715">  1  3  2 -1</clus>
</clustering>
</event>
<event>
 6    0  0.1344929E+003  0.9079964E+02  0.7546771E-02  0.1300927E+00
         21   -1    0    0  506  501  0.00000000000E+00  0.00000000000E+00  0.80530783320E+03  0.80530783320E+03  0.00000000000E+00 0. -1.
         21   -1    0    0  505  502 -0.00000000000E+00 -0.00000000000E+00 -0.14959785562E+03  0.14959785562E+03  0.00000000000E+00 0.  1.
         21    1    1    2  503  502  0.30363271514E+02  0.17414533963E+02 -0.35513075972E+02  0.49863541944E+02  0.00000000000E+00 0. -1.
         21    1    1    2  504  503 -0.43474519706E+02 -0.43078741358E+02 -0.82567677455E+02  0.10277759085E+03  0.00000000000E+00 0.  1.
         21    1    1    2  505  501  0.45997705307E+02 -0.73718123632E+02  0.52812286543E+03  0.53522323533E+03  0.00000000000E+00 0. -1.
         21    1    1    2  506  504 -0.32886457116E+02  0.99382331028E+02  0.24566786558E+03  0.26704132070E+03  0.00000000000E+00 0.  1.
<scales pt_clust_3="35.00277" pt_clust_4="32.82294" pt_clust_5="14000.00000" pt_clust_6="90.79964"></scales>
<clustering>
<clus scale="   35.003">  2  3  1 -1</clus>
<clus scale="   32.823">  2  4  1 -1</clus>
<clus scale="   90.800">  2  6  1 -1</clus>
<clus scale="   90.800">  1  3  2 -1</clus>
</clustering>
</event>
<event>
 6    0  0.1344929E+003  0.7560797E+02  0.7546771E-02  0.1341999E+00
         21   -1    0    0  506  501  0.00000000000E+00  0.00000000000E+00  0.70481190124E+03  0.70481190124E+03  0.00000000000E+00 0.  1.
         21   -1    0    0  505  502 -0.00000000000E+00 -0.00000000000E+00 -0.18217157080E+03  0.18217157080E+03  0.00000000000E+00 0.  1.
         21    1    1    2  503  501  0.24244174736E+02  0.34755992258E+02  0.46880055212E+03  0.47071192536E+03  0.00000000000E+00 0.  1.
         21    1    1    2  504  502 -0.60303992101E+02 -0.13912481519E+02 -0.13103896731E+02  0.63260103659E+02  0.00000000000E+00 0.  1.
         21    1    1    2  505  503  0.10825695492E+03 -0.43972229875E+02 -0.11002067476E+03  0.16049197538E+03  0.00000000000E+00 0.  1.
         21    1    1    2  506  504 -0.72197137552E+02  0.23128719135E+02  0.17696434980E+03  0.19251946763E+03  0.00000000000E+00 0.  1.
<scales pt_clust_3="42.37640" pt_clust_4="58.61250" pt_clust_5="14000.00000" pt_clust_6="75.60797"></scales>
<clustering>
<clus scale="   42.376">  1  3  2 -1</clus>
<clus scale="   58.612">  2  4  1 -1</clus>
<clus scale="   75.608">  1  6  2 -1</clus>
<clus scale="   42.376">  1  3  2 -1</clus>
</clustering>
</event>
<event>
 6    0  0.1344929E+003  0.8382502E+02  0.7546771E-02  0.1318534E+00
         21   -1    0    0  503  501  0.00000000000E+00  0.00000000000E+00  0.15440607873E+04  0.15440607873E+04  0.00000000000E+00 0.  1.
         21   -1    0    0  505  502 -0.00000000000E+00 -0.00000000000E+00 -0.69533540289E+02  0.69533540289E+02  0.00000000000E+00 0.  1.
         21    1    1    2  503  506  0.36127511590E+02 -0.92891513832E+01  0.90199177442E+03  0.90276278531E+03  0.00000000000E+00 0.  1.
         21    1    1    2  504  502  0.76385797207E+02 -0.32881233882E+02 -0.31861379954E+02  0.89056796984E+02  0.00000000000E+00 0.  1.
         21    1    1    2  505  501 -0.11891158739E+02  0.42699495076E+02  0.22040830296E+03  0.22482096555E+03  0.00000000000E+00 0.  1.
         21    1    1    2  506  504 -0.10062215006E+03 -0.52910981146E+00  0.38398854957E+03  0.39695377972E+03  0.00000000000E+00 0.  1.
<scales pt_clust_3="37.30262" pt_clust_4="83.82502" pt_clust_5="39.48210" pt_clust_6="14000.00000"></scales>
<clustering>
<clus scale="   37.303">  1  3  2 -1</clus>
<clus scale="   39.482">  1  5  2 -1</clus>
<clus scale="   83.825">  2  4  1 -1</clus>
<clus scale="   37.303">  1  3  2 -1</clus>
</clustering>
</event>
<event>
 6    0  0.1344929E+003  0.9969881E+02  0.7546771E-02  0.1280931E+00
         21   -1    0    0  505  501  0.00000000000E+00  0.00000000000E+00  0.95004082655E+03  0.95004082655E+03  0.00000000000E+00 0. -1.
         21   -1    0    0  506  502 -0.00000000000E+00 -0.00000000000E+00 -0.28051090430E+03  0.28051090430E+03  0.00000000000E+00 0. -1.
         21    1    1    2  503  504 -0.31585993493E+02  0.56719832796E+02  0.14033481683E+03  0.15462430350E+03  0.00000000000E+00 0. -1.
         21    1    1    2  504  501  0.47202324020E+02  0.15164566513E+02  0.74583703280E+03  0.74748304527E+03  0.00000000000E+00 0. -1.
         21    1    1    2  505  502 -0.15076289245E+00  0.82849846710E+02 -0.11839138170E+03  0.14450134633E+03  0.00000000000E+00 0. -1.
         21    1    1    2  506  503 -0.15465567635E+02 -0.15473424602E+03 -0.98250545685E+02  0.18394303575E+03  0.00000000000E+00 0. -1.
<scales pt_clust_3="67.76780" pt_clust_4="49.57846" pt_clust_5="99.69881" pt_clust_6="14000.00000"></scales>
<clustering>
<clus scale="   49.578">  1  4  2 -1</clus>
<clus scale="   67.768">  1  3  2 -1</clus>
<clus scale="   99.699">  2  5  1 -1</clus>
<clus scale="   49.578">  1  3  2 -1</clus>
</clustering>
</event>
<event>
 6    0  0.1344929E+003  0.1293994E+03  0.7546771E-02  0.1228350E+00
         21   -1    0    0  505  501  0.00000000000E+00  0.00000000000E+00  0.16546280562E+03  0.16546280562E+03  0.00000000000E+00 0. -1.
         21   -1    0    0  504  502 -0.00000000000E+00 -0.00000000000E+00 -0.50294716108E+03  0.50294716108E+03  0.00000000000E+00 0. -1.
         21    1    1    2  503  502 -0.41074309361E+02  0.28061052826E+02 -0.35595430384E+03  0.35941339429E+03  0.00000000000E+00 0. -1.
         21    1    1    2  504  501  0.15137082376E+03 -0.34129226804E+02 -0.58822036593E+02  0.16594566097E+03  0.00000000000E+00 0. -1.
         21    1    1    2  505  506 -0.53908096807E+02 -0.13527016026E+00  0.65985141335E+02  0.85206455603E+02  0.00000000000E+00 0. -1.
         21    1    1    2  506  503 -0.56388417590E+02  0.62034441384E+01  0.11306843634E+02  0.57844455832E+02  0.00000000000E+00 0. -1.
<scales pt_clust_3="49.74456" pt_clust_4="120.23658" pt_clust_5="46.62240" pt_clust_6="46.62240"></scales>
<clustering>
<clus scale="   46.622">  5  6 -1 -1</clus>
<clus scale="   49.745">  2  3  1 -1</clus>
<clus scale="  120.237">  2  4  1 -1</clus>
<clus scale="  129.399">  1  3  2 -1</clus>
</clustering>
</event>
<event>
 6    0  0.1344929E+003  0.1793666E+03  0.7546771E-02  0.1168417E+00
         21   -1    0    0  505  501  0.00000000000E+00  0.00000000000E+00  0.14031554817E+04  0.14031554817E+04  0.00000000000E+00 0. -1.
         21   -1    0    0  506  502 -0.00000000000E+00 -0.00000000000E+00 -0.98747781187E+02  0.98747781187E+02  0.00000000000E+00 0. -1.
         21    1    1    2  503  501 -0.43814523466E+02 -0.44402843879E+02  0.59316144884E+03  0.59643258579E+03  0.00000000000E+00 0. -1.
         21    1    1    2  504  502  0.46063875949E+02  0.49258294558E+02  0.39441391755E+02  0.78127355220E+02  0.00000000000E+00 0. -1.
         21    1    1    2  505  504 -0.87760470779E+02  0.16434149700E+03  0.59380589614E+03  0.62234674431E+03  0.00000000000E+00 0. -1.
         21    1    1    2  506  503  0.85511118296E+02 -0.16919694768E+03  0.77998963771E+02  0.20499657755E+03  0.00000000000E+00 0. -1.
<scales pt_clust_3="62.38049" pt_clust_4="62.90619" pt_clust_5="179.36656" pt_clust_6="14000.00000"></scales>
<clustering>
<clus scale="   62.380">  1  3  2 -1</clus>
<clus scale="   62.906">  2  4  1 -1</clus>
<clus scale="  179.367">  1  5  2 -1</clus>
<clus scale="   62.380">  1  3  2 -1</clus>
</clustering>
</event>
<event>
 6    0  0.1344929E+003  0.7425139E+02  0.7546771E-02  0.1346205E+00
         21   -1    0    0  506  501  0.00000000000E+00  0.00000000000E+00  0.12754942954E+03  0.12754942954E+03  0.00000000000E+00 0. -1.
         21   -1    0    0  504  502 -0.00000000000E+00 -0.00000000000E+00 -0.35472072622E+03  0.35472072622E+03  0.00000000000E+00 0. -1.
         21    1    1    2  503  502  0.35996282373E+02 -0.35165637226E+02 -0.15152349768E+03  0.15966128126E+03  0.00000000000E+00 0. -1.
         21    1    1    2  504  505 -0.14692746863E+02 -0.28729544656E+02 -0.88204355854E+02  0.93921626574E+02  0.00000000000E+00 0. -1.
         21    1    1    2  505  501  0.61561778666E+02 -0.28399056539E+02  0.65090714336E+02  0.93984892923E+02  0.00000000000E+00 0. -1.
         21    1    1    2  506  503 -0.82865314175E+02  0.92294238422E+02 -0.52534157487E+02  0.13470235500E+03  0.00000000000E+00 0. -1.
<scales pt_clust_3="58.84867" pt_clust_4="32.26862" pt_clust_5="14000.00000" pt_clust_6="74.25139"></scales>
<clustering>
<clus scale="   32.269">  2  4  1 -1</clus>
<clus scale="   58.849">  2  3  1 -1</clus>
<clus scale="   74.251">  2  6  1 -1</clus>
<clus scale="   74.251">  1  3  2 -1</clus>
</clustering>
</event>
<event>
 6    0  0.1344929E+003  0.8818845E+02  0.7546771E-02  0.1307299E+00
         21   -1    0    0  506  501  0.00000000000E+00  0.00000000000E+00  0.40688288519E+03  0.40688288519E+03  0.00000000000E+00 0.  1.
         21   -1    0    0  504  502 -0.00000000000E+00 -0.00000000000E+00 -0.19022589140E+03  0.19022589140E+03  0.00000000000E+00 0.  1.
         21    1    1    2  503  501  0.52403869138E+02 -0.28342959693E+01  0.23489755066E+03  0.24068871606E+03  0.00000000000E+00 0.  1.
         21    1    1    2  504  505 -0.19383778918E+02 -0.10490602125E+03 -0.10017440093E+03  0.14634177388E+03  0.00000000000E+00 0.  1.
         21    1    1    2  505  503 -0.16419790345E+01  0.78361244514E+02  0.12608331471E+03  0.14845936476E+03  0.00000000000E+00 0.  1.
         21    1    1    2  506  502 -0.31378111186E+02  0.29379072710E+02 -0.44149470656E+02  0.61618921883E+02  0.00000000000E+00 0.  1.
<scales pt_clust_3="51.78971" pt_clust_4="88.18845" pt_clust_5="14000.00000" pt_clust_6="42.98506"></scales>
<clustering>
<clus scale="   42.985">  2  6  1 -1</clus>
<clus scale="   51.790">  1  3  2 -1</clus>
<clus scale="   88.188">  2  4  1 -1</clus>
<clus scale="   51.790">  1  3  2 -1</clus>
</clustering>
</event>
<event>
 6    0  0.1344929E+003  0.8355696E+02  0.7546771E-02  0.1319250E+00
         21   -1    0    0  506  501  0.00000000000E+00  0.00000000000E+00  0.36890705753E+03  0.36890705753E+03  0.00000000000E+00 0.  1.
         21   -1    0    0  504  502 -0.00000000000E+00 -0.00000000000E+00 -0.66328442086E+03  0.66328442086E+03  0.00000000000E+00 0.  1.
         21    1    1    2  503  501 -0.10668440921E+02 -0.35153759267E+02  0.24107263262E+03  0.24385572911E+03  0.00000000000E+00 0.  1.
         21    1    1    2  504  505 -0.46537271066E+02  0.12961781239E+02 -0.17512113197E+03  0.18166214860E+03  0.00000000000E+00 0.  1.
         21    1    1    2  505  503 -0.72051121216E+02  0.35184169190E+02  0.10010819189E+03  0.12826121750E+03  0.00000000000E+00 0.  1.
         21    1    1    2  506  502  0.12925683320E+03 -0.12992191163E+02 -0.46043705587E+03  0.47841238318E+03  0.00000000000E+00 0.  1.
<scales pt_clust_3="36.73694" pt_clust_4="48.33984" pt_clust_5="83.55696" pt_clust_6="14000.00000"></scales>
<clustering>
<clus scale="   36.737">  1  3  2 -1</clus>
<clus scale="   48.340">  2  4  1 -1</clus>
<clus scale="   83.557">  1  5  2 -1</clus>
<clus scale="   36.737">  1  3  2 -1</clus>
</clustering>
</event>
<event>
 6    0  0.1344929E+003  0.1241703E+03  0.7546771E-02  0.1236372E+00
         21   -1    0    0  505  501  0.00000000000E+00  0.00000000000E+00  0.35378512472E+03  0.35378512472E+03  0.00000000000E+00 0. -1.
         21   -1    0    0  501  502 -0.00000000000E+00 -0.00000000000E+00 -0.27499170830E+03  0.27499170830E+03  0.00000000000E+00 0.  1.
         21    1    1    2  503  504 -0.23943995172E+02  0.48688425939E+02  0.11143040610E+03  0.12393794064E+03  0.00000000000E+00 0. -1.
         21    1    1    2  504  506  0.17632250876E+02  0.61893933593E+02  0.13695732376E+03  0.15132436624E+03  0.00000000000E+00 0. -1.
         21    1    1    2  505  503  0.31914945770E+02  0.37695226224E+01  0.75385996146E+02  0.81950115797E+02  0.00000000000E+00 0. -1.
         21    1    1    2  506  502 -0.25603201474E+02 -0.11435188215E+03 -0.24498030960E+03  0.27156441035E+03  0.00000000000E+00 0.  1.
<scales pt_clust_3="35.74330" pt_clust_4="35.74330" pt_clust_5="32.13679" pt_clust_6="116.67767"></scales>
<clustering>
<clus scale="   32.137">  1  5  2 -1</clus>
<clus scale="   35.743">  3  4 -1 -1</clus>
<clus scale="  116.678">  2  6  1 -1</clus>
<clus scale="   32.137">  1  3  2 -1</clus>
</clustering>
</event>
<event>
 6    0  0.1344929E+003  0.9782160E+02  0.7546771E-02  0.1284945E+00
         21   -1    0    0  506  501  0.00000000000E+00  0.00000000000E+00  0.78752966899E+03  0.78752966899E+03  0.00000000000E+00 0.  1.
         21   -1    0    0  505  502 -0.00000000000E+00 -0.00000000000E+00 -0.21696227866E+03  0.21696227866E+03  0.00000000000E+00 0. -1.
         21    1    1    2  503  501 -0.24924325772E+02 -0.44648985079E+02 -0.35887483554E+01  0.51260442824E+02  0.00000000000E+00 0. -1.
         21    1    1    2  504  502 -0.47328745435E+02  0.31849096643E+02  0.27091033955E+02  0.63152982687E+02  0.00000000000E+00 0. -1.
         21    1    1    2  505  503 -0.27847981829E+02 -0.22797834719E+02 -0.16563667331E+03  0.16950150119E+03  0.00000000000E+00 0. -1.
         21    1    1    2  506  504  0.10010105304E+03  0.35597723154E+02  0.71270177804E+03  0.72057702096E+03  0.00000000000E+00 0.  1.
<scales pt_clust_3="97.82160" pt_clust_4="62.12200" pt_clust_5="35.98960" pt_clust_6="14000.00000"></scales>
<clustering>
<clus scale="   35.990">  2  5  1 -1</clus>
<clus scale="   62.122">  2  4  1 -1</clus>
<clus scale="   97.822">  2  3  1 -1</clus>
<clus scale="   97.822">  1  3  2 -1</clus>
</clustering>
</event>
<event>
 6    0  0.1418800E+003  0.8275204E+02  0.7546771E-02  0.1321418E+00
         21   -1    0    0  503  501  0.00000000000E+00  0.00000000000E+00  0.17851265962E+04  0.17851265962E+04  0.00000000000E+00 0.  1.
         21   -1    0    0  504  502 -0.00000000000E+00 -0.00000000000E+00 -0.46662380238E+03  0.46662380238E+03  0.00000000000E+00 0.  1.
         21    1    1    2  503  502  0.15699179732E+02 -0.37900339993E+02  0.96471101693E+02  0.10483116654E+03  0.00000000000E+00 0.  1.
         21    1    1    2  504  505  0.40255791743E+02 -0.37682610861E+02 -0.45388338749E+03  0.45722055659E+03  0.00000000000E+00 0.  1.
         21    1    1    2  505  506 -0.18929808790E+02  0.11656150405E+03  0.55500273360E+03  0.56742660864E+03  0.00000000000E+00 0.  1.
         21    1    1    2  506  501 -0.37025162685E+02 -0.40978553198E+02  0.11209123460E+04  0.11222720668E+04  0.00000000000E+00 0.  1.
<scales pt_clust_3="41.02316" pt_clust_4="55.17781" pt_clust_5="82.75204" pt_clust_6="14000.00000"></scales>
<clustering>
<clus scale="   41.023">  1  3  2 -1</clus>
<clus scale="   55.178">  2  4  1 -1</clus>
<clus scale="   82.752">  2  5  1 -1</clus>
<clus scale="   41.023">  1  3  2 -1</clus>
</clustering>
</event>
<event>
 6    0  0.1344929E+003  0.9007351E+02  0.7546771E-02  0.1302674E+00
         21   -1    0    0  506  501  0.00000000000E+00  0.00000000000E+00  0.28775410463E+03  0.28775410463E+03  0.00000000000E+00 0.  1.
         21   -1    0    0  503  502 -0.00000000000E+00 -0.00000000000E+00 -0.74287563338E+03  0.74287563338E+03  0.00000000000E+00 0. -1.
         21    1    1    2  503  504  0.22578585729E+02  0.28583205999E+02 -0.31779211787E+03  0.31987282220E+03  0.00000000000E+00 0. -1.
         21    1    1    2  504  501  0.72719947167E+02  0.51906435388E+02 -0.36101115404E+03  0.37190257070E+03  0.00000000000E+00 0. -1.
         21    1    1    2  505  502 -0.37750316215E+02 -0.30244104361E+02 -0.40973920051E+02  0.63392857226E+02  0.00000000000E+00 0. -1.
         21    1    1    2  506  505 -0.57548216682E+02 -0.50245537025E+02  0.26465566321E+03  0.27546148788E+03  0.00000000000E+00 0.  1.
<scales pt_clust_3="30.07719" pt_clust_4="30.07719" pt_clust_5="48.37140" pt_clust_6="76.77445"></scales>
<clustering>
<clus scale="   30.077">  3  4 -1 -1</clus>
<clus scale="   48.371">  2  5  1 -1</clus>
<clus scale="   76.774">  1  6  2 -1</clus>
<clus scale="   76.774">  1  3  2 -1</clus>
</clustering>
</event>
<event>
 6    0  0.1344929E+003  0.9613857E+02  0.7546771E-02  0.1288632E+00
         21   -1    0    0  506  501  0.00000000000E+00  0.00000000000E+00  0.94531665806E+03  0.94531665806E+03  0.00000000000E+00 0. -1.
         21   -1    0    0  504  502 -0.00000000000E+00 -0.00000000000E+00 -0.16955941907E+03  0.16955941907E+03  0.00000000000E+00 0.  1.
         21    1    1    2  503  502 -0.30706771432E+02  0.96067608125E+01 -0.38626392053E+02  0.50271202772E+02  0.00000000000E+00 0. -1.
         21    1    1    2  504  501 -0.29438434299E+02  0.97338612544E+01  0.54114086243E+03  0.54202841481E+03  0.00000000000E+00 0. -1.
         21    1    1    2  505  503  0.22429731287E+02  0.86195329469E+02 -0.99388128409E+02  0.13345683848E+03  0.00000000000E+00 0.  1.
         21    1    1    2  506  505  0.37715474444E+02 -0.10553595154E+03  0.37263089702E+03  0.38911962106E+03  0.00000000000E+00 0. -1.
<scales pt_clust_3="32.62155" pt_clust_4="31.00596" pt_clust_5="96.13857" pt_clust_6="14000.00000"></scales>
<clustering>
<clus scale="   31.006">  1  4  2 -1</clus>
<clus scale="   32.622">  2  3  1 -1</clus>
<clus scale="   96.139">  2  5  1 -1</clus>
<clus scale="   31.006">  1  3  2 -1</clus>
</clustering>
</event>
<event>
 6    0  0.1344929E+003  0.1992618E+03  0.7546771E-02  0.1150363E+00
         21   -1    0    0  503  501  0.00000000000E+00  0.00000000000E+00  0.11739145156E+04  0.11739145156E+04  0.00000000000E+00 0.  1.
         21   -1    0    0  506  502 -0.00000000000E+00 -0.00000000000E+00 -0.24451970097E+03  0.24451970097E+03  0.00000000000E+00 0.  1.
         21    1    1    2  503  504 -0.78958748235E+02 -0.99574095718E+02  0.78701797779E+03  0.79721188013E+03  0.00000000000E+00 0.  1.
         21    1    1    2  504  505  0.10599572447E+03  0.27368161242E+03  0.20740523201E+03  0.35937953315E+03  0.00000000000E+00 0.  1.
         21    1    1    2  505  502  0.33657177471E+02 -0.17225573933E+03 -0.88719893687E+02  0.19666231175E+03  0.00000000000E+00 0.  1.
         21    1    1    2  506  501 -0.60694153702E+02 -0.18517773714E+01  0.23691498494E+02  0.65180491513E+02  0.00000000000E+00 0.  1.
<scales pt_clust_3="127.97698" pt_clust_4="199.26183" pt_clust_5="14000.00000" pt_clust_6="60.72240"></scales>
<clustering>
<clus scale="   60.722">  2  6  1 -1</clus>
<clus scale="  127.977">  1  3  2 -1</clus>
<clus scale="  199.262">  1  4  2 -1</clus>
<clus scale="  127.977">  1  3  2 -1</clus>
</clustering>
</event>
<event>
 6    0  0.1344929E+003  0.1420211E+03  0.7546771E-02  0.1210635E+00
         21   -1    0    0  503  501  0.00000000000E+00  0.00000000000E+00  0.85108233913E+02  0.85108233913E+02  0.00000000000E+00 0. -1.
         21   -1    0    0  504  502 -0.00000000000E+00 -0.00000000000E+00 -0.54025195719E+03  0.54025195719E+03  0.00000000000E+00 0.  1.
         21    1    1    2  503  505  0.10820255467E+03  0.78734068407E+02 -0.49164240724E+02  0.14256215813E+03  0.00000000000E+00 0. -1.
         21    1    1    2  504  501  0.15557341367E+02 -0.29614068324E+02  0.16229880009E+02  0.37181082800E+02  0.00000000000E+00 0. -1.
         21    1    1    2  505  506 -0.41723033473E+02 -0.31821627303E+02 -0.23013773787E+03  0.23604407613E+03  0.00000000000E+00 0.  1.
         21    1    1    2  506  502 -0.82036862565E+02 -0.17298372781E+02 -0.19207162469E+03  0.20957287404E+03  0.00000000000E+00 0. -1.
<scales pt_clust_3="132.61055" pt_clust_4="33.45181" pt_clust_5="40.63432" pt_clust_6="40.63432"></scales>
<clustering>
<clus scale="   33.452">  1  4  2 -1</clus>
<clus scale="   40.634">  5  6 -1 -1</clus>
<clus scale="  132.611">  1  3  2 -1</clus>
<clus scale="   33.452">  1  3  2 -1</clus>
</clustering>
</event>
<event>
 6    0  0.1344929E+003  0.1448069E+03  0.7546771E-02  0.1207003E+00
         21   -1    0    0  504  501  0.00000000000E+00  0.00000000000E+00  0.37530618949E+03  0.37530618949E+03  0.00000000000E+00 0. -1.
         21   -1    0    0  506  502 -0.00000000000E+00 -0.00000000000E+00 -0.24215849068E+03  0.24215849068E+03  0.00000000000E+00 0.  1.
         21    1    1    2  503  505  0.59599942847E+02  0.63878630053E+02  0.14351024979E+03  0.16801138163E+03  0.00000000000E+00 0. -1.
         21    1    1    2  504  503  0.40982701981E+01  0.54909627343E+02  0.17336916191E+03  0.18190307665E+03  0.00000000000E+00 0. -1.
         21    1    1    2  505  502  0.16643918038E+02 -0.65383973406E+02 -0.91499196170E+01  0.68086746251E+02  0.00000000000E+00 0.  1.
         21    1    1    2  506  501 -0.80342131083E+02 -0.53404283990E+02 -0.17458179326E+03  0.19946347564E+03  0.00000000000E+00 0.  1.
<scales pt_clust_3="49.31985" pt_clust_4="49.31985" pt_clust_5="67.46913" pt_clust_6="130.80361"></scales>
<clustering>
<clus scale="   49.320">  3  4 -1 -1</clus>
<clus scale="   67.469">  2  5  1 -1</clus>
<clus scale="  130.804">  2  6  1 -1</clus>
<clus scale="  144.807">  1  3  2 -1</clus>
</clustering>
</event>
<event>
 6    0  0.1344929E+003  0.1425553E+03  0.7546771E-02  0.1209931E+00
         21   -1    0    0  506  501  0.00000000000E+00  0.00000000000E+00  0.10883037337E+04  0.10883037337E+04  0.00000000000E+00 0.  1.
         21   -1    0    0  504  502 -0.00000000000E+00 -0.00000000000E+00 -0.33886325151E+02  0.33886325151E+02  0.00000000000E+00 0.  1.
         21    1    1    2  503  502  0.12917417245E+02 -0.11576005306E+03  0.13778079612E+03  0.18041839522E+03  0.00000000000E+00 0.  1.
         21    1    1    2  504  501  0.26443916207E+02 -0.35453222251E+02  0.20054615560E+03  0.20536546009E+03  0.00000000000E+00 0.  1.
         21    1    1    2  505  503 -0.47178732781E+02  0.10751539335E+03  0.38946878845E+03  0.40678167340E+03  0.00000000000E+00 0.  1.
         21    1    1    2  506  505  0.78173993295E+01  0.43697881967E+02  0.32662166835E+03  0.32962453012E+03  0.00000000000E+00 0.  1.
<scales pt_clust_3="123.40266" pt_clust_4="44.22908" pt_clust_5="43.88500" pt_clust_6="43.88500"></scales>
<clustering>
<clus scale="   43.885">  5  6 -1 -1</clus>
<clus scale="   44.229">  1  4  2 -1</clus>
<clus scale="  123.403">  2  3  1 -1</clus>
<clus scale="   44.229">  1  3  2 -1</clus>
</clustering>
</event>
<event>
 6    0  0.1344929E+003  0.1166102E+03  0.7546771E-02  0.1248796E+00
         21   -1    0    0  505  501  0.00000000000E+00  0.00000000000E+00  0.63576920876E+03  0.63576920876E+03  0.00000000000E+00 0.  1.
         21   -1    0    0  503  502 -0.00000000000E+00 -0.00000000000E+00 -0.19467940604E+04  0.19467940604E+04  0.00000000000E+00 0. -1.
         21    1    1    2  503  501  0.78434150497E+02 -0.10786505184E+02  0.55770478665E+03  0.56329645278E+03  0.00000000000E+00 0.  1.
         21    1    1    2  504  506 -0.77108657020E+02  0.44668807173E+02 -0.11038511596E+03  0.14186585617E+03  0.00000000000E+00 0. -1.
         21    1    1    2  505  504  0.44620122999E+02  0.12443622584E+02  0.49838171157E+02  0.68041475761E+02  0.00000000000E+00 0. -1.
         21    1    1    2  506  502 -0.45945616475E+02 -0.46325924572E+02 -0.18081826935E+04  0.18093594844E+04  0.00000000000E+00 0. -1.
<scales pt_clust_3="14000.00000" pt_clust_4="116.61017" pt_clust_5="46.32277" pt_clust_6="65.20533"></scales>
<clustering>
<clus scale="   46.323">  1  5  2 -1</clus>
<clus scale="   65.205">  2  6  1 -1</clus>
<clus scale="  116.610">  2  4  1 -1</clus>
<clus scale="   46.323">  1  3  2 -1</clus>
</clustering>
</event>
<event>
 6    0  0.1344929E+003  0.1692095E+03  0.7546771E-02  0.1178675E+00
         21   -1    0    0  506  501  0.00000000000E+00  0.00000000000E+00  0.25704442319E+02  0.25704442319E+02  0.00000000000E+00 0. -1.
         21   -1    0    0  503  502 -0.00000000000E+00 -0.00000000000E+00 -0.28729481345E+04  0.28729481345E+04  0.00000000000E+00 0. -1.
         21    1    1    2  503  505 -0.13641590693E+02  0.62466399262E+02 -0.82283827837E+03  0.82531871201E+03  0.00000000000E+00 0. -1.
         21    1    1    2  504  501 -0.64948540754E+02 -0.16148660725E+03 -0.54399860974E+03  0.57116610952E+03  0.00000000000E+00 0. -1.
         21    1    1    2  505  504  0.48740012678E+02  0.89968327956E+02 -0.14627503383E+04  0.14663248075E+04  0.00000000000E+00 0. -1.
         21    1    1    2  506  502  0.29850118770E+02  0.90518800301E+01 -0.17656465749E+02  0.35842947778E+02  0.00000000000E+00 0. -1.
<scales pt_clust_3="44.59728" pt_clust_4="159.32799" pt_clust_5="44.59728" pt_clust_6="31.19240"></scales>
<clustering>
<clus scale="   31.192">  1  6  2 -1</clus>
<clus scale="   44.597">  3  5 -1 -1</clus>
<clus scale="  159.328">  1  4  2 -1</clus>
<clus scale="   31.192">  1  3  2 -1</clus>
</clustering>
</event>
<event>
 6    0  0.1344929E+003  0.9709054E+02  0.7546771E-02  0.1286536E+00
         21   -1    0    0  505  501  0.00000000000E+00  0.00000000000E+00  0.91418121119E+03  0.91418121119E+03  0.00000000000E+00 0.  1.
         21   -1    0    0  503  502 -0.00000000000E+00 -0.00000000000E+00 -0.27400393780E+03  0.27400393780E+03  0.00000000000E+00 0. -1.
         21    1    1    2  503  504 -0.32746104886E+02  0.15563212273E+03 -0.16999827356E+03  0.23279406784E+03  0.00000000000E+00 0. -1.
         21    1    1    2  504  501 -0.61938058441E+02 -0.11410601848E+02  0.51654753701E+03  0.52037283068E+03  0.00000000000E+00 0.  1.
         21    1    1    2  505  506  0.11065279749E+03 -0.64932340785E+02  0.32411345306E+03  0.34858253102E+03  0.00000000000E+00 0.  1.
         21    1    1    2  506  502 -0.15968634167E+02 -0.79289180093E+02 -0.30485443116E+02  0.86435719462E+02  0.00000000000E+00 0. -1.
<scales pt_clust_3="97.09054" pt_clust_4="62.98035" pt_clust_5="14000.00000" pt_clust_6="82.63992"></scales>
<clustering>
<clus scale="   62.980">  1  4  2 -1</clus>
<clus scale="   82.640">  2  6  1 -1</clus>
<clus scale="   97.091">  2  3  1 -1</clus>
<clus scale="   62.980">  1  3  2 -1</clus>
</clustering>
</event>
<event>
 6    0  0.1344929E+003  0.7001019E+02  0.7546771E-02  0.1360058E+00
         21   -1    0    0  505  501  0.00000000000E+00  0.00000000000E+00  0.23974969598E+04  0.23974969598E+04  0.00000000000E+00 0. -1.
         21   -1    0    0  506  502 -0.00000000000E+00 -0.00000000000E+00 -0.10221271200E+03  0.10221271200E+03  0.00000000000E+00 0.  1.
         21    1    1    2  503  502  0.25251289108E+02 -0.83870103455E+02  0.30552069195E+02  0.92764490983E+02  0.00000000000E+00 0.  1.
         21    1    1    2  504  501 -0.22296140532E+02  0.83461124724E+02  0.15311428275E+04  0.15335779196E+04  0.00000000000E+00 0. -1.
         21    1    1    2  505  503  0.40892958028E+02 -0.16560873585E+02  0.79488910089E+03  0.79611254183E+03  0.00000000000E+00 0. -1.
         21    1    1    2  506  504 -0.43848106604E+02  0.16969852316E+02 -0.61299749807E+02  0.77254719382E+02  0.00000000000E+00 0.  1.
<scales pt_clust_3="14000.00000" pt_clust_4="70.01019" pt_clust_5="44.11912" pt_clust_6="46.79769"></scales>
<clustering>
<clus scale="   44.119">  1  5  2 -1</clus>
<clus scale="   46.798">  2  6  1 -1</clus>
<clus scale="   70.010">  1  4  2 -1</clus>
<clus scale="   44.119">  1  3  2 -1</clus>
</clustering>
</event>
<event>
 6    0  0.1344929E+003  0.5020196E+02  0.7546771E-02  0.1444255E+00
         21   -1    0    0  504  501  0.00000000000E+00  0.00000000000E+00  0.12971587906E+03  0.12971587906E+03  0.00000000000E+00 0. -1.
         21   -1    0    0  505  502 -0.00000000000E+00 -0.00000000000E+00 -0.78972153686E+03  0.78972153686E+03  0.00000000000E+00 0.  1.
         21    1    1    2  503  501 -0.99268247247E+01 -0.84832846493E+02  0.89514918452E+02  0.12372580296E+03  0.00000000000E+00 0. -1.
         21    1    1    2  504  506 -0.13759995932E+02  0.45772693250E+02 -0.20197674487E+02  0.51888563192E+02  0.00000000000E+00 0. -1.
         21    1    1    2  505  503 -0.31534720416E+02 -0.27271140796E+02 -0.96217610613E+02  0.10486172945E+03  0.00000000000E+00 0.  1.
         21    1    1    2  506  502  0.55221541073E+02  0.66331294039E+02 -0.63310529116E+03  0.63896132031E+03  0.00000000000E+00 0.  1.
<scales pt_clust_3="14000.00000" pt_clust_4="46.94733" pt_clust_5="41.69117" pt_clust_6="50.20196"></scales>
<clustering>
<clus scale="   41.691">  2  5  1 -1</clus>
<clus scale="   46.947">  1  4  2 -1</clus>
<clus scale="   50.202">  2  6  1 -1</clus>
<clus scale="   46.947">  1  3  2 -1</clus>
</clustering>
</event>
<event>
 6    0  0.1344929E+003  0.1138427E+03  0.7546771E-02  0.1253615E+00
         21   -1    0    0  503  501  0.00000000000E+00  0.00000000000E+00  0.51488370180E+03  0.51488370180E+03  0.00000000000E+00 0. -1.
         21   -1    0    0  504  502 -0.00000000000E+00 -0.00000000000E+00 -0.26644473062E+03  0.26644473062E+03  0.00000000000E+00 0. -1.
         21    1    1    2  503  506  0.38249512071E+02  0.11102873997E+02 -0.38505250638E+02  0.55398134547E+02  0.00000000000E+00 0.  1.
         21    1    1    2  504  501 -0.10674413319E+03  0.16670862504E+02  0.48654897714E+03  0.49839957342E+03  0.00000000000E+00 0. -1.
         21    1    1    2  505  502  0.34352294385E+02 -0.51803236353E+02 -0.83129081788E+02  0.10379836061E+03  0.00000000000E+00 0. -1.
         21    1    1    2  506  505  0.34142326734E+02  0.24029499852E+02 -0.11647567353E+03  0.12373236384E+03  0.00000000000E+00 0. -1.
<scales pt_clust_3="38.99239" pt_clust_4="106.61325" pt_clust_5="62.15831" pt_clust_6="38.99239"></scales>
<clustering>
<clus scale="   38.992">  3  6 -1 -1</clus>
<clus scale="   62.158">  2  5  1 -1</clus>
<clus scale="  106.613">  1  4  2 -1</clus>
<clus scale="  106.613">  1  3  2 -1</clus>
</clustering>
</event>
<event>
 6    0  0.1344929E+003  0.6619279E+02  0.7546771E-02  0.1373540E+00
         21   -1    0    0  503  501  0.00000000000E+00  0.00000000000E+00  0.13031669470E+04  0.13031669470E+04  0.00000000000E+00 0. -1.
         21   -1    0    0  506  502 -0.00000000000E+00 -0.00000000000E+00 -0.26719838848E+02  0.26719838848E+02  0.00000000000E+00 0. -1.
         21    1    1    2  503  504 -0.46041191795E+02  0.11497481529E+01  0.74345074209E+03  0.74487590858E+03  0.00000000000E+00 0. -1.
         21    1    1    2  504  502 -0.32437870366E+02  0.46985736192E+02  0.67155122441E+02  0.88145818446E+02  0.00000000000E+00 0. -1.
         21    1    1    2  505  501  0.54066870342E+02  0.47887128830E+02  0.22950722317E+03  0.24060334383E+03  0.00000000000E+00 0. -1.
         21    1    1    2  506  505  0.24412191819E+02 -0.96022613175E+02  0.23633402048E+03  0.25626171502E+03  0.00000000000E+00 0. -1.
<scales pt_clust_3="46.05555" pt_clust_4="14000.00000" pt_clust_5="59.53395" pt_clust_6="66.19279"></scales>
<clustering>
<clus scale="   46.056">  1  3  2 -1</clus>
<clus scale="   59.534">  1  5  2 -1</clus>
<clus scale="   66.193">  1  6  2 -1</clus>
<clus scale="   46.056">  1  3  2 -1</clus>
</clustering>
</event>
<event>
 6    0  0.1344929E+003  0.1338668E+03  0.7546771E-02  0.1221828E+00
         21   -1    0    0  506  501  0.00000000000E+00  0.00000000000E+00  0.11092504635E+04  0.11092504635E+04  0.00000000000E+00 0.  1.
         21   -1    0    0  504  502 -0.00000000000E+00 -0.00000000000E+00 -0.18371378932E+03  0.18371378932E+03  0.00000000000E+00 0.  1.
         21    1    1    2  503  502 -0.61932900801E+02  0.10967358877E+02  0.43921890485E+01  0.63049650967E+02  0.00000000000E+00 0.  1.
         21    1    1    2  504  505 -0.74113899346E+02 -0.51328207015E+02 -0.11804967477E+03  0.14853679889E+03  0.00000000000E+00 0.  1.
         21    1    1    2  505  501  0.55618018194E+02  0.15041070746E+03  0.49269380372E+03  0.51813504909E+03  0.00000000000E+00 0.  1.
         21    1    1    2  506  503  0.80428781954E+02 -0.11004985933E+03  0.54650035617E+03  0.56324275388E+03  0.00000000000E+00 0.  1.
<scales pt_clust_3="62.89648" pt_clust_4="130.52808" pt_clust_5="14000.00000" pt_clust_6="133.86678"></scales>
<clustering>
<clus scale="   62.896">  2  3  1 -1</clus>
<clus scale="  133.867">  1  6  2 -1</clus>
<clus scale="  130.528">  2  4  1 -1</clus>
<clus scale="  133.867">  1  3  2 -1</clus>
</clustering>
</event>
<event>
 6    0  0.1344929E+003  0.1405186E+03  0.7546771E-02  0.1212633E+00
         21   -1    0    0  504  501  0.00000000000E+00  0.00000000000E+00  0.63105337035E+03  0.63105337035E+03  0.00000000000E+00 0. -1.
         21   -1    0    0  506  502 -0.00000000000E+00 -0.00000000000E+00 -0.13130486195E+03  0.13130486195E+03  0.00000000000E+00 0.  1.
         21    1    1    2  503  505  0.98411427196E+02  0.29556601821E+02  0.15848947386E+03  0.18888439597E+03  0.00000000000E+00 0. -1.
         21    1    1    2  504  503  0.72402963549E+02 -0.22382356060E+01  0.37401597879E+03  0.38096607620E+03  0.00000000000E+00 0. -1.
         21    1    1    2  505  502 -0.12974928600E+03 -0.12439435974E+02 -0.57326925702E+02  0.14239379619E+03  0.00000000000E+00 0.  1.
         21    1    1    2  506  501 -0.41065104748E+02 -0.14878930241E+02  0.24569981455E+02  0.50113963940E+02  0.00000000000E+00 0.  1.
<scales pt_clust_3="140.51861" pt_clust_4="71.24926" pt_clust_5="14000.00000" pt_clust_6="43.67752"></scales>
<clustering>
<clus scale="   43.678">  2  6  1 -1</clus>
<clus scale="   71.249">  1  4  2 -1</clus>
<clus scale="  140.519">  1  3  2 -1</clus>
<clus scale="   71.249">  1  3  2 -1</clus>
</clustering>
</event>
<event>
 6    0  0.1344929E+003  0.1222481E+03  0.7546771E-02  0.1239434E+00
         21   -1    0    0  505  501  0.00000000000E+00  0.00000000000E+00  0.32733606702E+03  0.32733606702E+03  0.00000000000E+00 0.  1.
         21   -1    0    0  506  502 -0.00000000000E+00 -0.00000000000E+00 -0.68191470591E+03  0.68191470591E+03  0.00000000000E+00 0. -1.
         21    1    1    2  503  501  0.28082892919E+02  0.12556698915E+02  0.38901826235E+02  0.49595076840E+02  0.00000000000E+00 0. -1.
         21    1    1    2  504  503  0.13825493403E+03 -0.72787513945E+02 -0.15427375263E+03  0.21957422371E+03  0.00000000000E+00 0. -1.
         21    1    1    2  505  502 -0.84535617253E+02 -0.22243291669E+02  0.23558860930E+03  0.25128276392E+03  0.00000000000E+00 0.  1.
         21    1    1    2  506  504 -0.81802209694E+02  0.82474106699E+02 -0.47479532180E+03  0.48879870846E+03  0.00000000000E+00 0. -1.
<scales pt_clust_3="30.76231" pt_clust_4="14000.00000" pt_clust_5="61.46137" pt_clust_6="122.24813"></scales>
<clustering>
<clus scale="   30.762">  1  3  2 -1</clus>
<clus scale="   61.461">  1  5  2 -1</clus>
<clus scale="  122.248">  2  6  1 -1</clus>
<clus scale="   30.762">  1  3  2 -1</clus>
</clustering>
</event>
<event>
 6    0  0.1344929E+003  0.7034350E+02  0.7546771E-02  0.1358929E+00
         21   -1    0    0  504  501  0.00000000000E+00  0.00000000000E+00  0.35274809547E+02  0.35274809547E+02  0.00000000000E+00 0. -1.
         21   -1    0    0  505  502 -0.00000000000E+00 -0.00000000000E+00 -0.53211387934E+03  0.53211387934E+03  0.00000000000E+00 0. -1.
         21    1    1    2  503  501 -0.46213403368E+02  0.56762120647E+02 -0.12098267851E+03  0.14140164600E+03  0.00000000000E+00 0. -1.
         21    1    1    2  504  506  0.49709216735E+02  0.57452447138E+01 -0.41934846517E+02  0.65288172112E+02  0.00000000000E+00 0. -1.
         21    1    1    2  505  503  0.31098350879E+02  0.24533875670E+02 -0.13743973502E+03  0.14303390942E+03  0.00000000000E+00 0.  1.
         21    1    1    2  506  502 -0.34594164246E+02 -0.87041241031E+02 -0.19648180974E+03  0.21766496135E+03  0.00000000000E+00 0. -1.
<scales pt_clust_3="14000.00000" pt_clust_4="54.72586" pt_clust_5="39.61084" pt_clust_6="70.34350"></scales>
<clustering>
<clus scale="   39.611">  2  5  1 -1</clus>
<clus scale="   54.726">  1  4  2 -1</clus>
<clus scale="   70.344">  2  6  1 -1</clus>
<clus scale="   54.726">  1  3  2 -1</clus>
</clustering>
</event>
<event>
 6    0  0.1344929E+003  0.1027178E+03  0.7546771E-02  0.1274682E+00
         21   -1    0    0  506  501  0.00000000000E+00  0.00000000000E+00  0.12199151279E+04  0.12199151279E+04  0.00000000000E+00 0. -1.
         21   -1    0    0  504  502 -0.00000000000E+00 -0.00000000000E+00 -0.63413611239E+02  0.63413611239E+02  0.00000000000E+00 0. -1.
         21    1    1    2  503  505  0.37944939905E+02 -0.43259846896E+02  0.73999850967E+03  0.74223246165E+03  0.00000000000E+00 0. -1.
         21    1    1    2  504  501 -0.19936531785E+02 -0.54285878801E+02 -0.28081913786E+02  0.64288535670E+02  0.00000000000E+00 0. -1.
         21    1    1    2  505  502 -0.51467278282E+02  0.10964196556E+03  0.23658520076E+03  0.26578713018E+03  0.00000000000E+00 0. -1.
         21    1    1    2  506  503  0.33458870162E+02 -0.12096239867E+02  0.20799972002E+03  0.21102061165E+03  0.00000000000E+00 0. -1.
<scales pt_clust_3="33.61867" pt_clust_4="57.83098" pt_clust_5="93.39680" pt_clust_6="33.61867"></scales>
<clustering>
<clus scale="   33.619">  3  6 -1 -1</clus>
<clus scale="   57.831">  2  4  1 -1</clus>
<clus scale="   93.397">  2  5  1 -1</clus>
<clus scale="  102.718">  1  3  2 -1</clus>
</clustering>
</event>
<event>
 6    0  0.1344929E+003  0.8289592E+02  0.7546771E-02  0.1321028E+00
         21   -1    0    0  506  501  0.00000000000E+00  0.00000000000E+00  0.10639754546E+04  0.10639754546E+04  0.00000000000E+00 0. -1.
         21   -1    0    0  505  502 -0.00000000000E+00 -0.00000000000E+00 -0.24946587519E+03  0.24946587519E+03  0.00000000000E+00 0. -1.
         21    1    1    2  503  502 -0.73057748880E+01  0.68516763442E+02 -0.10202981458E+03  0.12311784713E+03  0.00000000000E+00 0. -1.
         21    1    1    2  504  501  0.70836038274E+02 -0.20977043587E+02  0.18185772713E+03  0.19629063552E+03  0.00000000000E+00 0. -1.
         21    1    1    2  505  504  0.23025565329E+02 -0.39931309218E+02 -0.12331470720E+03  0.13164802743E+03  0.00000000000E+00 0. -1.
         21    1    1    2  506  503 -0.86555828716E+02 -0.76084106376E+01  0.85799637409E+03  0.86238481975E+03  0.00000000000E+00 0. -1.
<scales pt_clust_3="34.59995" pt_clust_4="82.89592" pt_clust_5="46.09432" pt_clust_6="14000.00000"></scales>
<clustering>
<clus scale="   46.094">  2  5  1 -1</clus>
<clus scale="   34.600">  2  3  1 -1</clus>
<clus scale="   82.896">  2  4  1 -1</clus>
<clus scale="   82.896">  1  3  2 -1</clus>
</clustering>
</event>
<event>
 6    0  0.1344929E+003  0.1047305E+03  0.7546771E-02  0.1270651E+00
         21   -1    0    0  506  501  0.00000000000E+00  0.00000000000E+00  0.12881351986E+03  0.12881351986E+03  0.00000000000E+00 0. -1.
         21   -1    0    0  504  502 -0.00000000000E+00 -0.00000000000E+00 -0.25818166403E+03  0.25818166403E+03  0.00000000000E+00 0. -1.
         21    1    1    2  503  501  0.67422312657E+02  0.50486697106E+02  0.18197555867E+02  0.86173231739E+02  0.00000000000E+00 0. -1.
         21    1    1    2  504  503 -0.13699747205E+03  0.13984270631E+02 -0.61894126204E+02  0.15097930332E+03  0.00000000000E+00 0. -1.
         21    1    1    2  505  502 -0.11820631343E+02 -0.33050182447E+02 -0.31364721202E+02  0.47072153352E+02  0.00000000000E+00 0.  1.
         21    1    1    2  506  505  0.81395790736E+02 -0.31420785290E+02 -0.54306852626E+02  0.10277049547E+03  0.00000000000E+00 0. -1.
<scales pt_clust_3="79.74296" pt_clust_4="104.73053" pt_clust_5="35.10045" pt_clust_6="14000.00000"></scales>
<clustering>
<clus scale="   35.100">  2  5  1 -1</clus>
<clus scale="   79.743">  1  3  2 -1</clus>
<clus scale="  104.731">  1  4  2 -1</clus>
<clus scale="   79.743">  1  3  2 -1</clus>
</clustering>
</event>
<event>
 6    0  0.1344929E+003  0.1162601E+03  0.7546771E-02  0.1249397E+00
         21   -1    0    0  503  501  0.00000000000E+00  0.00000000000E+00  0.37799428814E+03  0.37799428814E+03  0.00000000000E+00 0. -1.
         21   -1    0    0  506  502 -0.00000000000E+00 -0.00000000000E+00 -0.10698443636E+03  0.10698443636E+03  0.00000000000E+00 0. -1.
         21    1    1    2  503  502 -0.10872869578E+03  0.17713833923E+02  0.76393903527E+02  0.13405870988E+03  0.00000000000E+00 0. -1.
         21    1    1    2  504  505  0.18480343538E+02 -0.27396346056E+02  0.28359556915E+02  0.43547070429E+02  0.00000000000E+00 0. -1.
         21    1    1    2  505  501 -0.29507091063E+02 -0.96147528395E+01  0.18238378351E+03  0.18500528745E+03  0.00000000000E+00 0. -1.
         21    1    1    2  506  504  0.11975544331E+03  0.19297264973E+02 -0.16127392176E+02  0.12236765674E+03  0.00000000000E+00 0. -1.
<scales pt_clust_3="116.26015" pt_clust_4="31.94897" pt_clust_5="31.03404" pt_clust_6="14000.00000"></scales>
<clustering>
<clus scale="   31.034">  1  5  2 -1</clus>
<clus scale="   31.949">  1  4  2 -1</clus>
<clus scale="  116.260">  1  3  2 -1</clus>
<clus scale="   31.034">  1  3  2 -1</clus>
</clustering>
</event>
<event>
 6    0  0.1344929E+003  0.1113853E+03  0.7546771E-02  0.1258026E+00
         21   -1    0    0  505  501  0.00000000000E+00  0.00000000000E+00  0.44779046585E+03  0.44779046585E+03  0.00000000000E+00 0. -1.
         21   -1    0    0  506  502 -0.00000000000E+00 -0.00000000000E+00 -0.22997729179E+03  0.22997729179E+03  0.00000000000E+00 0.  1.
         21    1    1    2  503  502  0.84143809588E+02  0.34056402641E+02 -0.17992168696E+03  0.20152377699E+03  0.00000000000E+00 0.  1.
         21    1    1    2  504  501 -0.12616497830E+03 -0.20555517158E+02  0.29302113949E+03  0.31968972336E+03  0.00000000000E+00 0. -1.
         21    1    1    2  505  503  0.60522154788E+02  0.20318245656E+02  0.26048119337E+02  0.68951191779E+02  0.00000000000E+00 0. -1.
         21    1    1    2  506  504 -0.18500986078E+02 -0.33819131139E+02  0.78665602191E+02  0.87603065499E+02  0.00000000000E+00 0. -1.
<scales pt_clust_3="92.49408" pt_clust_4="34.08077" pt_clust_5="63.84170" pt_clust_6="34.08077"></scales>
<clustering>
<clus scale="   34.081">  4  6 -1 -1</clus>
<clus scale="   63.842">  1  5  2 -1</clus>
<clus scale="   92.494">  2  3  1 -1</clus>
<clus scale="   63.842">  1  3  2 -1</clus>
</clustering>
</event>
<event>
 6    0  0.1748002E+003  0.9041142E+02  0.7546771E-02  0.1301858E+00
         21   -1    0    0  504  501  0.00000000000E+00  0.00000000000E+00  0.92114311107E+03  0.92114311107E+03  0.00000000000E+00 0. -1.
         21   -1    0    0  506  502 -0.00000000000E+00 -0.00000000000E+00 -0.26101648854E+03  0.26101648854E+03  0.00000000000E+00 0.  1.
         21    1    1    2  503  505  0.58669967421E+02  0.22427906794E+02  0.69590595765E+02  0.93744477700E+02  0.00000000000E+00 0.  1.
         21    1    1    2  504  503 -0.27234665186E+02  0.42787076156E+02  0.21540618549E+03  0.22129682696E+03  0.00000000000E+00 0. -1.
         21    1    1    2  505  502  0.50412040251E+02 -0.53183965022E+01 -0.23917972678E+03  0.24449253741E+03  0.00000000000E+00 0.  1.
         21    1    1    2  506  501 -0.81847342486E+02 -0.59896586447E+02  0.61430956806E+03  0.62262575754E+03  0.00000000000E+00 0. -1.
<scales pt_clust_3="90.41142" pt_clust_4="46.27642" pt_clust_5="50.69181" pt_clust_6="14000.00000"></scales>
<clustering>
<clus scale="   50.692">  2  5  1 -1</clus>
<clus scale="   46.276">  1  4  2 -1</clus>
<clus scale="   90.411">  2  3  1 -1</clus>
<clus scale="   46.276">  1  3  2 -1</clus>
</clustering>
</event>
<event>
 6    0  0.1344929E+003  0.8533740E+02  0.7546771E-02  0.1314553E+00
         21   -1    0    0  506  501  0.00000000000E+00  0.00000000000E+00  0.58389994283E+03  0.58389994283E+03  0.00000000000E+00 0. -1.
         21   -1    0    0  503  502 -0.00000000000E+00 -0.00000000000E+00 -0.70964912335E+03  0.70964912335E+03  0.00000000000E+00 0.  1.
         21    1    1    2  503  504  0.14710560507E+02 -0.43890412673E+02 -0.17376118848E+03  0.17982135451E+03  0.00000000000E+00 0.  1.
         21    1    1    2  504  505  0.59628882315E+02  0.98578213048E+00 -0.51908309115E+03  0.52249768506E+03  0.00000000000E+00 0.  1.
         21    1    1    2  505  501  0.38054124015E+02  0.31721167014E+02  0.11457579204E+03  0.12482772493E+03  0.00000000000E+00 0. -1.
         21    1    1    2  506  502 -0.11239356684E+03  0.11183463529E+02  0.45251930708E+03  0.46640230167E+03  0.00000000000E+00 0. -1.
<scales pt_clust_3="46.29005" pt_clust_4="85.33740" pt_clust_5="49.38148" pt_clust_6="14000.00000"></scales>
<clustering>
<clus scale="   46.290">  2  3  1 -1</clus>
<clus scale="   49.381">  1  5  2 -1</clus>
<clus scale="   85.337">  2  4  1 -1</clus>
<clus scale="   49.381">  1  3  2 -1</clus>
</clustering>
</event>
<event>
 6    0  0.1385682E+003  0.1001161E+03  0.7546771E-02  0.1280052E+00
         21   -1    0    0  503  501  0.00000000000E+00  0.00000000000E+00  0.27966552939E+04  0.27966552939E+04  0.00000000000E+00 0.  1.
         21   -1    0    0  504  502 -0.00000000000E+00 -0.00000000000E+00 -0.71653081280E+03  0.71653081280E+03  0.00000000000E+00 0.  1.
         21    1    1    2  503  502 -0.94148583419E+02  0.60242968909E+02  0.84721527346E+02  0.14025301515E+03  0.00000000000E+00 0.  1.
         21    1    1    2  504  505  0.56056043622E+02  0.19040332700E+02 -0.62752978068E+03  0.63031614285E+03  0.00000000000E+00 0.  1.
         21    1    1    2  505  506  0.69288561854E+02 -0.19606588229E+02 -0.37598243205E+02  0.81233927628E+02  0.00000000000E+00 0.  1.
         21    1    1    2  506  501 -0.31196022057E+02 -0.59676713380E+02  0.26605309777E+04  0.26613830211E+04  0.00000000000E+00 0.  1.
<scales pt_clust_3="100.11614" pt_clust_4="59.20147" pt_clust_5="14000.00000" pt_clust_6="67.13067"></scales>
<clustering>
<clus scale="   59.201">  2  4  1 -1</clus>
<clus scale="   67.131">  1  6  2 -1</clus>
<clus scale="  100.116">  1  3  2 -1</clus>
<clus scale="   67.131">  1  3  2 -1</clus>
</clustering>
</event>
<event>
 6    0  0.1344929E+003  0.9725051E+02  0.7546771E-02  0.1286186E+00
         21   -1    0    0  506  501  0.00000000000E+00  0.00000000000E+00  0.44952390111E+03  0.44952390111E+03  0.00000000000E+00 0.  1.
         21   -1    0    0  505  502 -0.00000000000E+00 -0.00000000000E+00 -0.25971809178E+03  0.25971809178E+03  0.00000000000E+00 0.  1.
         21    1    1    2  503  504  0.13216066330E+03 -0.10704798764E+03 -0.14931717825E+03  0.22632130324E+03  0.00000000000E+00 0.  1.
         21    1    1    2  504  502 -0.33955988834E+02  0.53294320212E+02 -0.21168259818E+02  0.66643746656E+02  0.00000000000E+00 0.  1.
         21    1    1    2  505  501 -0.43284715251E+02 -0.23787740191E+02  0.63431039482E+01  0.49796165771E+02  0.00000000000E+00 0.  1.
         21    1    1    2  506  503 -0.54919959218E+02  0.77541407619E+02  0.35394814345E+03  0.36648077722E+03  0.00000000000E+00 0.  1.
<scales pt_clust_3="14000.00000" pt_clust_4="64.42717" pt_clust_5="49.39052" pt_clust_6="97.25051"></scales>
<clustering>
<clus scale="   49.391">  2  5  1 -1</clus>
<clus scale="   64.427">  2  4  1 -1</clus>
<clus scale="   97.251">  1  6  2 -1</clus>
<clus scale="   97.251">  1  3  2 -1</clus>
</clustering>
</event>
<event>
 6    0  0.1344929E+003  0.9071152E+02  0.7546771E-02  0.1301138E+00
         21   -1    0    0  505  501  0.00000000000E+00  0.00000000000E+00  0.20416865722E+03  0.20416865722E+03  0.00000000000E+00 0. -1.
         21   -1    0    0  506  502 -0.00000000000E+00 -0.00000000000E+00 -0.94812091404E+03  0.94812091404E+03  0.00000000000E+00 0.  1.
         21    1    1    2  503  501  0.15474603001E+02 -0.89966096700E+02  0.11805980381E+03  0.14923631987E+03  0.00000000000E+00 0. -1.
         21    1    1    2  504  502 -0.82423913252E+02  0.97302182613E+02 -0.79744303412E+03  0.80757464602E+03  0.00000000000E+00 0.  1.
         21    1    1    2  505  504  0.40395414990E+02  0.19344482641E+02  0.54533921481E+02  0.70568740622E+02  0.00000000000E+00 0. -1.
         21    1    1    2  506  503  0.26553895261E+02 -0.26680568553E+02 -0.11910294799E+03  0.12490986475E+03  0.00000000000E+00 0.  1.
<scales pt_clust_3="14000.00000" pt_clust_4="90.71152" pt_clust_5="44.91029" pt_clust_6="37.64256"></scales>
<clustering>
<clus scale="   37.643">  2  6  1 -1</clus>
<clus scale="   44.910">  1  5  2 -1</clus>
<clus scale="   90.712">  2  4  1 -1</clus>
<clus scale="   44.910">  1  3  2 -1</clus>
</clustering>
</event>
<event>
 6    0  0.1344929E+003  0.1204804E+03  0.7546771E-02  0.1242307E+00
         21   -1    0    0  503  501  0.00000000000E+00  0.00000000000E+00  0.65312593690E+02  0.65312593690E+02  0.00000000000E+00 0. -1.
         21   -1    0    0  504  502 -0.00000000000E+00 -0.00000000000E+00 -0.24190194194E+04  0.24190194194E+04  0.00000000000E+00 0. -1.
         21    1    1    2  503  502 -0.83018103130E+02 -0.48547754292E+02  0.52206106560E+01  0.96312744067E+02  0.00000000000E+00 0. -1.
         21    1    1    2  504  505  0.36722920519E+02 -0.10252856313E+03 -0.43301073796E+03  0.44649633631E+03  0.00000000000E+00 0.  1.
         21    1    1    2  505  506  0.77475942477E+02  0.15218934607E+03 -0.18675356253E+04  0.18753275528E+04  0.00000000000E+00 0. -1.
         21    1    1    2  506  501 -0.31180759866E+02 -0.11130286499E+01 -0.58381073135E+02  0.66195379892E+02  0.00000000000E+00 0. -1.
<scales pt_clust_3="14000.00000" pt_clust_4="107.91667" pt_clust_5="120.48035" pt_clust_6="31.20062"></scales>
<clustering>
<clus scale="   31.201">  1  6  2 -1</clus>
<clus scale="  107.917">  2  4  1 -1</clus>
<clus scale="  120.480">  2  5  1 -1</clus>
<clus scale="   31.201">  1  3  2 -1</clus>
</clustering>
</event>
<event>
 6    0  0.1344929E+003  0.1197555E+03  0.7546771E-02  0.1243501E+00
         21   -1    0    0  503  501  0.00000000000E+00  0.00000000000E+00  0.13430793131E+03  0.13430793131E+03  0.00000000000E+00 0. -1.
         21   -1    0    0  506  502 -0.00000000000E+00 -0.00000000000E+00 -0.42645445017E+03  0.42645445017E+03  0.00000000000E+00 0. -1.
         21    1    1    2  503  504  0.14786167768E+02  0.30959095502E+02 -0.13484611728E+01  0.34335327275E+02  0.00000000000E+00 0. -1.
         21    1    1    2  504  502 -0.96524816178E+02 -0.15651468395E+01 -0.28325770942E+03  0.29925644482E+03  0.00000000000E+00 0. -1.
         21    1    1    2  505  501  0.10712335827E+03  0.66741061756E+01  0.76810901575E+02  0.13198436340E+03  0.00000000000E+00 0. -1.
         21    1    1    2  506  505 -0.25384709861E+02 -0.36068054838E+02 -0.84351249847E+02  0.95186245988E+02  0.00000000000E+00 0. -1.
<scales pt_clust_3="34.30884" pt_clust_4="14000.00000" pt_clust_5="119.75546" pt_clust_6="42.55073"></scales>
<clustering>
<clus scale="   34.309">  1  3  2 -1</clus>
<clus scale="   42.551">  2  6  1 -1</clus>
<clus scale="  119.755">  1  5  2 -1</clus>
<clus scale="   34.309">  1  3  2 -1</clus>
</clustering>
</event>
<event>
 6    0  0.1344929E+003  0.1158281E+03  0.7546771E-02  0.1250142E+00
         21   -1    0    0  503  501  0.00000000000E+00  0.00000000000E+00  0.14450765642E+03  0.14450765642E+03  0.00000000000E+00 0.  1.
         21   -1    0    0  501  502 -0.00000000000E+00 -0.00000000000E+00 -0.45615480090E+03  0.45615480090E+03  0.00000000000E+00 0.  1.
         21    1    1    2  503  506  0.88939046787E+02  0.94380199948E+01  0.84869200013E+02  0.12329643700E+03  0.00000000000E+00 0.  1.
         21    1    1    2  504  502 -0.25497665392E+02 -0.39017516115E+02 -0.19196162703E+03  0.19753927143E+03  0.00000000000E+00 0.  1.
         21    1    1    2  505  504 -0.52356518797E+01 -0.67227664754E+02 -0.12379371070E+03  0.14096756282E+03  0.00000000000E+00 0.  1.
         21    1    1    2  506  505 -0.58205729515E+02  0.96807160874E+02 -0.80761006770E+02  0.13885918608E+03  0.00000000000E+00 0.  1.
<scales pt_clust_3="89.43842" pt_clust_4="42.82202" pt_clust_5="42.82202" pt_clust_6="103.74628"></scales>
<clustering>
<clus scale="   42.822">  4  5 -1 -1</clus>
<clus scale="   89.438">  1  3  2 -1</clus>
<clus scale="  103.746">  1  6  2 -1</clus>
<clus scale="   89.438">  1  3  2 -1</clus>
</clustering>
</event>
<event>
 6    0  0.1344929E+003  0.9678750E+02  0.7546771E-02  0.1287200E+00
         21   -1    0    0  506  501  0.00000000000E+00  0.00000000000E+00  0.23956385378E+03  0.23956385378E+03  0.00000000000E+00 0.  1.
         21   -1    0    0  504  502 -0.00000000000E+00 -0.00000000000E+00 -0.88973313348E+03  0.88973313348E+03  0.00000000000E+00 0. -1.
         21    1    1    2  503  505 -0.48291543081E+02 -0.44451421049E+02 -0.33667607398E+02  0.73766589688E+02  0.00000000000E+00 0.  1.
         21    1    1    2  504  503  0.95192950777E+02  0.37665364709E+02 -0.81874440299E+03  0.82511985493E+03  0.00000000000E+00 0. -1.
         21    1    1    2  505  501 -0.45760047523E+02 -0.30252641314E+02  0.51719337198E+02  0.75392931340E+02  0.00000000000E+00 0.  1.
         21    1    1    2  506  502 -0.11413601733E+01  0.37038697653E+02  0.15052339349E+03  0.15501761131E+03  0.00000000000E+00 0.  1.
<scales pt_clust_3="96.78750" pt_clust_4="14000.00000" pt_clust_5="46.70086" pt_clust_6="37.05628"></scales>
<clustering>
<clus scale="   37.056">  1  6  2 -1</clus>
<clus scale="   46.701">  1  5  2 -1</clus>
<clus scale="   96.788">  1  3  2 -1</clus>
<clus scale="   37.056">  1  3  2 -1</clus>
</clustering>
</event>
<event>
 6    0  0.1344929E+003  0.7085201E+02  0.7546771E-02  0.1357219E+00
         21   -1    0    0  505  501  0.00000000000E+00  0.00000000000E+00  0.45662063203E+03  0.45662063203E+03  0.00000000000E+00 0. -1.
         21   -1    0    0  504  502 -0.00000000000E+00 -0.00000000000E+00 -0.20393921089E+03  0.20393921089E+03  0.00000000000E+00 0. -1.
         21    1    1    2  503  501 -0.12120903730E+02  0.36434918626E+02  0.18009473325E+03  0.18414269616E+03  0.00000000000E+00 0. -1.
         21    1    1    2  504  503  0.43475054744E+02  0.31864937534E+02  0.12708075874E+02  0.55380048948E+02  0.00000000000E+00 0. -1.
         21    1    1    2  505  506 -0.78349786444E+02 -0.11834477149E+03  0.21143626771E+03  0.25465558953E+03  0.00000000000E+00 0. -1.
         21    1    1    2  506  502  0.46995635430E+02  0.50044915327E+02 -0.15155765570E+03  0.16638150829E+03  0.00000000000E+00 0. -1.
<scales pt_clust_3="38.39817" pt_clust_4="55.54639" pt_clust_5="14000.00000" pt_clust_6="70.85201"></scales>
<clustering>
<clus scale="   38.398">  1  3  2 -1</clus>
<clus scale="   55.546">  1  4  2 -1</clus>
<clus scale="   70.852">  2  6  1 -1</clus>
<clus scale="   38.398">  1  3  2 -1</clus>
</clustering>
</event>
<event>
 6    0  0.1344929E+003  0.1393788E+03  0.7546771E-02  0.1214167E+00
         21   -1    0    0  506  501  0.00000000000E+00  0.00000000000E+00  0.95897914106E+02  0.95897914106E+02  0.00000000000E+00 0. -1.
         21   -1    0    0  505  502 -0.00000000000E+00 -0.00000000000E+00 -0.53907209416E+03  0.53907209416E+03  0.00000000000E+00 0. -1.
         21    1    1    2  503  504 -0.12387535047E+03  0.10255347850E+03 -0.13494072556E+03  0.20993169800E+03  0.00000000000E+00 0. -1.
         21    1    1    2  504  502  0.55992340431E+02 -0.32634242879E+01 -0.15702040828E+03  0.16673692075E+03  0.00000000000E+00 0. -1.
         21    1    1    2  505  501 -0.54378342734E+02 -0.59403804761E+02 -0.64730591255E+02  0.10332408056E+03  0.00000000000E+00 0. -1.
         21    1    1    2  506  503  0.12226135278E+03 -0.39886249454E+02 -0.86482454958E+02  0.15497730896E+03  0.00000000000E+00 0. -1.
<scales pt_clust_3="139.37877" pt_clust_4="56.08736" pt_clust_5="73.29213" pt_clust_6="14000.00000"></scales>
<clustering>
<clus scale="   56.087">  2  4  1 -1</clus>
<clus scale="   73.292">  2  5  1 -1</clus>
<clus scale="  139.379">  2  3  1 -1</clus>
<clus scale="  139.379">  1  3  2 -1</clus>
</clustering>
</event>
<event>
 6    0  0.1344929E+003  0.9350739E+02  0.7546771E-02  0.1294574E+00
         21   -1    0    0  504  501  0.00000000000E+00  0.00000000000E+00  0.32533013728E+03  0.32533013728E+03  0.00000000000E+00 0. -1.
         21   -1    0    0  505  502 -0.00000000000E+00 -0.00000000000E+00 -0.19941805956E+03  0.19941805956E+03  0.00000000000E+00 0.  1.
         21    1    1    2  503  502 -0.20521660804E+02  0.25139397258E+02 -0.72716889489E+02  0.79629604254E+02  0.00000000000E+00 0.  1.
         21    1    1    2  504  506  0.60731740435E+02  0.41835503366E+02  0.19464740958E+03  0.20814938793E+03  0.00000000000E+00 0. -1.
         21    1    1    2  505  501  0.40292151331E+02 -0.54612213137E+02  0.93764550398E+02  0.11574861638E+03  0.00000000000E+00 0. -1.
         21    1    1    2  506  503 -0.80502230962E+02 -0.12362687486E+02 -0.89782992775E+02  0.12122058828E+03  0.00000000000E+00 0.  1.
<scales pt_clust_3="32.45193" pt_clust_4="93.50739" pt_clust_5="64.97644" pt_clust_6="14000.00000"></scales>
<clustering>
<clus scale="   32.452">  2  3  1 -1</clus>
<clus scale="   64.976">  1  5  2 -1</clus>
<clus scale="   93.507">  1  4  2 -1</clus>
<clus scale="   64.976">  1  3  2 -1</clus>
</clustering>
</event>
<event>
 6    0  0.1344929E+003  0.1036237E+03  0.7546771E-02  0.1272855E+00
         21   -1    0    0  504  501  0.00000000000E+00  0.00000000000E+00  0.23759741524E+03  0.23759741524E+03  0.00000000000E+00 0.  1.
         21   -1    0    0  505  502 -0.00000000000E+00 -0.00000000000E+00 -0.27231562842E+03  0.27231562842E+03  0.00000000000E+00 0.  1.
         21    1    1    2  503  502  0.54248132765E+02 -0.10141420184E+03 -0.21095285208E+02  0.11693036946E+03  0.00000000000E+00 0.  1.
         21    1    1    2  504  503 -0.23045045139E+02 -0.20221446463E+02  0.68668502128E+02  0.75202022493E+02  0.00000000000E+00 0.  1.
         21    1    1    2  505  506  0.40318201948E+01  0.10375866862E+03 -0.18255104663E+03  0.21001666960E+03  0.00000000000E+00 0.  1.
         21    1    1    2  506  501 -0.35234907821E+02  0.17876979684E+02  0.10025961654E+03  0.10776398211E+03  0.00000000000E+00 0.  1.
<scales pt_clust_3="103.62368" pt_clust_4="30.65911" pt_clust_5="14000.00000" pt_clust_6="49.97313"></scales>
<clustering>
<clus scale="   30.659">  1  4  2 -1</clus>
<clus scale="   49.973">  1  6  2 -1</clus>
<clus scale="  103.624">  1  3  2 -1</clus>
<clus scale="   30.659">  1  3  2 -1</clus>
</clustering>
</event>
<event>
 6    0  0.1344929E+003  0.1596601E+03  0.7546771E-02  0.1189081E+00
         21   -1    0    0  502  501  0.00000000000E+00  0.00000000000E+00  0.31025778559E+03  0.31025778559E+03  0.00000000000E+00 0. -1.
         21   -1    0    0  505  502 -0.00000000000E+00 -0.00000000000E+00 -0.97896263576E+02  0.97896263576E+02  0.00000000000E+00 0. -1.
         21    1    1    2  503  506 -0.69457897447E+02  0.42519819844E+02  0.35438788610E+02  0.88815777514E+02  0.00000000000E+00 0. -1.
         21    1    1    2  504  501  0.35717486028E+02 -0.56936704049E+02  0.42029113610E+02  0.79271517375E+02  0.00000000000E+00 0. -1.
         21    1    1    2  505  503 -0.35199520291E+02  0.56164215591E+02 -0.16723181005E+02  0.68360003837E+02  0.00000000000E+00 0. -1.
         21    1    1    2  506  504  0.68939931709E+02 -0.41747331386E+02  0.15161680080E+03  0.17170675044E+03  0.00000000000E+00 0. -1.
<scales pt_clust_3="156.05753" pt_clust_4="63.26672" pt_clust_5="54.59558" pt_clust_6="63.26672"></scales>
<clustering>
<clus scale="   54.596">  3  5 -1 -1</clus>
<clus scale="   63.267">  4  6 -1 -1</clus>
<clus scale="  156.058">  2  3  1 -1</clus>
<clus scale="  159.660">  1  3  2 -1</clus>
</clustering>
</event>
<event>
 6    0  0.1344929E+003  0.1239739E+03  0.7546771E-02  0.1236682E+00
         21   -1    0    0  505  501  0.00000000000E+00  0.00000000000E+00  0.27305432588E+03  0.27305432588E+03  0.00000000000E+00 0.  1.
         21   -1    0    0  506  502 -0.00000000000E+00 -0.00000000000E+00 -0.42898860666E+03  0.42898860666E+03  0.00000000000E+00 0.  1.
         21    1    1    2  503  502  0.26727427728E+02  0.22319151177E+02 -0.13864615551E+03  0.14295193717E+03  0.00000000000E+00 0. -1.
         21    1    1    2  504  501  0.40167972891E+02  0.17589939495E+02  0.19933482655E+03  0.20410106588E+03  0.00000000000E+00 0.  1.
         21    1    1    2  505  503 -0.94085610666E+02  0.90325106407E+02 -0.45283795666E+02  0.13806284486E+03  0.00000000000E+00 0.  1.
         21    1    1    2  506  504  0.27190210047E+02 -0.13023419708E+03 -0.17133915616E+03  0.21692708463E+03  0.00000000000E+00 0.  1.
<scales pt_clust_3="34.82097" pt_clust_4="44.12713" pt_clust_5="14000.00000" pt_clust_6="123.97395"></scales>
<clustering>
<clus scale="   34.821">  2  3  1 -1</clus>
<clus scale="   44.127">  1  4  2 -1</clus>
<clus scale="  123.974">  2  6  1 -1</clus>
<clus scale="   44.127">  1  3  2 -1</clus>
</clustering>
</event>
<event>
 6    0  0.1344929E+003  0.8160510E+02  0.7546771E-02  0.1324557E+00
         21   -1    0    0  505  501  0.00000000000E+00  0.00000000000E+00  0.21251753870E+03  0.21251753870E+03  0.00000000000E+00 0. -1.
         21   -1    0    0  503  502 -0.00000000000E+00 -0.00000000000E+00 -0.33169199269E+03  0.33169199269E+03  0.00000000000E+00 0. -1.
         21    1    1    2  503  501 -0.58965834977E+02  0.71454110364E+02 -0.25378355382E+03  0.27016430514E+03  0.00000000000E+00 0. -1.
         21    1    1    2  504  506  0.36953681235E+02 -0.30110881787E+02 -0.81584263636E+01  0.48361138113E+02  0.00000000000E+00 0. -1.
         21    1    1    2  505  504  0.45132705989E+02 -0.67530078591E+02  0.16525626362E+03  0.18413827775E+03  0.00000000000E+00 0. -1.
         21    1    1    2  506  502 -0.23120552247E+02  0.26186850015E+02 -0.22488737436E+02  0.41545810395E+02  0.00000000000E+00 0. -1.
<scales pt_clust_3="81.60510" pt_clust_4="44.42112" pt_clust_5="14000.00000" pt_clust_6="34.93295"></scales>
<clustering>
<clus scale="   34.933">  2  6  1 -1</clus>
<clus scale="   44.421">  2  4  1 -1</clus>
<clus scale="   81.605">  2  3  1 -1</clus>
<clus scale="   81.605">  1  3  2 -1</clus>
</clustering>
</event>
<event>
 6    0  0.1344929E+003  0.2814162E+03  0.7546771E-02  0.1094918E+00
         21   -1    0    0  506  501  0.00000000000E+00  0.00000000000E+00  0.88652512683E+03  0.88652512683E+03  0.00000000000E+00 0. -1.
         21   -1    0    0  503  502 -0.00000000000E+00 -0.00000000000E+00 -0.22861447757E+03  0.22861447757E+03  0.00000000000E+00 0. -1.
         21    1    1    2  503  505  0.18017082890E+02  0.48180910262E+02 -0.66713418954E+02  0.84241887788E+02  0.00000000000E+00 0. -1.
         21    1    1    2  504  502 -0.13173193165E+01 -0.39351562672E+02  0.98493286543E+00  0.39385922709E+02  0.00000000000E+00 0. -1.
         21    1    1    2  505  501  0.60983013704E+02  0.26464503299E+03  0.72614784824E+02  0.28112066524E+03  0.00000000000E+00 0. -1.
         21    1    1    2  506  504 -0.77682777277E+02 -0.27347438058E+03  0.65102435052E+03  0.71039112867E+03  0.00000000000E+00 0. -1.
<scales pt_clust_3="38.25670" pt_clust_4="39.37361" pt_clust_5="281.41624" pt_clust_6="14000.00000"></scales>
<clustering>
<clus scale="   39.374">  2  4  1 -1</clus>
<clus scale="   38.257">  2  3  1 -1</clus>
<clus scale="  281.416">  2  5  1 -1</clus>
<clus scale="  281.416">  1  3  2 -1</clus>
</clustering>
</event>
<event>
 6    0  0.1344929E+003  0.1112175E+03  0.7546771E-02  0.1258332E+00
         21   -1    0    0  505  501  0.00000000000E+00  0.00000000000E+00  0.43120630045E+02  0.43120630045E+02  0.00000000000E+00 0. -1.
         21   -1    0    0  504  502 -0.00000000000E+00 -0.00000000000E+00 -0.31878433777E+04  0.31878433777E+04  0.00000000000E+00 0.  1.
         21    1    1    2  503  506 -0.30833460966E+02 -0.64580244592E+02 -0.88396672545E+02  0.11373338131E+03  0.00000000000E+00 0. -1.
         21    1    1    2  504  503  0.91717644050E+02  0.29402819082E+02 -0.27717000088E+04  0.27733729628E+04  0.00000000000E+00 0.  1.
         21    1    1    2  505  502 -0.29544525038E+02  0.81291191541E+02 -0.27370049870E+03  0.28704198259E+03  0.00000000000E+00 0. -1.
         21    1    1    2  506  501 -0.31339658046E+02 -0.46113766031E+02 -0.10925567598E+02  0.56815681033E+02  0.00000000000E+00 0. -1.
<scales pt_clust_3="49.17198" pt_clust_4="96.25967" pt_clust_5="86.49356" pt_clust_6="49.17198"></scales>
<clustering>
<clus scale="   49.172">  3  6 -1 -1</clus>
<clus scale="   86.494">  1  5  2 -1</clus>
<clus scale="   96.260">  2  4  1 -1</clus>
<clus scale="   86.494">  1  3  2 -1</clus>
</clustering>
</event>
<event>
 6    0  0.1344929E+003  0.7435789E+02  0.7546771E-02  0.1345871E+00
         21   -1    0    0  505  501  0.00000000000E+00  0.00000000000E+00  0.61936641659E+03  0.61936641659E+03  0.00000000000E+00 0. -1.
         21   -1    0    0  504  502 -0.00000000000E+00 -0.00000000000E+00 -0.91688002920E+03  0.91688002920E+03  0.00000000000E+00 0.  1.
         21    1    1    2  503  506  0.47122917014E+02  0.49261334482E+02  0.24426000909E+03  0.25359455913E+03  0.00000000000E+00 0. -1.
         21    1    1    2  504  503 -0.10933713397E+03  0.15769899621E+02  0.78783154720E+02  0.13568376494E+03  0.00000000000E+00 0. -1.
         21    1    1    2  505  502  0.40313578889E+02 -0.39596388955E+02 -0.88178435742E+03  0.88359306904E+03  0.00000000000E+00 0.  1.
         21    1    1    2  506  501  0.21900638070E+02 -0.25434845148E+02  0.26122758101E+03  0.26337505268E+03  0.00000000000E+00 0. -1.
<scales pt_clust_3="14000.00000" pt_clust_4="74.35789" pt_clust_5="56.59187" pt_clust_6="33.56441"></scales>
<clustering>
<clus scale="   33.564">  1  6  2 -1</clus>
<clus scale="   56.592">  2  5  1 -1</clus>
<clus scale="   74.358">  2  4  1 -1</clus>
<clus scale="   33.564">  1  3  2 -1</clus>
</clustering>
</event>
<event>
 6    0  0.1344929E+003  0.8131991E+02  0.7546771E-02  0.1325347E+00
         21   -1    0    0  503  501  0.00000000000E+00  0.00000000000E+00  0.40509727413E+03  0.40509727413E+03  0.00000000000E+00 0.  1.
         21   -1    0    0  504  502 -0.00000000000E+00 -0.00000000000E+00 -0.34794897694E+03  0.34794897694E+03  0.00000000000E+00 0. -1.
         21    1    1    2  503  505  0.31566321495E+02  0.22791778426E+02  0.63190888743E+02  0.74222545340E+02  0.00000000000E+00 0.  1.
         21    1    1    2  504  501 -0.79392188749E+02  0.75106585356E+02 -0.81397648105E+01  0.10959185449E+03  0.00000000000E+00 0. -1.
         21    1    1    2  505  506  0.22357497679E+02 -0.77614267947E+02  0.27898217201E+03  0.29043912372E+03  0.00000000000E+00 0.  1.
         21    1    1    2  506  502  0.25468369575E+02 -0.20284095835E+02 -0.27688499874E+03  0.27879272752E+03  0.00000000000E+00 0. -1.
<scales pt_clust_3="39.70156" pt_clust_4="81.31991" pt_clust_5="14000.00000" pt_clust_6="32.55891"></scales>
<clustering>
<clus scale="   32.559">  2  6  1 -1</clus>
<clus scale="   39.702">  1  3  2 -1</clus>
<clus scale="   81.320">  2  4  1 -1</clus>
<clus scale="   39.702">  1  3  2 -1</clus>
</clustering>
</event>
<event>
 6    0  0.1344929E+003  0.1051171E+03  0.7546771E-02  0.1269889E+00
         21   -1    0    0  504  501  0.00000000000E+00  0.00000000000E+00  0.66342652470E+03  0.66342652470E+03  0.00000000000E+00 0.  1.
         21   -1    0    0  505  502 -0.00000000000E+00 -0.00000000000E+00 -0.25685576963E+03  0.25685576963E+03  0.00000000000E+00 0.  1.
         21    1    1    2  503  501  0.75346028073E+02 -0.25092866773E+02 -0.12875149089E+03  0.15127333644E+03  0.00000000000E+00 0.  1.
         21    1    1    2  504  506 -0.84999195942E+02  0.63581720993E+02  0.57355637141E+03  0.58329615954E+03  0.00000000000E+00 0.  1.
         21    1    1    2  505  503 -0.62157610161E+01 -0.94378332196E+02  0.26996480563E+02  0.98360130316E+02  0.00000000000E+00 0.  1.
         21    1    1    2  506  502  0.15868928885E+02  0.55889477975E+02 -0.65230606007E+02  0.87352668032E+02  0.00000000000E+00 0.  1.
<scales pt_clust_3="105.11710" pt_clust_4="14000.00000" pt_clust_5="83.39074" pt_clust_6="58.09868"></scales>
<clustering>
<clus scale="   58.099">  2  6  1 -1</clus>
<clus scale="   83.391">  2  5  1 -1</clus>
<clus scale="  105.117">  2  3  1 -1</clus>
<clus scale="  105.117">  1  3  2 -1</clus>
</clustering>
</event>
<event>
 6    0  0.1344929E+003  0.1911018E+03  0.7546771E-02  0.1157471E+00
         21   -1    0    0  503  501  0.00000000000E+00  0.00000000000E+00  0.86354484360E+02  0.86354484360E+02  0.00000000000E+00 0. -1.
         21   -1    0    0  506  502 -0.00000000000E+00 -0.00000000000E+00 -0.71035640259E+03  0.71035640259E+03  0.00000000000E+00 0. -1.
         21    1    1    2  503  504 -0.10170918148E+03 -0.59174102851E+02 -0.12276614170E+03  0.17005251422E+03  0.00000000000E+00 0. -1.
         21    1    1    2  504  502 -0.61016327923E+02 -0.44827097658E+02 -0.39334715571E+02  0.85321045508E+02  0.00000000000E+00 0. -1.
         21    1    1    2  505  501  0.18314357955E+03  0.35170825074E+02 -0.21697812619E+03  0.28610848452E+03  0.00000000000E+00 0. -1.
         21    1    1    2  506  505 -0.20418070142E+02  0.68830375435E+02 -0.24492293477E+03  0.25522884270E+03  0.00000000000E+00 0. -1.
<scales pt_clust_3="32.51524" pt_clust_4="32.51524" pt_clust_5="186.75323" pt_clust_6="71.79497"></scales>
<clustering>
<clus scale="   32.515">  3  4 -1 -1</clus>
<clus scale="   71.795">  2  6  1 -1</clus>
<clus scale="  186.753">  2  5  1 -1</clus>
<clus scale="  191.102">  1  3  2 -1</clus>
</clustering>
</event>
<event>
 6    0  0.1344929E+003  0.1174948E+03  0.7546771E-02  0.1247288E+00
         21   -1    0    0  505  501  0.00000000000E+00  0.00000000000E+00  0.64383170540E+02  0.64383170540E+02  0.00000000000E+00 0.  1.
         21   -1    0    0  503  502 -0.00000000000E+00 -0.00000000000E+00 -0.34660941156E+03  0.34660941156E+03  0.00000000000E+00 0.  1.
         21    1    1    2  503  501 -0.78473649473E+02 -0.37760357780E+02 -0.18788553990E+02  0.89089662937E+02  0.00000000000E+00 0.  1.
         21    1    1    2  504  502  0.57876689584E+02 -0.32205640314E+01 -0.15805986175E+03  0.16835380342E+03  0.00000000000E+00 0.  1.
         21    1    1    2  505  506 -0.38717409575E+02  0.34559289477E+02 -0.45435303990E+02  0.68976439035E+02  0.00000000000E+00 0. -1.
         21    1    1    2  506  504  0.59314369463E+02  0.64216323346E+01 -0.59942521287E+02  0.84572676704E+02  0.00000000000E+00 0.  1.
<scales pt_clust_3="105.36721" pt_clust_4="51.24450" pt_clust_5="51.89781" pt_clust_6="51.24450"></scales>
<clustering>
<clus scale="   51.244">  4  6 -1 -1</clus>
<clus scale="   51.898">  1  5  2 -1</clus>
<clus scale="  105.367">  1  3  2 -1</clus>
<clus scale="   51.898">  1  3  2 -1</clus>
</clustering>
</event>
<event>
 6    0  0.1344929E+003  0.8876755E+02  0.7546771E-02  0.1305864E+00
         21   -1    0    0  506  501  0.00000000000E+00  0.00000000000E+00  0.47211864998E+03  0.47211864998E+03  0.00000000000E+00 0.  1.
         21   -1    0    0  503  502 -0.00000000000E+00 -0.00000000000E+00 -0.15052041154E+03  0.15052041154E+03  0.00000000000E+00 0.  1.
         21    1    1    2  503  504  0.16892716502E+02 -0.34132952582E+02 -0.82723118111E+02  0.91068856328E+02  0.00000000000E+00 0.  1.
         21    1    1    2  504  505  0.68817222688E+02 -0.12021161468E+02  0.42960896648E+02  0.82011932682E+02  0.00000000000E+00 0.  1.
         21    1    1    2  505  501 -0.46632304317E+02  0.93334084887E+02  0.37289820022E+03  0.38721943512E+03  0.00000000000E+00 0.  1.
         21    1    1    2  506  502 -0.39077634874E+02 -0.47179970838E+02 -0.11537740314E+02  0.62338837390E+02  0.00000000000E+00 0.  1.
<scales pt_clust_3="38.08441" pt_clust_4="14000.00000" pt_clust_5="88.76755" pt_clust_6="73.11138"></scales>
<clustering>
<clus scale="   38.084">  2  3  1 -1</clus>
<clus scale="   73.111">  2  6  1 -1</clus>
<clus scale="   88.768">  1  5  2 -1</clus>
<clus scale="   88.768">  1  3  2 -1</clus>
</clustering>
</event>
<event>
 6    0  0.1344929E+003  0.8355800E+02  0.7546771E-02  0.1319247E+00
         21   -1    0    0  505  501  0.00000000000E+00  0.00000000000E+00  0.17945491629E+03  0.17945491629E+03  0.00000000000E+00 0.  1.
         21   -1    0    0  503  502 -0.00000000000E+00 -0.00000000000E+00 -0.78337581717E+03  0.78337581717E+03  0.00000000000E+00 0. -1.
         21    1    1    2  503  501  0.11580769280E+03  0.17701818011E+02 -0.56895491006E+03  0.58089109629E+03  0.00000000000E+00 0. -1.
         21    1    1    2  504  506 -0.11680225601E+03  0.25917596813E+02  0.64483679821E+02  0.13591406769E+03  0.00000000000E+00 0.  1.
         21    1    1    2  505  504  0.50686672727E+02  0.15703859085E+02  0.53038151523E+02  0.75025299061E+02  0.00000000000E+00 0.  1.
         21    1    1    2  506  502 -0.49692109516E+02 -0.59323273910E+02 -0.15248782216E+03  0.17100027042E+03  0.00000000000E+00 0.  1.
<scales pt_clust_3="83.55800" pt_clust_4="14000.00000" pt_clust_5="53.06364" pt_clust_6="73.84629"></scales>
<clustering>
<clus scale="   53.064">  1  5  2 -1</clus>
<clus scale="   73.846">  2  6  1 -1</clus>
<clus scale="   83.558">  2  3  1 -1</clus>
<clus scale="   53.064">  1  3  2 -1</clus>
</clustering>
</event>
<event>
 6    0  0.1344929E+003  0.1270661E+03  0.7546771E-02  0.1231875E+00
         21   -1    0    0  503  501  0.00000000000E+00  0.00000000000E+00  0.82514648359E+02  0.82514648359E+02  0.00000000000E+00 0.  1.
         21   -1    0    0  505  502 -0.00000000000E+00 -0.00000000000E+00 -0.76937065905E+03  0.76937065905E+03  0.00000000000E+00 0. -1.
         21    1    1    2  503  506  0.39262015972E+02  0.32627019131E+02  0.67634791399E+01  0.51495368002E+02  0.00000000000E+00 0.  1.
         21    1    1    2  504  501  0.29036495222E+02 -0.37365426653E+02 -0.55015119646E+01  0.47639897120E+02  0.00000000000E+00 0. -1.
         21    1    1    2  505  504 -0.96668268757E+02 -0.68803735380E+02 -0.65760836271E+03  0.66822710727E+03  0.00000000000E+00 0. -1.
         21    1    1    2  506  502  0.28369757563E+02  0.73542142902E+02 -0.30509615157E+02  0.84522935016E+02  0.00000000000E+00 0.  1.
<scales pt_clust_3="36.80079" pt_clust_4="47.32117" pt_clust_5="118.55226" pt_clust_6="36.80079"></scales>
<clustering>
<clus scale="   36.801">  3  6 -1 -1</clus>
<clus scale="   47.321">  1  4  2 -1</clus>
<clus scale="  118.552">  2  5  1 -1</clus>
<clus scale="   47.321">  1  3  2 -1</clus>
</clustering>
</event>
<event>
 6    0  0.1344929E+003  0.1250780E+03  0.7546771E-02  0.1234947E+00
         21   -1    0    0  506  501  0.00000000000E+00  0.00000000000E+00  0.14302141344E+03  0.14302141344E+03  0.00000000000E+00 0.  1.
         21   -1    0    0  504  502 -0.00000000000E+00 -0.00000000000E+00 -0.53333155410E+03  0.53333155410E+03  0.00000000000E+00 0. -1.
         21    1    1    2  503  501 -0.15140810645E+02  0.14966419421E+03 -0.32189889119E+02  0.15383368987E+03  0.00000000000E+00 0.  1.
         21    1    1    2  504  503  0.10614560991E+02  0.28427728901E+02 -0.28783836842E+03  0.28943346560E+03  0.00000000000E+00 0. -1.
         21    1    1    2  505  502 -0.58045187365E+02 -0.11410963538E+03 -0.64635047687E+02  0.14341527831E+03  0.00000000000E+00 0.  1.
         21    1    1    2  506  505  0.62571437019E+02 -0.63982287739E+02 -0.56468354404E+01  0.89670533764E+02  0.00000000000E+00 0.  1.
<scales pt_clust_3="125.07804" pt_clust_4="30.34476" pt_clust_5="14000.00000" pt_clust_6="87.14385"></scales>
<clustering>
<clus scale="   30.345">  2  4  1 -1</clus>
<clus scale="   87.144">  1  6  2 -1</clus>
<clus scale="  125.078">  1  3  2 -1</clus>
<clus scale="   87.144">  1  3  2 -1</clus>
</clustering>
</event>
<event>
 6    0  0.1344929E+003  0.1245563E+03  0.7546771E-02  0.1235764E+00
         21   -1    0    0  506  501  0.00000000000E+00  0.00000000000E+00  0.24277047372E+03  0.24277047372E+03  0.00000000000E+00 0.  1.
         21   -1    0    0  504  502 -0.00000000000E+00 -0.00000000000E+00 -0.65896147338E+03  0.65896147338E+03  0.00000000000E+00 0.  1.
         21    1    1    2  503  505 -0.10505170131E+03  0.46023178156E+02 -0.40141202300E+03  0.41747527482E+03  0.00000000000E+00 0.  1.
         21    1    1    2  504  503 -0.24049161122E+02 -0.27571787329E+02 -0.20894383704E+03  0.21212282443E+03  0.00000000000E+00 0.  1.
         21    1    1    2  505  501  0.45834065840E+02 -0.72820395437E+02  0.59005849154E+02  0.10433245812E+03  0.00000000000E+00 0.  1.
         21    1    1    2  506  502  0.83266796590E+02  0.54369004610E+02  0.13515901123E+03  0.16780138973E+03  0.00000000000E+00 0.  1.
<scales pt_clust_3="14000.00000" pt_clust_4="36.58641" pt_clust_5="86.59399" pt_clust_6="124.55629"></scales>
<clustering>
<clus scale="   36.586">  2  4  1 -1</clus>
<clus scale="   86.594">  1  5  2 -1</clus>
<clus scale="  124.556">  1  6  2 -1</clus>
<clus scale="   86.594">  1  3  2 -1</clus>
</clustering>
</event>
<event>
 6    0  0.1344929E+003  0.8738134E+02  0.7546771E-02  0.1309320E+00
         21   -1    0    0  504  501  0.00000000000E+00  0.00000000000E+00  0.67951893546E+03  0.67951893546E+03  0.00000000000E+00 0. -1.
         21   -1    0    0  503  502 -0.00000000000E+00 -0.00000000000E+00 -0.64837224443E+03  0.64837224443E+03  0.00000000000E+00 0. -1.
         21    1    1    2  503  505  0.82276574908E+02  0.24892932472E+02 -0.44900625611E+03  0.45716048702E+03  0.00000000000E+00 0. -1.
         21    1    1    2  504  506 -0.10353998549E+03 -0.17662110570E+02 -0.13551406193E+03  0.17145419134E+03  0.00000000000E+00 0. -1.
         21    1    1    2  505  501  0.26537348658E+02  0.27807673436E+02  0.64929169190E+03  0.65042847319E+03  0.00000000000E+00 0. -1.
         21    1    1    2  506  502 -0.52739380728E+01 -0.35038495337E+02 -0.33624682818E+02  0.48848028342E+02  0.00000000000E+00 0. -1.
<scales pt_clust_3="87.38134" pt_clust_4="14000.00000" pt_clust_5="38.41110" pt_clust_6="35.43318"></scales>
<clustering>
<clus scale="   35.433">  2  6  1 -1</clus>
<clus scale="   38.411">  1  5  2 -1</clus>
<clus scale="   87.381">  2  3  1 -1</clus>
<clus scale="   38.411">  1  3  2 -1</clus>
</clustering>
</event>
<event>
 6    0  0.1344929E+003  0.1208983E+03  0.7546771E-02  0.1241622E+00
         21   -1    0    0  503  501  0.00000000000E+00  0.00000000000E+00  0.57990745071E+02  0.57990745071E+02  0.00000000000E+00 0.  1.
         21   -1    0    0  505  502 -0.00000000000E+00 -0.00000000000E+00 -0.88457785112E+03  0.88457785112E+03  0.00000000000E+00 0.  1.
         21    1    1    2  503  504 -0.34528531703E+02 -0.14402466326E+02  0.15563593247E+02  0.40520068763E+02  0.00000000000E+00 0.  1.
         21    1    1    2  504  506 -0.22712738378E+00  0.10582298945E+03 -0.30057291094E+03  0.31865754576E+03  0.00000000000E+00 0.  1.
         21    1    1    2  505  501  0.83937319658E+02 -0.12033307998E+03 -0.28500203218E+03  0.32054903231E+03  0.00000000000E+00 0.  1.
         21    1    1    2  506  502 -0.49181660571E+02  0.28912556865E+02 -0.25657575618E+03  0.26284194935E+03  0.00000000000E+00 0.  1.
<scales pt_clust_3="37.41190" pt_clust_4="14000.00000" pt_clust_5="120.89831" pt_clust_6="59.48337"></scales>
<clustering>
<clus scale="   37.412">  1  3  2 -1</clus>
<clus scale="   59.483">  2  6  1 -1</clus>
<clus scale="  120.898">  1  5  2 -1</clus>
<clus scale="   37.412">  1  3  2 -1</clus>
</clustering>
</event>
<event>
 6    0  0.1344929E+003  0.7604652E+02  0.7546771E-02  0.1340661E+00
         21   -1    0    0  506  501  0.00000000000E+00  0.00000000000E+00  0.17652401210E+03  0.17652401210E+03  0.00000000000E+00 0. -1.
         21   -1    0    0  503  502 -0.00000000000E+00 -0.00000000000E+00 -0.49511419129E+03  0.49511419129E+03  0.00000000000E+00 0. -1.
         21    1    1    2  503  504 -0.29891573603E+02 -0.56921080570E+01 -0.99395903356E+02  0.10394927547E+03  0.00000000000E+00 0.  1.
         21    1    1    2  504  501 -0.58644058044E+01  0.36936550365E+02  0.11453051640E+03  0.12048211151E+03  0.00000000000E+00 0. -1.
         21    1    1    2  505  502  0.72658068361E+02  0.61338579315E+02 -0.33427787439E+03  0.34753893813E+03  0.00000000000E+00 0. -1.
         21    1    1    2  506  505 -0.36902088954E+02 -0.92583021623E+02  0.55308216079E+00  0.99667878286E+02  0.00000000000E+00 0. -1.
<scales pt_clust_3="30.42871" pt_clust_4="37.39284" pt_clust_5="14000.00000" pt_clust_6="76.04652"></scales>
<clustering>
<clus scale="   30.429">  2  3  1 -1</clus>
<clus scale="   37.393">  1  4  2 -1</clus>
<clus scale="   76.047">  1  6  2 -1</clus>
<clus scale="   37.393">  1  3  2 -1</clus>
</clustering>
</event>
<event>
 6    0  0.1344929E+003  0.1354317E+03  0.7546771E-02  0.1219612E+00
         21   -1    0    0  505  501  0.00000000000E+00  0.00000000000E+00  0.21065958448E+03  0.21065958448E+03  0.00000000000E+00 0.  1.
         21   -1    0    0  504  502 -0.00000000000E+00 -0.00000000000E+00 -0.12999076094E+04  0.12999076094E+04  0.00000000000E+00 0. -1.
         21    1    1    2  503  501 -0.39638529772E+02  0.96071772833E+01  0.74165311691E+02  0.84640441611E+02  0.00000000000E+00 0.  1.
         21    1    1    2  504  503  0.83366195203E+02  0.13400528035E+03 -0.42062101198E+03  0.44925424137E+03  0.00000000000E+00 0. -1.
         21    1    1    2  505  506 -0.55214509423E+02 -0.10678934589E+03  0.85474730002E+02  0.14750774866E+03  0.00000000000E+00 0.  1.
         21    1    1    2  506  502  0.11486843993E+02 -0.36823111752E+02 -0.82826705463E+03  0.82916476223E+03  0.00000000000E+00 0. -1.
<scales pt_clust_3="40.56732" pt_clust_4="14000.00000" pt_clust_5="135.43175" pt_clust_6="38.57317"></scales>
<clustering>
<clus scale="   38.573">  2  6  1 -1</clus>
<clus scale="   40.567">  1  3  2 -1</clus>
<clus scale="  135.432">  1  5  2 -1</clus>
<clus scale="   40.567">  1  3  2 -1</clus>
</clustering>
</event>
<event>
 6    0  0.1344929E+003  0.1194046E+03  0.7546771E-02  0.1244083E+00
         21   -1    0    0  505  501  0.00000000000E+00  0.00000000000E+00  0.55553056750E+02  0.55553056750E+02  0.00000000000E+00 0.  1.
         21   -1    0    0  506  502 -0.00000000000E+00 -0.00000000000E+00 -0.16447922392E+04  0.16447922392E+04  0.00000000000E+00 0.  1.
         21    1    1    2  503  501 -0.70186860689E+02  0.34236783673E+02 -0.42709593794E+02  0.89008214068E+02  0.00000000000E+00 0.  1.
         21    1    1    2  504  502  0.48520280410E+02  0.13173597952E+02 -0.10651554270E+04  0.10663413361E+04  0.00000000000E+00 0.  1.
         21    1    1    2  505  504 -0.16210405798E+02 -0.14077936645E+03 -0.36220070617E+03  0.38893567441E+03  0.00000000000E+00 0.  1.
         21    1    1    2  506  503  0.37876986077E+02  0.93368984823E+02 -0.11917345547E+03  0.15606007141E+03  0.00000000000E+00 0.  1.
<scales pt_clust_3="73.88495" pt_clust_4="50.27685" pt_clust_5="119.40459" pt_clust_6="14000.00000"></scales>
<clustering>
<clus scale="   50.277">  2  4  1 -1</clus>
<clus scale="   73.885">  1  3  2 -1</clus>
<clus scale="  119.405">  2  5  1 -1</clus>
<clus scale="   73.885">  1  3  2 -1</clus>
</clustering>
</event>
<event>
 6    0  0.1344929E+003  0.1142153E+03  0.7546771E-02  0.1252957E+00
         21   -1    0    0  503  501  0.00000000000E+00  0.00000000000E+00  0.70929912249E+03  0.70929912249E+03  0.00000000000E+00 0. -1.
         21   -1    0    0  504  502 -0.00000000000E+00 -0.00000000000E+00 -0.61264530420E+02  0.61264530420E+02  0.00000000000E+00 0. -1.
         21    1    1    2  503  502 -0.34656600529E+02 -0.11430813438E+03  0.16949765832E+03  0.20735690420E+03  0.00000000000E+00 0. -1.
         21    1    1    2  504  505 -0.10822072597E+02  0.28246905409E+02 -0.10996202066E+02  0.32185732559E+02  0.00000000000E+00 0. -1.
         21    1    1    2  505  506  0.75519452542E+02  0.86556194860E+02  0.14409340323E+03  0.18427715929E+03  0.00000000000E+00 0. -1.
         21    1    1    2  506  501 -0.30040779415E+02 -0.49496588820E+00  0.34543973258E+03  0.34674385686E+03  0.00000000000E+00 0. -1.
<scales pt_clust_3="14000.00000" pt_clust_4="30.56017" pt_clust_5="114.21531" pt_clust_6="30.04486"></scales>
<clustering>
<clus scale="   30.045">  1  6  2 -1</clus>
<clus scale="   30.560">  2  4  1 -1</clus>
<clus scale="  114.215">  1  5  2 -1</clus>
<clus scale="   30.045">  1  3  2 -1</clus>
</clustering>
</event>
<event>
 6    0  0.1344929E+003  0.1195751E+03  0.7546771E-02  0.1243800E+00
         21   -1    0    0  504  501  0.00000000000E+00  0.00000000000E+00  0.27080095206E+03  0.27080095206E+03  0.00000000000E+00 0.  1.
         21   -1    0    0  505  502 -0.00000000000E+00 -0.00000000000E+00 -0.24242828251E+03  0.24242828251E+03  0.00000000000E+00 0.  1.
         21    1    1    2  503  502  0.15055394355E+03  0.34320867933E+01 -0.69215285556E+02  0.16573781974E+03  0.00000000000E+00 0.  1.
         21    1    1    2  504  503  0.40639008931E+02 -0.26049546889E+02  0.73274330153E+02  0.87745287049E+02  0.00000000000E+00 0.  1.
         21    1    1    2  505  506 -0.57183677543E+02  0.36435672035E+02 -0.68316916940E+02  0.96253479491E+02  0.00000000000E+00 0.  1.
         21    1    1    2  506  501 -0.13400927494E+03 -0.13818211940E+02  0.92630541893E+02  0.16349264828E+03  0.00000000000E+00 0.  1.
<scales pt_clust_3="14000.00000" pt_clust_4="48.27119" pt_clust_5="64.26177" pt_clust_6="119.57515"></scales>
<clustering>
<clus scale="   48.271">  1  4  2 -1</clus>
<clus scale="   64.262">  2  5  1 -1</clus>
<clus scale="  119.575">  1  6  2 -1</clus>
<clus scale="   48.271">  1  3  2 -1</clus>
</clustering>
</event>
<event>
 6    0  0.1344929E+003  0.1157406E+03  0.7546771E-02  0.1250294E+00
         21   -1    0    0  503  501  0.00000000000E+00  0.00000000000E+00  0.95736193533E+02  0.95736193533E+02  0.00000000000E+00 0.  1.
         21   -1    0    0  505  502 -0.00000000000E+00 -0.00000000000E+00 -0.40654566953E+03  0.40654566953E+03  0.00000000000E+00 0. -1.
         21    1    1    2  503  502  0.10035856422E+03 -0.19223698654E+02 -0.31455401670E+02  0.10691507983E+03  0.00000000000E+00 0.  1.
         21    1    1    2  504  506  0.13456333125E+02  0.41084610629E+02 -0.58728425796E+02  0.72924934887E+02  0.00000000000E+00 0. -1.
         21    1    1    2  505  504  0.20631913065E+02 -0.26372134453E+02 -0.17830159844E+03  0.18141837096E+03  0.00000000000E+00 0. -1.
         21    1    1    2  506  501 -0.13444681041E+03  0.45112224774E+01 -0.42324050082E+02  0.14102347738E+03  0.00000000000E+00 0.  1.
<scales pt_clust_3="115.74055" pt_clust_4="38.67218" pt_clust_5="33.48381" pt_clust_6="14000.00000"></scales>
<clustering>
<clus scale="   33.484">  2  5  1 -1</clus>
<clus scale="   38.672">  2  4  1 -1</clus>
<clus scale="  115.741">  1  3  2 -1</clus>
<clus scale="  115.741">  1  3  2 -1</clus>
</clustering>
</event>
<event>
 6    0  0.1344929E+003  0.8895041E+02  0.7546771E-02  0.1305414E+00
         21   -1    0    0  506  501  0.00000000000E+00  0.00000000000E+00  0.15172532954E+03  0.15172532954E+03  0.00000000000E+00 0.  1.
         21   -1    0    0  504  502 -0.00000000000E+00 -0.00000000000E+00 -0.46327257251E+03  0.46327257251E+03  0.00000000000E+00 0.  1.
         21    1    1    2  503  501 -0.72346235705E+01  0.40215927513E+02  0.31086893612E+01  0.40979562632E+02  0.00000000000E+00 0.  1.
         21    1    1    2  504  503 -0.46937865112E+02  0.23962049837E+01 -0.40176865309E+02  0.61831104516E+02  0.00000000000E+00 0. -1.
         21    1    1    2  505  502  0.13042262906E+03 -0.30026899985E+02 -0.36758233761E+03  0.39118851186E+03  0.00000000000E+00 0.  1.
         21    1    1    2  506  505 -0.76250140374E+02 -0.12585232512E+02  0.93103270585E+02  0.12099872304E+03  0.00000000000E+00 0.  1.
<scales pt_clust_3="40.86148" pt_clust_4="47.88880" pt_clust_5="88.95041" pt_clust_6="14000.00000"></scales>
<clustering>
<clus scale="   40.861">  1  3  2 -1</clus>
<clus scale="   47.889">  2  4  1 -1</clus>
<clus scale="   88.950">  2  5  1 -1</clus>
<clus scale="   40.861">  1  3  2 -1</clus>
</clustering>
</event>
<event>
 6    0  0.1344929E+003  0.1125390E+03  0.7546771E-02  0.1255939E+00
         21   -1    0    0  504  501  0.00000000000E+00  0.00000000000E+00  0.11025852825E+04  0.11025852825E+04  0.00000000000E+00 0.  1.
         21   -1    0    0  503  502 -0.00000000000E+00 -0.00000000000E+00 -0.13472121032E+04  0.13472121032E+04  0.00000000000E+00 0. -1.
         21    1    1    2  503  506  0.33681956751E+02 -0.70517543960E+02 -0.39680006412E+03  0.40442241420E+03  0.00000000000E+00 0. -1.
         21    1    1    2  504  505 -0.40193106711E+02 -0.10478269254E+03  0.10791364551E+04  0.10849563987E+04  0.00000000000E+00 0.  1.
         21    1    1    2  505  502 -0.46553464916E+02 -0.16950707957E+02 -0.13751255604E+03  0.14616516228E+03  0.00000000000E+00 0. -1.
         21    1    1    2  506  501  0.53064614875E+02  0.19225094446E+03 -0.78945065560E+03  0.81425341057E+03  0.00000000000E+00 0. -1.
<scales pt_clust_3="78.29813" pt_clust_4="14000.00000" pt_clust_5="49.54343" pt_clust_6="112.53899"></scales>
<clustering>
<clus scale="   49.543">  2  5  1 -1</clus>
<clus scale="   78.298">  2  3  1 -1</clus>
<clus scale="  112.539">  2  6  1 -1</clus>
<clus scale="  112.539">  1  3  2 -1</clus>
</clustering>
</event>
<event>
 6    0  0.1344929E+003  0.9647589E+02  0.7546771E-02  0.1287886E+00
         21   -1    0    0  503  501  0.00000000000E+00  0.00000000000E+00  0.93494115932E+03  0.93494115932E+03  0.00000000000E+00 0. -1.
         21   -1    0    0  505  502 -0.00000000000E+00 -0.00000000000E+00 -0.22298763750E+03  0.22298763750E+03  0.00000000000E+00 0. -1.
         21    1    1    2  503  504  0.61164089290E+02 -0.35804431903E+02  0.83572359733E+03  0.83872339559E+03  0.00000000000E+00 0. -1.
         21    1    1    2  504  502 -0.11711994920E+02  0.30683905719E+02 -0.19828860202E+02  0.38364783228E+02  0.00000000000E+00 0.  1.
         21    1    1    2  505  506  0.20565864969E+02  0.76133749586E+02 -0.15116373133E+03  0.17049861084E+03  0.00000000000E+00 0. -1.
         21    1    1    2  506  501 -0.70017959338E+02 -0.71013223402E+02  0.47222516020E+02  0.11034200717E+03  0.00000000000E+00 0.  1.
<scales pt_clust_3="70.67522" pt_clust_4="32.84316" pt_clust_5="14000.00000" pt_clust_6="96.47589"></scales>
<clustering>
<clus scale="   32.843">  2  4  1 -1</clus>
<clus scale="   70.675">  1  3  2 -1</clus>
<clus scale="   96.476">  1  6  2 -1</clus>
<clus scale="   70.675">  1  3  2 -1</clus>
</clustering>
</event>
<event>
 6    0  0.1344929E+003  0.1157244E+03  0.7546771E-02  0.1250322E+00
         21   -1    0    0  504  501  0.00000000000E+00  0.00000000000E+00  0.29339834036E+03  0.29339834036E+03  0.00000000000E+00 0. -1.
         21   -1    0    0  505  502 -0.00000000000E+00 -0.00000000000E+00 -0.52695103497E+03  0.52695103497E+03  0.00000000000E+00 0.  1.
         21    1    1    2  503  502 -0.78941975168E+02  0.26288239025E+02 -0.20724073489E+03  0.22331956733E+03  0.00000000000E+00 0. -1.
         21    1    1    2  504  506  0.54175502921E+02 -0.67985902286E+02  0.90532571875E+01  0.87401541703E+02  0.00000000000E+00 0. -1.
         21    1    1    2  505  501 -0.13137681121E+03 -0.70182979947E+01  0.19003547674E+03  0.23113330666E+03  0.00000000000E+00 0. -1.
         21    1    1    2  506  503  0.15614328346E+03  0.48715961256E+02 -0.22540069365E+03  0.27849495964E+03  0.00000000000E+00 0.  1.
<scales pt_clust_3="83.20401" pt_clust_4="78.37137" pt_clust_5="115.72442" pt_clust_6="14000.00000"></scales>
<clustering>
<clus scale="   83.204">  2  3  1 -1</clus>
<clus scale="   78.371">  1  4  2 -1</clus>
<clus scale="  115.724">  1  5  2 -1</clus>
<clus scale="   78.371">  1  3  2 -1</clus>
</clustering>
</event>
<event>
 6    0  0.1344929E+003  0.8092709E+02  0.7546771E-02  0.1326441E+00
         21   -1    0    0  506  501  0.00000000000E+00  0.00000000000E+00  0.22587485757E+03  0.22587485757E+03  0.00000000000E+00 0.  1.
         21   -1    0    0  503  502 -0.00000000000E+00 -0.00000000000E+00 -0.29164641102E+03  0.29164641102E+03  0.00000000000E+00 0.  1.
         21    1    1    2  503  504  0.46452929129E+02 -0.11646719643E+02 -0.20078094218E+03  0.20641343814E+03  0.00000000000E+00 0.  1.
         21    1    1    2  504  501  0.31802887405E+02  0.87104899213E+02 -0.29688294416E+02  0.97365712340E+02  0.00000000000E+00 0.  1.
         21    1    1    2  505  502 -0.65402332128E+02 -0.21001491935E+02  0.46444084736E+02  0.82919121548E+02  0.00000000000E+00 0.  1.
         21    1    1    2  506  505 -0.12853484406E+02 -0.54456687635E+02  0.11825359842E+03  0.13082299656E+03  0.00000000000E+00 0.  1.
<scales pt_clust_3="47.89072" pt_clust_4="80.92709" pt_clust_5="14000.00000" pt_clust_6="56.10466"></scales>
<clustering>
<clus scale="   47.891">  2  3  1 -1</clus>
<clus scale="   56.105">  1  6  2 -1</clus>
<clus scale="   80.927">  2  4  1 -1</clus>
<clus scale="   56.105">  1  3  2 -1</clus>
</clustering>
</event>
<event>
 6    0  0.1344929E+003  0.8077745E+02  0.7546771E-02  0.1326860E+00
         21   -1    0    0  506  501  0.00000000000E+00  0.00000000000E+00  0.20006304274E+04  0.20006304274E+04  0.00000000000E+00 0.  1.
         21   -1    0    0  505  502 -0.00000000000E+00 -0.00000000000E+00 -0.73646359097E+03  0.73646359097E+03  0.00000000000E+00 0.  1.
         21    1    1    2  503  502  0.27434073377E+02 -0.53440218745E+02 -0.17085557339E+03  0.18110801285E+03  0.00000000000E+00 0.  1.
         21    1    1    2  504  501 -0.80539960533E+02  0.64618278151E+02  0.13743517418E+04  0.13782252781E+04  0.00000000000E+00 0. -1.
         21    1    1    2  505  504  0.20220580990E+02  0.43630426570E+02 -0.55585470921E+03  0.55793094892E+03  0.00000000000E+00 0.  1.
         21    1    1    2  506  503  0.32885306166E+02 -0.54808485976E+02  0.61652537732E+03  0.61982977855E+03  0.00000000000E+00 0.  1.
<scales pt_clust_3="48.44288" pt_clust_4="14000.00000" pt_clust_5="48.08831" pt_clust_6="80.77745"></scales>
<clustering>
<clus scale="   48.088">  2  5  1 -1</clus>
<clus scale="   48.443">  2  3  1 -1</clus>
<clus scale="   80.777">  1  6  2 -1</clus>
<clus scale="   80.777">  1  3  2 -1</clus>
</clustering>
</event>
<event>
 6    0  0.1344929E+003  0.9511247E+02  0.7546771E-02  0.1290923E+00
         21   -1    0    0  505  501  0.00000000000E+00  0.00000000000E+00  0.94171389590E+03  0.94171389590E+03  0.00000000000E+00 0.  1.
         21   -1    0    0  504  502 -0.00000000000E+00 -0.00000000000E+00 -0.21930143099E+03  0.21930143099E+03  0.00000000000E+00 0.  1.
         21    1    1    2  503  501  0.26845167654E+02  0.35679830251E+02  0.78332636296E+02  0.90164933440E+02  0.00000000000E+00 0. -1.
         21    1    1    2  504  503 -0.22849940672E+02  0.45928036210E+02 -0.18220267812E+03  0.18928634450E+03  0.00000000000E+00 0.  1.
         21    1    1    2  505  506  0.73334394495E+02 -0.70487952915E+02  0.78804660104E+03  0.79458412414E+03  0.00000000000E+00 0.  1.
         21    1    1    2  506  502 -0.77329621478E+02 -0.11119913546E+02  0.38235905698E+02  0.86979924809E+02  0.00000000000E+00 0. -1.
<scales pt_clust_3="44.65102" pt_clust_4="51.38101" pt_clust_5="95.11247" pt_clust_6="14000.00000"></scales>
<clustering>
<clus scale="   44.651">  1  3  2 -1</clus>
<clus scale="   51.381">  2  4  1 -1</clus>
<clus scale="   95.112">  1  5  2 -1</clus>
<clus scale="   44.651">  1  3  2 -1</clus>
</clustering>
</event>
<event>
 6    0  0.1344929E+003  0.1389750E+03  0.7546771E-02  0.1214715E+00
         21   -1    0    0  502  501  0.00000000000E+00  0.00000000000E+00  0.12833807275E+03  0.12833807275E+03  0.00000000000E+00 0. -1.
         21   -1    0    0  505  502 -0.00000000000E+00 -0.00000000000E+00 -0.22049147591E+03  0.22049147591E+03  0.00000000000E+00 0. -1.
         21    1    1    2  503  506  0.79899584363E+02 -0.87645763938E+02  0.32783635536E+02  0.12304669958E+03  0.00000000000E+00 0. -1.
         21    1    1    2  504  503 -0.39446806225E+02 -0.43310034756E+01 -0.46718830944E+02  0.61298101742E+02  0.00000000000E+00 0. -1.
         21    1    1    2  505  504 -0.73948806863E+02  0.70278685051E+02 -0.70038511453E+02  0.12374535424E+03  0.00000000000E+00 0. -1.
         21    1    1    2  506  501  0.33496028724E+02  0.21698082363E+02 -0.81796963054E+01  0.40739393100E+02  0.00000000000E+00 0. -1.
<scales pt_clust_3="126.14636" pt_clust_4="36.37328" pt_clust_5="36.37328" pt_clust_6="39.90978"></scales>
<clustering>
<clus scale="   36.373">  4  5 -1 -1</clus>
<clus scale="   39.910">  1  6  2 -1</clus>
<clus scale="  126.146">  1  3  2 -1</clus>
<clus scale="   39.910">  1  3  2 -1</clus>
</clustering>
</event>
<event>
 6    0  0.1344929E+003  0.1210993E+03  0.7546771E-02  0.1241294E+00
         21   -1    0    0  503  501  0.00000000000E+00  0.00000000000E+00  0.30381786193E+03  0.30381786193E+03  0.00000000000E+00 0. -1.
         21   -1    0    0  505  502 -0.00000000000E+00 -0.00000000000E+00 -0.24665273779E+03  0.24665273779E+03  0.00000000000E+00 0. -1.
         21    1    1    2  503  504  0.11176013254E+03  0.61237717911E+02  0.98700948987E+02  0.16119014440E+03  0.00000000000E+00 0. -1.
         21    1    1    2  504  502 -0.10044332779E+03 -0.11679294344E+03 -0.13041478217E+03  0.20183525248E+03  0.00000000000E+00 0. -1.
         21    1    1    2  505  506  0.17086829142E+02  0.41696319043E+02 -0.36596727483E+02  0.58050522946E+02  0.00000000000E+00 0. -1.
         21    1    1    2  506  501 -0.28403633891E+02  0.13858906488E+02  0.12547568481E+03  0.12939467990E+03  0.00000000000E+00 0. -1.
<scales pt_clust_3="14000.00000" pt_clust_4="121.09932" pt_clust_5="45.22712" pt_clust_6="31.60436"></scales>
<clustering>
<clus scale="   31.604">  1  6  2 -1</clus>
<clus scale="   45.227">  2  5  1 -1</clus>
<clus scale="  121.099">  2  4  1 -1</clus>
<clus scale="   31.604">  1  3  2 -1</clus>
</clustering>
</event>
<event>
 6    0  0.1344929E+003  0.1595916E+03  0.7546771E-02  0.1189159E+00
         21   -1    0    0  505  501  0.00000000000E+00  0.00000000000E+00  0.39301112770E+03  0.39301112770E+03  0.00000000000E+00 0.  1.
         21   -1    0    0  503  502 -0.00000000000E+00 -0.00000000000E+00 -0.25528574957E+03  0.25528574957E+03  0.00000000000E+00 0.  1.
         21    1    1    2  503  506 -0.10396114299E+03  0.58232364145E+02 -0.62987774176E+02  0.13478274067E+03  0.00000000000E+00 0. -1.
         21    1    1    2  504  502  0.68448534780E+02 -0.10367531861E+02 -0.56288863595E+02  0.89225129841E+02  0.00000000000E+00 0.  1.
         21    1    1    2  505  504  0.18068181284E+03 -0.80154990132E+01  0.99531585757E+02  0.20643813184E+03  0.00000000000E+00 0.  1.
         21    1    1    2  506  501 -0.14516920463E+03 -0.39849333271E+02  0.15747043015E+03  0.21785087493E+03  0.00000000000E+00 0.  1.
<scales pt_clust_3="85.09536" pt_clust_4="69.22924" pt_clust_5="159.59156" pt_clust_6="14000.00000"></scales>
<clustering>
<clus scale="   69.229">  2  4  1 -1</clus>
<clus scale="   85.095">  2  3  1 -1</clus>
<clus scale="  159.592">  2  5  1 -1</clus>
<clus scale="  159.592">  1  3  2 -1</clus>
</clustering>
</event>
<event>
 6    0  0.1344929E+003  0.1221909E+03  0.7546771E-02  0.1239526E+00
         21   -1    0    0  506  501  0.00000000000E+00  0.00000000000E+00  0.12889765562E+04  0.12889765562E+04  0.00000000000E+00 0.  1.
         21   -1    0    0  505  502 -0.00000000000E+00 -0.00000000000E+00 -0.28811334728E+03  0.28811334728E+03  0.00000000000E+00 0. -1.
         21    1    1    2  503  502  0.25779155985E+02  0.34084925382E+02 -0.18775135470E+03  0.19255367619E+03  0.00000000000E+00 0. -1.
         21    1    1    2  504  503 -0.12446219460E+03 -0.93277374832E+02  0.40936587591E+02  0.16083317675E+03  0.00000000000E+00 0. -1.
         21    1    1    2  505  501  0.99311144960E+02  0.21690584692E+02  0.30828854998E+02  0.10622430644E+03  0.00000000000E+00 0. -1.
         21    1    1    2  506  504 -0.62810634504E+00  0.37501864759E+02  0.11168491210E+04  0.11174787441E+04  0.00000000000E+00 0.  1.
<scales pt_clust_3="43.14971" pt_clust_4="14000.00000" pt_clust_5="122.19095" pt_clust_6="37.50712"></scales>
<clustering>
<clus scale="   37.507">  1  6  2 -1</clus>
<clus scale="   43.150">  2  3  1 -1</clus>
<clus scale="  122.191">  1  5  2 -1</clus>
<clus scale="   37.507">  1  3  2 -1</clus>
</clustering>
</event>
<event>
 6    0  0.1344929E+003  0.1316464E+03  0.7546771E-02  0.1225033E+00
         21   -1    0    0  503  501  0.00000000000E+00  0.00000000000E+00  0.85893233526E+03  0.85893233526E+03  0.00000000000E+00 0. -1.
         21   -1    0    0  506  502 -0.00000000000E+00 -0.00000000000E+00 -0.17158221143E+03  0.17158221143E+03  0.00000000000E+00 0.  1.
         21    1    1    2  503  502 -0.26624822160E+02 -0.12200152296E+03  0.41739819308E+03  0.43567706429E+03  0.00000000000E+00 0. -1.
         21    1    1    2  504  505  0.52789685069E+02  0.11006771220E+03  0.42968705036E+02  0.12941391630E+03  0.00000000000E+00 0.  1.
         21    1    1    2  505  501 -0.60546619085E+02  0.10929172713E+02  0.34091012848E+03  0.34641745857E+03  0.00000000000E+00 0. -1.
         21    1    1    2  506  504  0.34381756177E+02  0.10046380490E+01 -0.11392690277E+03  0.11900610753E+03  0.00000000000E+00 0.  1.
<scales pt_clust_3="14000.00000" pt_clust_4="131.64637" pt_clust_5="59.84464" pt_clust_6="34.39643"></scales>
<clustering>
<clus scale="   34.396">  2  6  1 -1</clus>
<clus scale="   59.845">  1  5  2 -1</clus>
<clus scale="  131.646">  2  4  1 -1</clus>
<clus scale="   59.845">  1  3  2 -1</clus>
</clustering>
</event>
<event>
 6    0  0.1344929E+003  0.8198094E+02  0.7546771E-02  0.1323522E+00
         21   -1    0    0  504  501  0.00000000000E+00  0.00000000000E+00  0.53041084644E+03  0.53041084644E+03  0.00000000000E+00 0. -1.
         21   -1    0    0  505  502 -0.00000000000E+00 -0.00000000000E+00 -0.19053567009E+04  0.19053567009E+04  0.00000000000E+00 0. -1.
         21    1    1    2  503  502  0.47511200594E+02 -0.61564408384E+02  0.26372085763E+03  0.27494759739E+03  0.00000000000E+00 0.  1.
         21    1    1    2  504  503 -0.43001470634E+02 -0.41997387056E+01  0.25216535533E+03  0.25584004907E+03  0.00000000000E+00 0. -1.
         21    1    1    2  505  506  0.60714972351E+02  0.64961572985E+02 -0.17171822189E+04  0.17194827963E+04  0.00000000000E+00 0. -1.
         21    1    1    2  506  501 -0.65224702312E+02  0.80257410424E+00 -0.17364984847E+03  0.18549710453E+03  0.00000000000E+00 0. -1.
<scales pt_clust_3="65.89592" pt_clust_4="43.20607" pt_clust_5="81.98094" pt_clust_6="14000.00000"></scales>
<clustering>
<clus scale="   43.206">  1  4  2 -1</clus>
<clus scale="   65.896">  1  3  2 -1</clus>
<clus scale="   81.981">  2  5  1 -1</clus>
<clus scale="   43.206">  1  3  2 -1</clus>
</clustering>
</event>
<event>
 6    0  0.1344929E+003  0.1236577E+03  0.7546771E-02  0.1237182E+00
         21   -1    0    0  506  501  0.00000000000E+00  0.00000000000E+00  0.17375957136E+03  0.17375957136E+03  0.00000000000E+00 0. -1.
         21   -1    0    0  503  502 -0.00000000000E+00 -0.00000000000E+00 -0.29970548116E+03  0.29970548116E+03  0.00000000000E+00 0. -1.
         21    1    1    2  503  504 -0.58737835679E+02  0.12274161242E+03 -0.13492698169E+03  0.19162705223E+03  0.00000000000E+00 0. -1.
         21    1    1    2  504  501  0.77358873751E+00 -0.14386526314E+03  0.28487204939E+02  0.14666060556E+03  0.00000000000E+00 0. -1.
         21    1    1    2  505  502  0.40567672426E+02 -0.13372712406E+02 -0.63561701703E+02  0.76581038166E+02  0.00000000000E+00 0. -1.
         21    1    1    2  506  505  0.17396574516E+02  0.34496363125E+02  0.44055568657E+02  0.58596356571E+02  0.00000000000E+00 0.  1.
<scales pt_clust_3="123.65767" pt_clust_4="14000.00000" pt_clust_5="43.06712" pt_clust_6="38.63470"></scales>
<clustering>
<clus scale="   38.635">  1  6  2 -1</clus>
<clus scale="   43.067">  2  5  1 -1</clus>
<clus scale="  123.658">  2  3  1 -1</clus>
<clus scale="   38.635">  1  3  2 -1</clus>
</clustering>
</event>
<event>
 6    0  0.1344929E+003  0.1134561E+03  0.7546771E-02  0.1254300E+00
         21   -1    0    0  506  501  0.00000000000E+00  0.00000000000E+00  0.48998444061E+03  0.48998444061E+03  0.00000000000E+00 0.  1.
         21   -1    0    0  503  502 -0.00000000000E+00 -0.00000000000E+00 -0.41996344146E+03  0.41996344146E+03  0.00000000000E+00 0. -1.
         21    1    1    2  503  504  0.74985634905E+00 -0.97368323653E+02 -0.16486240744E+03  0.19147001363E+03  0.00000000000E+00 0. -1.
         21    1    1    2  504  501  0.85282547551E+02  0.34989798043E+02  0.38628313261E+03  0.39712977403E+03  0.00000000000E+00 0.  1.
         21    1    1    2  505  502 -0.95864025959E+01 -0.29012920465E+02 -0.19280418441E+03  0.19521040493E+03  0.00000000000E+00 0. -1.
         21    1    1    2  506  505 -0.76446001305E+02  0.91391446076E+02  0.41404458387E+02  0.12613768947E+03  0.00000000000E+00 0.  1.
<scales pt_clust_3="113.45605" pt_clust_4="91.70584" pt_clust_5="30.55567" pt_clust_6="14000.00000"></scales>
<clustering>
<clus scale="   30.556">  2  5  1 -1</clus>
<clus scale="   91.706">  1  4  2 -1</clus>
<clus scale="  113.456">  2  3  1 -1</clus>
<clus scale="   91.706">  1  3  2 -1</clus>
</clustering>
</event>
<event>
 6    0  0.1344929E+003  0.6736236E+02  0.7546771E-02  0.1369299E+00
         21   -1    0    0  503  501  0.00000000000E+00  0.00000000000E+00  0.10559266630E+04  0.10559266630E+04  0.00000000000E+00 0.  1.
         21   -1    0    0  505  502 -0.00000000000E+00 -0.00000000000E+00 -0.89343927210E+03  0.89343927210E+03  0.00000000000E+00 0. -1.
         21    1    1    2  503  504 -0.30978499105E+02 -0.17525131921E+02  0.57049801658E+03  0.57160719430E+03  0.00000000000E+00 0.  1.
         21    1    1    2  504  506 -0.76612213865E+02  0.38366440616E+02  0.12438934639E+03  0.15104345261E+03  0.00000000000E+00 0.  1.
         21    1    1    2  505  501  0.44509985468E+02 -0.44715097661E+02  0.34298309451E+03  0.34873769782E+03  0.00000000000E+00 0.  1.
         21    1    1    2  506  502  0.63080727501E+02  0.23873788965E+02 -0.87538306657E+03  0.87797759038E+03  0.00000000000E+00 0. -1.
<scales pt_clust_3="35.59210" pt_clust_4="67.36236" pt_clust_5="61.44907" pt_clust_6="14000.00000"></scales>
<clustering>
<clus scale="   35.592">  1  3  2 -1</clus>
<clus scale="   61.449">  1  5  2 -1</clus>
<clus scale="   67.362">  1  4  2 -1</clus>
<clus scale="   35.592">  1  3  2 -1</clus>
</clustering>
</event>
<event>
 6    0  0.1344929E+003  0.1538249E+03  0.7546771E-02  0.1195850E+00
         21   -1    0    0  503  501  0.00000000000E+00  0.00000000000E+00  0.64936759969E+02  0.64936759969E+02  0.00000000000E+00 0. -1.
         21   -1    0    0  504  502 -0.00000000000E+00 -0.00000000000E+00 -0.80603041703E+03  0.80603041703E+03  0.00000000000E+00 0.  1.
         21    1    1    2  503  502 -0.21093168559E+02 -0.31136432606E+02 -0.42887163356E+03  0.43051745291E+03  0.00000000000E+00 0.  1.
         21    1    1    2  504  505 -0.12655975207E+03 -0.29566310366E+02 -0.20614336984E+03  0.24369371449E+03  0.00000000000E+00 0.  1.
         21    1    1    2  505  506  0.46943967691E+02  0.25318072220E+02 -0.60596303198E+02  0.80725787979E+02  0.00000000000E+00 0. -1.
         21    1    1    2  506  501  0.10070895293E+03  0.35384670752E+02 -0.45482350471E+02  0.11603022162E+03  0.00000000000E+00 0. -1.
<scales pt_clust_3="37.60850" pt_clust_4="147.26868" pt_clust_5="31.40624" pt_clust_6="31.40624"></scales>
<clustering>
<clus scale="   31.406">  5  6 -1 -1</clus>
<clus scale="   37.608">  2  3  1 -1</clus>
<clus scale="  147.269">  2  4  1 -1</clus>
<clus scale="  153.825">  1  3  2 -1</clus>
</clustering>
</event>
<event>
 6    0  0.1344929E+003  0.1051439E+03  0.7546771E-02  0.1269836E+00
         21   -1    0    0  506  501  0.00000000000E+00  0.00000000000E+00  0.57432555855E+03  0.57432555855E+03  0.00000000000E+00 0. -1.
         21   -1    0    0  505  502 -0.00000000000E+00 -0.00000000000E+00 -0.49799323653E+03  0.49799323653E+03  0.00000000000E+00 0. -1.
         21    1    1    2  503  502  0.14150454988E+03  0.10287751337E+02  0.14284192517E+03  0.20132856491E+03  0.00000000000E+00 0. -1.
         21    1    1    2  504  501 -0.80661889708E+02  0.76990845447E+02 -0.14260601577E+03  0.18102598285E+03  0.00000000000E+00 0. -1.
         21    1    1    2  505  504 -0.12798157446E+02 -0.35145037918E+02 -0.30249166795E+03  0.30479530132E+03  0.00000000000E+00 0. -1.
         21    1    1    2  506  503 -0.48044502723E+02 -0.52133558866E+02  0.37858808058E+03  0.38516894600E+03  0.00000000000E+00 0. -1.
<scales pt_clust_3="105.14391" pt_clust_4="14000.00000" pt_clust_5="37.40276" pt_clust_6="71.48038"></scales>
<clustering>
<clus scale="   37.403">  2  5  1 -1</clus>
<clus scale="   71.480">  1  6  2 -1</clus>
<clus scale="  105.144">  1  3  2 -1</clus>
<clus scale="   71.480">  1  3  2 -1</clus>
</clustering>
</event>
<event>
 6    0  0.1344929E+003  0.9013536E+02  0.7546771E-02  0.1302524E+00
         21   -1    0    0  506  501  0.00000000000E+00  0.00000000000E+00  0.53663371212E+03  0.53663371212E+03  0.00000000000E+00 0. -1.
         21   -1    0    0  505  502 -0.00000000000E+00 -0.00000000000E+00 -0.18054875697E+03  0.18054875697E+03  0.00000000000E+00 0.  1.
         21    1    1    2  503  502 -0.10803323576E+02  0.43894387351E+02 -0.59337561440E+02  0.74594740021E+02  0.00000000000E+00 0.  1.
         21    1    1    2  504  501 -0.53654269338E+02  0.65387200939E+02  0.35419707857E+03  0.36415633611E+03  0.00000000000E+00 0. -1.
         21    1    1    2  505  504  0.13961029721E+03 -0.12650673539E+03  0.16082197028E+02  0.18908629313E+03  0.00000000000E+00 0.  1.
         21    1    1    2  506  503 -0.75152704295E+02  0.17225147104E+02  0.45143240996E+02  0.89345099828E+02  0.00000000000E+00 0. -1.
<scales pt_clust_3="45.20430" pt_clust_4="90.13536" pt_clust_5="14000.00000" pt_clust_6="81.43832"></scales>
<clustering>
<clus scale="   45.204">  2  3  1 -1</clus>
<clus scale="   81.438">  2  6  1 -1</clus>
<clus scale="   90.135">  1  4  2 -1</clus>
<clus scale="   90.135">  1  3  2 -1</clus>
</clustering>
</event>
<event>
 6    0  0.1344929E+003  0.1034521E+03  0.7546771E-02  0.1273200E+00
         21   -1    0    0  506  501  0.00000000000E+00  0.00000000000E+00  0.12649723990E+04  0.12649723990E+04  0.00000000000E+00 0.  1.
         21   -1    0    0  505  502 -0.00000000000E+00 -0.00000000000E+00 -0.34099094790E+03  0.34099094790E+03  0.00000000000E+00 0.  1.
         21    1    1    2  503  502  0.10487073289E+02 -0.38825751117E+02 -0.27643716905E+01  0.40312025586E+02  0.00000000000E+00 0.  1.
         21    1    1    2  504  503  0.50499165055E+01  0.97452670763E+02  0.89061713258E+02  0.13211553074E+03  0.00000000000E+00 0.  1.
         21    1    1    2  505  501  0.54230852317E+02 -0.53757083810E+02 -0.29193370911E+03  0.30175503296E+03  0.00000000000E+00 0.  1.
         21    1    1    2  506  504 -0.69767842112E+02 -0.48698358357E+01  0.11296178187E+04  0.11317807576E+04  0.00000000000E+00 0.  1.
<scales pt_clust_3="40.21713" pt_clust_4="103.45212" pt_clust_5="14000.00000" pt_clust_6="69.91146"></scales>
<clustering>
<clus scale="   40.217">  2  3  1 -1</clus>
<clus scale="   69.911">  1  6  2 -1</clus>
<clus scale="  103.452">  1  4  2 -1</clus>
<clus scale="   69.911">  1  3  2 -1</clus>
</clustering>
</event>
<event>
 6    0  0.1344929E+003  0.6672475E+02  0.7546771E-02  0.1371599E+00
         21   -1    0    0  504  501  0.00000000000E+00  0.00000000000E+00  0.61808071417E+03  0.61808071417E+03  0.00000000000E+00 0. -1.
         21   -1    0    0  506  502 -0.00000000000E+00 -0.00000000000E+00 -0.25271447524E+03  0.25271447524E+03  0.00000000000E+00 0. -1.
         21    1    1    2  503  502 -0.59543443490E+02  0.84478971784E+02  0.27841096363E+03  0.29697606470E+03  0.00000000000E+00 0. -1.
         21    1    1    2  504  503 -0.41822118763E+02 -0.26274678847E+02  0.24259071906E+03  0.24756757732E+03  0.00000000000E+00 0. -1.
         21    1    1    2  505  501  0.40400663737E+02 -0.31975616548E+02  0.72339586035E+02  0.88812551995E+02  0.00000000000E+00 0. -1.
         21    1    1    2  506  505  0.60964898515E+02 -0.26228676389E+02 -0.22797502981E+03  0.23743899539E+03  0.00000000000E+00 0. -1.
<scales pt_clust_3="14000.00000" pt_clust_4="49.39077" pt_clust_5="49.00484" pt_clust_6="66.72475"></scales>
<clustering>
<clus scale="   49.391">  1  4  2 -1</clus>
<clus scale="   49.005">  1  5  2 -1</clus>
<clus scale="   66.725">  2  6  1 -1</clus>
<clus scale="   49.391">  1  3  2 -1</clus>
</clustering>
</event>
<event>
 6    0  0.1344929E+003  0.7426248E+02  0.7546771E-02  0.1346170E+00
         21   -1    0    0  503  501  0.00000000000E+00  0.00000000000E+00  0.11444592388E+03  0.11444592388E+03  0.00000000000E+00 0.  1.
         21   -1    0    0  506  502 -0.00000000000E+00 -0.00000000000E+00 -0.33571517982E+04  0.33571517982E+04  0.00000000000E+00 0. -1.
         21    1    1    2  503  504  0.62218284460E+02  0.40158387383E+02  0.91508149307E+02  0.11771810561E+03  0.00000000000E+00 0.  1.
         21    1    1    2  504  505 -0.11549015364E+03  0.20565073964E+02 -0.76645310385E+03  0.77537813888E+03  0.00000000000E+00 0. -1.
         21    1    1    2  505  502  0.18365136395E+02 -0.29272713556E+02 -0.24678712625E+04  0.24681131940E+04  0.00000000000E+00 0. -1.
         21    1    1    2  506  501  0.34906732781E+02 -0.31450747790E+02 -0.99889657278E+02  0.11038828362E+03  0.00000000000E+00 0. -1.
<scales pt_clust_3="14000.00000" pt_clust_4="74.26248" pt_clust_5="34.55676" pt_clust_6="50.92796"></scales>
<clustering>
<clus scale="   34.557">  2  5  1 -1</clus>
<clus scale="   50.928">  2  6  1 -1</clus>
<clus scale="   74.262">  2  4  1 -1</clus>
<clus scale="   74.262">  1  3  2 -1</clus>
</clustering>
</event>
<event>
 6    0  0.1344929E+003  0.2324902E+03  0.7546771E-02  0.1124899E+00
         21   -1    0    0  506  501  0.00000000000E+00  0.00000000000E+00  0.44164773853E+03  0.44164773853E+03  0.00000000000E+00 0. -1.
         21   -1    0    0  505  502 -0.00000000000E+00 -0.00000000000E+00 -0.39696773528E+03  0.39696773528E+03  0.00000000000E+00 0.  1.
         21    1    1    2  503  502  0.10542642356E+03  0.20071470140E+03 -0.25655537231E+03  0.34237666568E+03  0.00000000000E+00 0.  1.
         21    1    1    2  504  501 -0.13236932007E+02  0.55999722779E+02  0.13822028841E+03  0.14971984988E+03  0.00000000000E+00 0. -1.
         21    1    1    2  505  504 -0.11360026436E+03 -0.23182642605E+03  0.10268749251E+03  0.27783670203E+03  0.00000000000E+00 0. -1.
         21    1    1    2  506  503  0.21410772803E+02 -0.24887998129E+02  0.60327594644E+02  0.68682256213E+02  0.00000000000E+00 0. -1.
<scales pt_clust_3="232.49024" pt_clust_4="46.77390" pt_clust_5="14000.00000" pt_clust_6="32.83038"></scales>
<clustering>
<clus scale="   32.830">  1  6  2 -1</clus>
<clus scale="   46.774">  1  4  2 -1</clus>
<clus scale="  232.490">  2  3  1 -1</clus>
<clus scale="   32.830">  1  3  2 -1</clus>
</clustering>
</event>
<event>
 6    0  0.1344929E+003  0.7287784E+02  0.7546771E-02  0.1350572E+00
         21   -1    0    0  504  501  0.00000000000E+00  0.00000000000E+00  0.21600740733E+04  0.21600740733E+04  0.00000000000E+00 0.  1.
         21   -1    0    0  506  502 -0.00000000000E+00 -0.00000000000E+00 -0.18176737567E+03  0.18176737567E+03  0.00000000000E+00 0. -1.
         21    1    1    2  503  501  0.81766569393E+02 -0.33155318031E+02  0.43625473789E+03  0.44508790516E+03  0.00000000000E+00 0.  1.
         21    1    1    2  504  502 -0.12052756375E+02  0.31057623770E+02  0.16154032760E+04  0.16157467589E+04  0.00000000000E+00 0.  1.
         21    1    1    2  505  503 -0.75214920006E+02 -0.44120011727E+02  0.81472403994E+02  0.11933822623E+03  0.00000000000E+00 0.  1.
         21    1    1    2  506  505  0.55011069881E+01  0.46217705988E+02 -0.15482372022E+03  0.16166855868E+03  0.00000000000E+00 0. -1.
<scales pt_clust_3="72.87784" pt_clust_4="33.31434" pt_clust_5="14000.00000" pt_clust_6="46.72893"></scales>
<clustering>
<clus scale="   33.314">  1  4  2 -1</clus>
<clus scale="   46.729">  2  6  1 -1</clus>
<clus scale="   72.878">  1  3  2 -1</clus>
<clus scale="   33.314">  1  3  2 -1</clus>
</clustering>
</event>
<event>
 6    0  0.1344929E+003  0.7331807E+02  0.7546771E-02  0.1349160E+00
         21   -1    0    0  505  501  0.00000000000E+00  0.00000000000E+00  0.35358291856E+03  0.35358291856E+03  0.00000000000E+00 0.  1.
         21   -1    0    0  506  502 -0.00000000000E+00 -0.00000000000E+00 -0.11250640250E+03  0.11250640250E+03  0.00000000000E+00 0. -1.
         21    1    1    2  503  502  0.50230370672E+02  0.53872238090E+02 -0.60422811129E+02  0.95269220000E+02  0.00000000000E+00 0. -1.
         21    1    1    2  504  501 -0.12910319577E+02  0.61444819113E+02  0.10074174674E+03  0.11870569356E+03  0.00000000000E+00 0. -1.
         21    1    1    2  505  503 -0.39877861685E+02 -0.21330904017E+02  0.11976345871E+03  0.12801772284E+03  0.00000000000E+00 0.  1.
         21    1    1    2  506  504  0.25578105901E+01 -0.93986153186E+02  0.80994121744E+02  0.12409668466E+03  0.00000000000E+00 0.  1.
<scales pt_clust_3="14000.00000" pt_clust_4="60.40297" pt_clust_5="45.22445" pt_clust_6="73.31807"></scales>
<clustering>
<clus scale="   45.224">  1  5  2 -1</clus>
<clus scale="   60.403">  1  4  2 -1</clus>
<clus scale="   73.318">  1  6  2 -1</clus>
<clus scale="   45.224">  1  3  2 -1</clus>
</clustering>
</event>
<event>
 6    0  0.1344929E+003  0.8743318E+02  0.7546771E-02  0.1309189E+00
         21   -1    0    0  505  501  0.00000000000E+00  0.00000000000E+00  0.18078446899E+04  0.18078446899E+04  0.00000000000E+00 0.  1.
         21   -1    0    0  506  502 -0.00000000000E+00 -0.00000000000E+00 -0.12413678765E+03  0.12413678765E+03  0.00000000000E+00 0.  1.
         21    1    1    2  503  501 -0.32097181994E+02 -0.23652838116E+01  0.11546180866E+04  0.11550665564E+04  0.00000000000E+00 0.  1.
         21    1    1    2  504  502  0.39190041766E+02 -0.88943588386E+02 -0.60673496033E+02  0.11457789669E+03  0.00000000000E+00 0.  1.
         21    1    1    2  505  504 -0.43181692102E+02  0.50904957411E+02  0.60290675036E+03  0.60659090238E+03  0.00000000000E+00 0. -1.
         21    1    1    2  506  503  0.36088832330E+02  0.40403914786E+02 -0.13143438715E+02  0.55746122110E+02  0.00000000000E+00 0. -1.
<scales pt_clust_3="32.18421" pt_clust_4="87.43318" pt_clust_5="14000.00000" pt_clust_6="53.42448"></scales>
<clustering>
<clus scale="   32.184">  1  3  2 -1</clus>
<clus scale="   53.424">  2  6  1 -1</clus>
<clus scale="   87.433">  2  4  1 -1</clus>
<clus scale="   32.184">  1  3  2 -1</clus>
</clustering>
</event>
<event>
 6    0  0.1344929E+003  0.1835287E+03  0.7546771E-02  0.1164431E+00
         21   -1    0    0  506  501  0.00000000000E+00  0.00000000000E+00  0.52460745512E+03  0.52460745512E+03  0.00000000000E+00 0.  1.
         21   -1    0    0  503  502 -0.00000000000E+00 -0.00000000000E+00 -0.11366859894E+03  0.11366859894E+03  0.00000000000E+00 0.  1.
         21    1    1    2  503  504  0.69337578470E+01  0.59882615406E+02  0.78096365237E+02  0.98656205527E+02  0.00000000000E+00 0.  1.
         21    1    1    2  504  501 -0.14519912035E+02  0.12061472531E+03  0.49442762001E+02  0.13116145212E+03  0.00000000000E+00 0.  1.
         21    1    1    2  505  502 -0.22367434357E+02 -0.16685782879E+03  0.54130432485E+02  0.17683874256E+03  0.00000000000E+00 0.  1.
         21    1    1    2  506  505  0.29953588544E+02 -0.13639511926E+02  0.22926929646E+03  0.23161965385E+03  0.00000000000E+00 0.  1.
<scales pt_clust_3="44.13438" pt_clust_4="44.13438" pt_clust_5="172.53894" pt_clust_6="32.91282"></scales>
<clustering>
<clus scale="   32.913">  1  6  2 -1</clus>
<clus scale="   44.134">  3  4 -1 -1</clus>
<clus scale="  172.539">  2  5  1 -1</clus>
<clus scale="   32.913">  1  3  2 -1</clus>
</clustering>
</event>
<event>
 6    0  0.1344929E+003  0.5670760E+02  0.7546771E-02  0.1412192E+00
         21   -1    0    0  504  501  0.00000000000E+00  0.00000000000E+00  0.38517134916E+04  0.38517134916E+04  0.00000000000E+00 0.  1.
         21   -1    0    0  506  502 -0.00000000000E+00 -0.00000000000E+00 -0.18722788897E+03  0.18722788897E+03  0.00000000000E+00 0. -1.
         21    1    1    2  503  505 -0.57520141709E+02 -0.54853953025E+02 -0.40044552604E+02  0.89000500324E+02  0.00000000000E+00 0. -1.
         21    1    1    2  504  503 -0.28310067681E+02 -0.48424053432E+02  0.63500709467E+03  0.63747969314E+03  0.00000000000E+00 0.  1.
         21    1    1    2  505  502  0.36085734484E+02  0.33392142582E+01 -0.11776692893E+03  0.12321680135E+03  0.00000000000E+00 0. -1.
         21    1    1    2  506  501  0.49744474906E+02  0.99938792199E+02  0.31872899895E+04  0.31892443857E+04  0.00000000000E+00 0.  1.
<scales pt_clust_3="14000.00000" pt_clust_4="55.70420" pt_clust_5="36.23990" pt_clust_6="56.70760"></scales>
<clustering>
<clus scale="   36.240">  2  5  1 -1</clus>
<clus scale="   55.704">  1  4  2 -1</clus>
<clus scale="   56.708">  1  6  2 -1</clus>
<clus scale="   55.704">  1  3  2 -1</clus>
</clustering>
</event>
<event>
 6    0  0.1344929E+003  0.9040354E+02  0.7546771E-02  0.1301877E+00
         21   -1    0    0  505  501  0.00000000000E+00  0.00000000000E+00  0.25660285893E+03  0.25660285893E+03  0.00000000000E+00 0.  1.
         21   -1    0    0  503  502 -0.00000000000E+00 -0.00000000000E+00 -0.34933216889E+03  0.34933216889E+03  0.00000000000E+00 0.  1.
         21    1    1    2  503  504  0.80303532858E+02 -0.41908228282E+02 -0.24028059161E+03  0.25678730438E+03  0.00000000000E+00 0.  1.
         21    1    1    2  504  506 -0.53231233495E+02 -0.69792157917E+01 -0.35857504829E+02  0.64560315404E+02  0.00000000000E+00 0. -1.
         21    1    1    2  505  502 -0.59742255479E+02  0.75927419099E+02  0.28133552281E+00  0.96613607791E+02  0.00000000000E+00 0. -1.
         21    1    1    2  506  501  0.32669956116E+02 -0.27039975025E+02  0.18312745096E+03  0.18797380024E+03  0.00000000000E+00 0.  1.
<scales pt_clust_3="14000.00000" pt_clust_4="48.26343" pt_clust_5="90.40354" pt_clust_6="42.40856"></scales>
<clustering>
<clus scale="   42.409">  1  6  2 -1</clus>
<clus scale="   48.263">  1  4  2 -1</clus>
<clus scale="   90.404">  1  5  2 -1</clus>
<clus scale="   42.409">  1  3  2 -1</clus>
</clustering>
</event>
<event>
 6    0  0.1344929E+003  0.6571266E+02  0.7546771E-02  0.1375311E+00
         21   -1    0    0  503  501  0.00000000000E+00  0.00000000000E+00  0.52168007649E+02  0.52168007649E+02  0.00000000000E+00 0. -1.
         21   -1    0    0  506  502 -0.00000000000E+00 -0.00000000000E+00 -0.12873141283E+04  0.12873141283E+04  0.00000000000E+00 0.  1.
         21    1    1    2  503  504 -0.55066406837E+02 -0.33573429036E+02  0.20173972701E+02  0.67575687001E+02  0.00000000000E+00 0. -1.
         21    1    1    2  504  502  0.83906199513E+02  0.48578130394E+02 -0.60329446251E+03  0.61103542742E+03  0.00000000000E+00 0.  1.
         21    1    1    2  505  501  0.23591264578E+01 -0.52748622122E+02 -0.44555582469E+03  0.44867357347E+03  0.00000000000E+00 0.  1.
         21    1    1    2  506  505 -0.31198919134E+02  0.37743920764E+02 -0.20646980613E+03  0.21219744803E+03  0.00000000000E+00 0.  1.
<scales pt_clust_3="65.71266" pt_clust_4="14000.00000" pt_clust_5="38.57324" pt_clust_6="48.96913"></scales>
<clustering>
<clus scale="   48.969">  2  6  1 -1</clus>
<clus scale="   38.573">  2  5  1 -1</clus>
<clus scale="   65.713">  1  3  2 -1</clus>
<clus scale="   65.713">  1  3  2 -1</clus>
</clustering>
</event>
<event>
 6    0  0.1344929E+003  0.8603700E+02  0.7546771E-02  0.1312743E+00
         21   -1    0    0  503  501  0.00000000000E+00  0.00000000000E+00  0.23989743493E+03  0.23989743493E+03  0.00000000000E+00 0. -1.
         21   -1    0    0  505  502 -0.00000000000E+00 -0.00000000000E+00 -0.71354553982E+03  0.71354553982E+03  0.00000000000E+00 0.  1.
         21    1    1    2  503  506 -0.95999746538E+01  0.52887205059E+02  0.85621953136E+02  0.10109567167E+03  0.00000000000E+00 0. -1.
         21    1    1    2  504  501 -0.72669235685E+02 -0.83096175562E+01  0.12544129839E+03  0.14520808139E+03  0.00000000000E+00 0. -1.
         21    1    1    2  505  504  0.53454281229E+02  0.27770812608E+02 -0.53503946877E+03  0.53841973530E+03  0.00000000000E+00 0.  1.
         21    1    1    2  506  502  0.28814929110E+02 -0.72348400110E+02 -0.14967188764E+03  0.16871948639E+03  0.00000000000E+00 0.  1.
<scales pt_clust_3="53.75143" pt_clust_4="14000.00000" pt_clust_5="60.42355" pt_clust_6="86.03700"></scales>
<clustering>
<clus scale="   53.751">  1  3  2 -1</clus>
<clus scale="   60.424">  2  5  1 -1</clus>
<clus scale="   86.037">  2  6  1 -1</clus>
<clus scale="   53.751">  1  3  2 -1</clus>
</clustering>
</event>
<event>
 6    0  0.1344929E+003  0.1240724E+03  0.7546771E-02  0.1236526E+00
         21   -1    0    0  506  501  0.00000000000E+00  0.00000000000E+00  0.30974430809E+04  0.30974430809E+04  0.00000000000E+00 0. -1.
         21   -1    0    0  505  502 -0.00000000000E+00 -0.00000000000E+00 -0.14940833268E+03  0.14940833268E+03  0.00000000000E+00 0. -1.
         21    1    1    2  503  501 -0.38127098549E+02  0.72213205088E+02  0.29317493470E+04  0.29328864036E+04  0.00000000000E+00 0. -1.
         21    1    1    2  504  502  0.25384356031E+01 -0.93638566866E+02 -0.90963824459E+02  0.13057198099E+03  0.00000000000E+00 0. -1.
         21    1    1    2  505  503  0.57317688200E+02 -0.18230449013E+02 -0.69690490363E+01  0.60549436795E+02  0.00000000000E+00 0. -1.
         21    1    1    2  506  504 -0.21729025253E+02  0.39655810791E+02  0.11421827468E+03  0.12284359218E+03  0.00000000000E+00 0. -1.
<scales pt_clust_3="124.07236" pt_clust_4="14000.00000" pt_clust_5="59.85338" pt_clust_6="45.21873"></scales>
<clustering>
<clus scale="   45.219">  1  6  2 -1</clus>
<clus scale="   59.853">  2  5  1 -1</clus>
<clus scale="  124.072">  1  3  2 -1</clus>
<clus scale="   45.219">  1  3  2 -1</clus>
</clustering>
</event>
<event>
 6    0  0.1344929E+003  0.8449355E+02  0.7546771E-02  0.1316762E+00
         21   -1    0    0  502  501  0.00000000000E+00  0.00000000000E+00  0.54641867899E+03  0.54641867899E+03  0.00000000000E+00 0. -1.
         21   -1    0    0  506  502 -0.00000000000E+00 -0.00000000000E+00 -0.41588269765E+02  0.41588269765E+02  0.00000000000E+00 0. -1.
         21    1    1    2  503  501 -0.45253318049E+02  0.20393884518E+02  0.14420425205E+03  0.15250783465E+03  0.00000000000E+00 0. -1.
         21    1    1    2  504  505  0.40663963319E+02 -0.85783390946E+02  0.14550130146E+03  0.17373248632E+03  0.00000000000E+00 0. -1.
         21    1    1    2  505  503  0.33627853892E+02  0.79262610459E+02  0.21273175568E+03  0.22949552032E+03  0.00000000000E+00 0. -1.
         21    1    1    2  506  504 -0.29038499162E+02 -0.13873104031E+02  0.23931000311E+01  0.32271107461E+02  0.00000000000E+00 0. -1.
<scales pt_clust_3="53.01140" pt_clust_4="84.49355" pt_clust_5="14000.00000" pt_clust_6="32.18225"></scales>
<clustering>
<clus scale="   32.182">  2  6  1 -1</clus>
<clus scale="   53.011">  1  3  2 -1</clus>
<clus scale="   84.494">  2  4  1 -1</clus>
<clus scale="   53.011">  1  3  2 -1</clus>
</clustering>
</event>
<event>
 6    0  0.1344929E+003  0.1277985E+03  0.7546771E-02  0.1230759E+00
         21   -1    0    0  503  501  0.00000000000E+00  0.00000000000E+00  0.15740790806E+04  0.15740790806E+04  0.00000000000E+00 0.  1.
         21   -1    0    0  505  502 -0.00000000000E+00 -0.00000000000E+00 -0.65081684063E+03  0.65081684063E+03  0.00000000000E+00 0.  1.
         21    1    1    2  503  506  0.32100666743E+02 -0.79609291811E+01  0.65672668017E+02  0.73530459833E+02  0.00000000000E+00 0.  1.
         21    1    1    2  504  502 -0.85520367144E+02 -0.90644120164E+02 -0.50544168637E+03  0.52057793657E+03  0.00000000000E+00 0.  1.
         21    1    1    2  505  501 -0.11969946963E+03  0.56912076716E+02  0.14332562105E+04  0.14393714991E+04  0.00000000000E+00 0.  1.
         21    1    1    2  506  504  0.17311917004E+03  0.41692972629E+02 -0.70224952172E+02  0.19141602573E+03  0.00000000000E+00 0.  1.
<scales pt_clust_3="33.07309" pt_clust_4="127.79853" pt_clust_5="101.79454" pt_clust_6="14000.00000"></scales>
<clustering>
<clus scale="   33.073">  1  3  2 -1</clus>
<clus scale="  101.795">  1  5  2 -1</clus>
<clus scale="  127.799">  2  4  1 -1</clus>
<clus scale="   33.073">  1  3  2 -1</clus>
</clustering>
</event>
<event>
 6    0  0.1344929E+003  0.1257215E+03  0.7546771E-02  0.1233946E+00
         21   -1    0    0  502  501  0.00000000000E+00  0.00000000000E+00  0.28757816815E+03  0.28757816815E+03  0.00000000000E+00 0. -1.
         21   -1    0    0  506  502 -0.00000000000E+00 -0.00000000000E+00 -0.39281116552E+03  0.39281116552E+03  0.00000000000E+00 0. -1.
         21    1    1    2  503  501 -0.47896581420E+02 -0.31892072063E+02  0.13189468530E+03  0.14390064205E+03  0.00000000000E+00 0. -1.
         21    1    1    2  504  505  0.87647911733E+02  0.39202394482E+02  0.19341116005E+02  0.97944182740E+02  0.00000000000E+00 0. -1.
         21    1    1    2  505  503 -0.31634759132E+02 -0.65062623414E+02  0.73694232480E+02  0.10327024185E+03  0.00000000000E+00 0. -1.
         21    1    1    2  506  504 -0.81165711811E+01  0.57752300994E+02 -0.33016303115E+03  0.33527426703E+03  0.00000000000E+00 0. -1.
<scales pt_clust_3="49.66542" pt_clust_4="112.71513" pt_clust_5="49.66542" pt_clust_6="58.31987"></scales>
<clustering>
<clus scale="   49.665">  3  5 -1 -1</clus>
<clus scale="   58.320">  2  6  1 -1</clus>
<clus scale="  112.715">  2  4  1 -1</clus>
<clus scale="  125.722">  1  3  2 -1</clus>
</clustering>
</event>
<event>
 6    0  0.1344929E+003  0.1015704E+03  0.7546771E-02  0.1277028E+00
         21   -1    0    0  503  501  0.00000000000E+00  0.00000000000E+00  0.27220817652E+03  0.27220817652E+03  0.00000000000E+00 0.  1.
         21   -1    0    0  505  502 -0.00000000000E+00 -0.00000000000E+00 -0.16950664245E+03  0.16950664245E+03  0.00000000000E+00 0.  1.
         21    1    1    2  503  504  0.10170557666E+03  0.11948787448E+02  0.19966961556E+03  0.22439864800E+03  0.00000000000E+00 0.  1.
         21    1    1    2  504  506 -0.70230701594E+02  0.44815520787E+01 -0.26942067650E+02  0.75354566979E+02  0.00000000000E+00 0.  1.
         21    1    1    2  505  501  0.17146562735E+02 -0.29537570885E+02  0.19438803744E+02  0.39298088991E+02  0.00000000000E+00 0.  1.
         21    1    1    2  506  502 -0.48621437802E+02  0.13107231358E+02 -0.89464817587E+02  0.10266351501E+03  0.00000000000E+00 0.  1.
<scales pt_clust_3="101.57038" pt_clust_4="14000.00000" pt_clust_5="34.15366" pt_clust_6="49.70262"></scales>
<clustering>
<clus scale="   34.154">  1  5  2 -1</clus>
<clus scale="   49.703">  2  6  1 -1</clus>
<clus scale="  101.570">  1  3  2 -1</clus>
<clus scale="   34.154">  1  3  2 -1</clus>
</clustering>
</event>
<event>
 6    0  0.1344929E+003  0.7535936E+02  0.7546771E-02  0.1342762E+00
         21   -1    0    0  504  501  0.00000000000E+00  0.00000000000E+00  0.21650292650E+03  0.21650292650E+03  0.00000000000E+00 0.  1.
         21   -1    0    0  506  502 -0.00000000000E+00 -0.00000000000E+00 -0.29190867556E+04  0.29190867556E+04  0.00000000000E+00 0. -1.
         21    1    1    2  503  501  0.23126675241E+01  0.41946036158E+02  0.19940264838E+03  0.20377986790E+03  0.00000000000E+00 0.  1.
         21    1    1    2  504  505 -0.56761205766E-01  0.33374692214E+02 -0.11386112420E+02  0.35263534398E+02  0.00000000000E+00 0. -1.
         21    1    1    2  505  502  0.59068076808E+02  0.27927580869E+02 -0.97963193944E+03  0.98180839487E+03  0.00000000000E+00 0. -1.
         21    1    1    2  506  503 -0.61323983127E+02 -0.10324830924E+03 -0.19109684256E+04  0.19147378849E+04  0.00000000000E+00 0. -1.
<scales pt_clust_3="14000.00000" pt_clust_4="33.37474" pt_clust_5="65.41330" pt_clust_6="75.35936"></scales>
<clustering>
<clus scale="   33.375">  1  4  2 -1</clus>
<clus scale="   65.413">  2  5  1 -1</clus>
<clus scale="   75.359">  2  6  1 -1</clus>
<clus scale="   33.375">  1  3  2 -1</clus>
</clustering>
</event>
<event>
 6    0  0.1344929E+003  0.1166736E+03  0.7546771E-02  0.1248688E+00
         21   -1    0    0  506  501  0.00000000000E+00  0.00000000000E+00  0.17929237807E+03  0.17929237807E+03  0.00000000000E+00 0.  1.
         21   -1    0    0  504  502 -0.00000000000E+00 -0.00000000000E+00 -0.33423522958E+03  0.33423522958E+03  0.00000000000E+00 0. -1.
         21    1    1    2  503  502  0.87769541742E+02  0.79377296166E+02 -0.28984162248E+03  0.31306934332E+03  0.00000000000E+00 0. -1.
         21    1    1    2  504  505 -0.11821745246E+02 -0.33519755007E+02  0.49076232397E+01  0.35880529570E+02  0.00000000000E+00 0.  1.
         21    1    1    2  505  501 -0.13129929294E+02 -0.34743786541E+02  0.48168274156E+02  0.60825228168E+02  0.00000000000E+00 0.  1.
         21    1    1    2  506  503 -0.62817867202E+02 -0.11113754618E+02  0.81822873583E+02  0.10375250659E+03  0.00000000000E+00 0.  1.
<scales pt_clust_3="111.17677" pt_clust_4="34.62005" pt_clust_5="34.62005" pt_clust_6="63.79342"></scales>
<clustering>
<clus scale="   34.620">  4  5 -1 -1</clus>
<clus scale="   63.793">  1  6  2 -1</clus>
<clus scale="  111.177">  2  3  1 -1</clus>
<clus scale="   63.793">  1  3  2 -1</clus>
</clustering>
</event>
<event>
 6    0  0.1344929E+003  0.1324942E+03  0.7546771E-02  0.1223801E+00
         21   -1    0    0  505  501  0.00000000000E+00  0.00000000000E+00  0.26049880065E+02  0.26049880065E+02  0.00000000000E+00 0.  1.
         21   -1    0    0  506  502 -0.00000000000E+00 -0.00000000000E+00 -0.16853882288E+04  0.16853882288E+04  0.00000000000E+00 0.  1.
         21    1    1    2  503  501  0.97741032159E+02  0.41556566921E+02 -0.15405913120E+03  0.18712154747E+03  0.00000000000E+00 0.  1.
         21    1    1    2  504  502 -0.10118103672E+03 -0.61559992502E+02 -0.70044146331E+03  0.71038403586E+03  0.00000000000E+00 0.  1.
         21    1    1    2  505  504 -0.37510197921E+02 -0.37055192121E+01 -0.90585890933E+02  0.98114980797E+02  0.00000000000E+00 0.  1.
         21    1    1    2  506  503  0.40950202486E+02  0.23708944793E+02 -0.71425186328E+03  0.71581754473E+03  0.00000000000E+00 0.  1.
<scales pt_clust_3="114.46914" pt_clust_4="37.63927" pt_clust_5="37.63927" pt_clust_6="47.31842"></scales>
<clustering>
<clus scale="   37.639">  4  5 -1 -1</clus>
<clus scale="   47.318">  2  6  1 -1</clus>
<clus scale="  114.469">  1  3  2 -1</clus>
<clus scale="  114.469">  1  3  2 -1</clus>
</clustering>
</event>
<event>
 6    0  0.1344929E+003  0.1729634E+03  0.7546771E-02  0.1174792E+00
         21   -1    0    0  505  501  0.00000000000E+00  0.00000000000E+00  0.14513980522E+04  0.14513980522E+04  0.00000000000E+00 0.  1.
         21   -1    0    0  503  502 -0.00000000000E+00 -0.00000000000E+00 -0.16541698737E+03  0.16541698737E+03  0.00000000000E+00 0.  1.
         21    1    1    2  503  501 -0.10042243714E+03  0.16402768380E+03  0.41154875870E+03  0.45427098490E+03  0.00000000000E+00 0.  1.
         21    1    1    2  504  506  0.15789777467E+03 -0.82374527662E+02  0.37950567711E+03  0.41921573088E+03  0.00000000000E+00 0.  1.
         21    1    1    2  505  504  0.28653951651E+02 -0.52048349930E+02  0.60076657536E+03  0.60369740578E+03  0.00000000000E+00 0.  1.
         21    1    1    2  506  502 -0.86129289181E+02 -0.29604806210E+02 -0.10583994638E+03  0.13963091797E+03  0.00000000000E+00 0.  1.
<scales pt_clust_3="172.96336" pt_clust_4="14000.00000" pt_clust_5="59.41447" pt_clust_6="90.88017"></scales>
<clustering>
<clus scale="   59.414">  1  5  2 -1</clus>
<clus scale="   90.880">  2  6  1 -1</clus>
<clus scale="  172.963">  1  3  2 -1</clus>
<clus scale="   59.414">  1  3  2 -1</clus>
</clustering>
</event>
<event>
 6    0  0.1344929E+003  0.5670551E+02  0.7546771E-02  0.1412201E+00
         21   -1    0    0  505  501  0.00000000000E+00  0.00000000000E+00  0.78784163683E+02  0.78784163683E+02  0.00000000000E+00 0. -1.
         21   -1    0    0  506  502 -0.00000000000E+00 -0.00000000000E+00 -0.50722534542E+03  0.50722534542E+03  0.00000000000E+00 0.  1.
         21    1    1    2  503  502  0.40694506473E+02  0.36997505179E+02 -0.35829042556E+03  0.36248708569E+03  0.00000000000E+00 0.  1.
         21    1    1    2  504  503 -0.97154454098E+02 -0.42324571441E+02  0.22719816356E+01  0.10599773205E+03  0.00000000000E+00 0. -1.
         21    1    1    2  505  504  0.15257091076E+02 -0.32299693158E+02 -0.37011710395E+02  0.51438465302E+02  0.00000000000E+00 0. -1.
         21    1    1    2  506  501  0.41202856548E+02  0.37626759420E+02 -0.35411027417E+02  0.66086226061E+02  0.00000000000E+00 0.  1.
<scales pt_clust_3="56.70551" pt_clust_4="14000.00000" pt_clust_5="35.72183" pt_clust_6="54.04250"></scales>
<clustering>
<clus scale="   35.722">  1  5  2 -1</clus>
<clus scale="   54.043">  1  6  2 -1</clus>
<clus scale="   56.706">  2  3  1 -1</clus>
<clus scale="   35.722">  1  3  2 -1</clus>
</clustering>
</event>
<event>
 6    0  0.1344929E+003  0.6889144E+02  0.7546771E-02  0.1363904E+00
         21   -1    0    0  504  501  0.00000000000E+00  0.00000000000E+00  0.19744205330E+03  0.19744205330E+03  0.00000000000E+00 0. -1.
         21   -1    0    0  503  502 -0.00000000000E+00 -0.00000000000E+00 -0.15687444469E+03  0.15687444469E+03  0.00000000000E+00 0. -1.
         21    1    1    2  503  506  0.41296469541E+02 -0.56229438281E+02 -0.84827211845E+02  0.10983079712E+03  0.00000000000E+00 0. -1.
         21    1    1    2  504  502  0.27166119527E+02 -0.17078044688E+02  0.30836604286E+02  0.44503413627E+02  0.00000000000E+00 0. -1.
         21    1    1    2  505  501 -0.70182152743E+02 -0.49989573948E+01  0.99086281626E+02  0.12152619201E+03  0.00000000000E+00 0. -1.
         21    1    1    2  506  505  0.17195636746E+01  0.78306440364E+02 -0.45280654571E+01  0.78456095228E+02  0.00000000000E+00 0. -1.
<scales pt_clust_3="68.89144" pt_clust_4="32.08828" pt_clust_5="54.09805" pt_clust_6="14000.00000"></scales>
<clustering>
<clus scale="   32.088">  1  4  2 -1</clus>
<clus scale="   54.098">  1  5  2 -1</clus>
<clus scale="   68.891">  2  3  1 -1</clus>
<clus scale="   32.088">  1  3  2 -1</clus>
</clustering>
</event>
<event>
 6    0  0.1344929E+003  0.7255560E+02  0.7546771E-02  0.1351612E+00
         21   -1    0    0  505  501  0.00000000000E+00  0.00000000000E+00  0.59590190568E+03  0.59590190568E+03  0.00000000000E+00 0.  1.
         21   -1    0    0  506  502 -0.00000000000E+00 -0.00000000000E+00 -0.48447600822E+02  0.48447600822E+02  0.00000000000E+00 0.  1.
         21    1    1    2  503  502  0.30868967873E+02 -0.32582301731E+02  0.16891780044E+02  0.47956561560E+02  0.00000000000E+00 0. -1.
         21    1    1    2  504  501 -0.26749217165E+02  0.14289498841E+02  0.77775073526E+02  0.83478574844E+02  0.00000000000E+00 0.  1.
         21    1    1    2  505  503  0.75279679383E+02 -0.45525458398E+02  0.37379449162E+03  0.38400770755E+03  0.00000000000E+00 0.  1.
         21    1    1    2  506  504 -0.79399430091E+02  0.63818261287E+02  0.78992959664E+02  0.12890666255E+03  0.00000000000E+00 0.  1.
<scales pt_clust_3="43.07700" pt_clust_4="30.32673" pt_clust_5="14000.00000" pt_clust_6="72.55560"></scales>
<clustering>
<clus scale="   30.327">  1  4  2 -1</clus>
<clus scale="   43.077">  2  3  1 -1</clus>
<clus scale="   72.556">  2  6  1 -1</clus>
<clus scale="   30.327">  1  3  2 -1</clus>
</clustering>
</event>
<event>
 6    0  0.1344929E+003  0.2150343E+03  0.7546771E-02  0.1137640E+00
         21   -1    0    0  502  501  0.00000000000E+00  0.00000000000E+00  0.96968416442E+03  0.96968416442E+03  0.00000000000E+00 0. -1.
         21   -1    0    0  505  502 -0.00000000000E+00 -0.00000000000E+00 -0.36691076355E+03  0.36691076355E+03  0.00000000000E+00 0. -1.
         21    1    1    2  503  504  0.18414609000E+03 -0.72853835668E+02  0.37130739661E+03  0.42081664251E+03  0.00000000000E+00 0. -1.
         21    1    1    2  504  501 -0.20227411695E+02 -0.77191430397E+02  0.52753573153E+03  0.53353689015E+03  0.00000000000E+00 0. -1.
         21    1    1    2  505  506 -0.33521862095E+02  0.30572041036E+01 -0.96384254098E+02  0.10209302705E+03  0.00000000000E+00 0. -1.
         21    1    1    2  506  503 -0.13039681621E+03  0.14698806196E+03 -0.19968547317E+03  0.28014836825E+03  0.00000000000E+00 0. -1.
<scales pt_clust_3="215.03428" pt_clust_4="79.86062" pt_clust_5="33.66098" pt_clust_6="14000.00000"></scales>
<clustering>
<clus scale="   33.661">  2  5  1 -1</clus>
<clus scale="   79.861">  1  4  2 -1</clus>
<clus scale="  215.034">  1  3  2 -1</clus>
<clus scale="   79.861">  1  3  2 -1</clus>
</clustering>
</event>
<event>
 6    0  0.1344929E+003  0.2110311E+03  0.7546771E-02  0.1140752E+00
         21   -1    0    0  503  501  0.00000000000E+00  0.00000000000E+00  0.18379758672E+03  0.18379758672E+03  0.00000000000E+00 0. -1.
         21   -1    0    0  506  502 -0.00000000000E+00 -0.00000000000E+00 -0.10660449637E+04  0.10660449637E+04  0.00000000000E+00 0.  1.
         21    1    1    2  503  502 -0.17074735893E+03  0.96569153801E+02 -0.57236782128E+03  0.60504973753E+03  0.00000000000E+00 0.  1.
         21    1    1    2  504  501  0.42258631781E+01 -0.30184678919E+02  0.92600473004E+02  0.97487539520E+02  0.00000000000E+00 0.  1.
         21    1    1    2  505  504  0.16621523780E+03 -0.11166904357E+03 -0.70562032230E+02  0.21231222518E+03  0.00000000000E+00 0. -1.
         21    1    1    2  506  505  0.30625795463E+00  0.45284568692E+02 -0.33191799651E+03  0.33499304823E+03  0.00000000000E+00 0.  1.
<scales pt_clust_3="211.03106" pt_clust_4="30.47905" pt_clust_5="14000.00000" pt_clust_6="44.76327"></scales>
<clustering>
<clus scale="   30.479">  1  4  2 -1</clus>
<clus scale="   44.763">  2  6  1 -1</clus>
<clus scale="  211.031">  2  3  1 -1</clus>
<clus scale="   30.479">  1  3  2 -1</clus>
</clustering>
</event>
<event>
 6    0  0.1344929E+003  0.1686258E+03  0.7546771E-02  0.1179289E+00
         21   -1    0    0  503  501  0.00000000000E+00  0.00000000000E+00  0.30129475459E+03  0.30129475459E+03  0.00000000000E+00 0. -1.
         21   -1    0    0  505  502 -0.00000000000E+00 -0.00000000000E+00 -0.68664067068E+03  0.68664067068E+03  0.00000000000E+00 0. -1.
         21    1    1    2  503  504  0.41844362249E+02 -0.18257273646E+03  0.13508264523E+03  0.23093521991E+03  0.00000000000E+00 0. -1.
         21    1    1    2  504  506 -0.57197187308E+02  0.14298019323E+03 -0.20621357166E+03  0.25736917265E+03  0.00000000000E+00 0. -1.
         21    1    1    2  505  501 -0.29510009161E+02  0.13145850082E+02  0.88163739541E+02  0.93896213901E+02  0.00000000000E+00 0. -1.
         21    1    1    2  506  502  0.44862834221E+02  0.26446693149E+02 -0.40237872920E+03  0.40573481880E+03  0.00000000000E+00 0. -1.
<scales pt_clust_3="14000.00000" pt_clust_4="168.62581" pt_clust_5="32.30563" pt_clust_6="51.92866"></scales>
<clustering>
<clus scale="   32.306">  1  5  2 -1</clus>
<clus scale="   51.929">  2  6  1 -1</clus>
<clus scale="  168.626">  2  4  1 -1</clus>
<clus scale="   32.306">  1  3  2 -1</clus>
</clustering>
</event>
<event>
 6    0  0.1344929E+003  0.7011435E+02  0.7546771E-02  0.1359705E+00
         21   -1    0    0  506  501  0.00000000000E+00  0.00000000000E+00  0.58753709204E+03  0.58753709204E+03  0.00000000000E+00 0. -1.
         21   -1    0    0  504  502 -0.00000000000E+00 -0.00000000000E+00 -0.17078265753E+03  0.17078265753E+03  0.00000000000E+00 0.  1.
         21    1    1    2  503  501  0.78922226905E+02  0.71104598641E+02  0.74938748864E+02  0.13000153049E+03  0.00000000000E+00 0. -1.
         21    1    1    2  504  503 -0.69945161489E+02  0.31446129270E+02 -0.60807297690E+02  0.97870895133E+02  0.00000000000E+00 0.  1.
         21    1    1    2  505  502  0.13075638647E+02 -0.60551061945E+02 -0.47356305310E+02  0.77974502764E+02  0.00000000000E+00 0. -1.
         21    1    1    2  506  505 -0.22052704063E+02 -0.41999665967E+02  0.44997928865E+03  0.45247282119E+03  0.00000000000E+00 0. -1.
<scales pt_clust_3="70.11435" pt_clust_4="14000.00000" pt_clust_5="66.12303" pt_clust_6="47.43726"></scales>
<clustering>
<clus scale="   47.437">  1  6  2 -1</clus>
<clus scale="   66.123">  2  5  1 -1</clus>
<clus scale="   70.114">  1  3  2 -1</clus>
<clus scale="   47.437">  1  3  2 -1</clus>
</clustering>
</event>
<event>
 6    0  0.1344929E+003  0.1641951E+03  0.7546771E-02  0.1184040E+00
         21   -1    0    0  505  501  0.00000000000E+00  0.00000000000E+00  0.60639493909E+03  0.60639493909E+03  0.00000000000E+00 0. -1.
         21   -1    0    0  504  502 -0.00000000000E+00 -0.00000000000E+00 -0.24793905530E+03  0.24793905530E+03  0.00000000000E+00 0.  1.
         21    1    1    2  503  506 -0.42422964120E+02 -0.55152387769E+02 -0.89702651663E+02  0.11352558952E+03  0.00000000000E+00 0.  1.
         21    1    1    2  504  501 -0.55711268976E+00  0.35665900387E+02  0.23398082024E+03  0.23668415888E+03  0.00000000000E+00 0. -1.
         21    1    1    2  505  503  0.13403910333E+03  0.49612960882E+02  0.32650602961E+03  0.35641845419E+03  0.00000000000E+00 0. -1.
         21    1    1    2  506  502 -0.91059026523E+02 -0.30126473499E+02 -0.11232831440E+03  0.14770579180E+03  0.00000000000E+00 0.  1.
<scales pt_clust_3="41.00200" pt_clust_4="35.67025" pt_clust_5="156.92237" pt_clust_6="41.00200"></scales>
<clustering>
<clus scale="   35.670">  1  4  2 -1</clus>
<clus scale="   41.002">  3  6 -1 -1</clus>
<clus scale="  156.922">  1  5  2 -1</clus>
<clus scale="   35.670">  1  3  2 -1</clus>
</clustering>
</event>
<event>
 6    0  0.1344929E+003  0.3500138E+03  0.7546771E-02  0.1062609E+00
         21   -1    0    0  504  501  0.00000000000E+00  0.00000000000E+00  0.66112429702E+03  0.66112429702E+03  0.00000000000E+00 0.  1.
         21   -1    0    0  503  502 -0.00000000000E+00 -0.00000000000E+00 -0.25213944856E+03  0.25213944856E+03  0.00000000000E+00 0.  1.
         21    1    1    2  503  505 -0.89485699566E+01 -0.42699760297E+02 -0.13167175844E+02  0.45571053898E+02  0.00000000000E+00 0.  1.
         21    1    1    2  504  506  0.33759664998E+03  0.10205455701E+03  0.20287506149E+03  0.40687211905E+03  0.00000000000E+00 0.  1.
         21    1    1    2  505  501 -0.33482720697E+03 -0.93550427278E+02  0.23803343915E+03  0.42133224316E+03  0.00000000000E+00 0.  1.
         21    1    1    2  506  502  0.61791269461E+01  0.34195630570E+02 -0.18756476342E+02  0.39488329474E+02  0.00000000000E+00 0.  1.
<scales pt_clust_3="39.05318" pt_clust_4="350.01376" pt_clust_5="14000.00000" pt_clust_6="34.74943"></scales>
<clustering>
<clus scale="   34.749">  2  6  1 -1</clus>
<clus scale="   39.053">  2  3  1 -1</clus>
<clus scale="  350.014">  2  4  1 -1</clus>
<clus scale="  350.014">  1  3  2 -1</clus>
</clustering>
</event>
<event>
 6    0  0.1344929E+003  0.1527597E+03  0.7546771E-02  0.1197122E+00
         21   -1    0    0  504  501  0.00000000000E+00  0.00000000000E+00  0.48247179666E+03  0.48247179666E+03  0.00000000000E+00 0.  1.
         21   -1    0    0  506  502 -0.00000000000E+00 -0.00000000000E+00 -0.28921045650E+03  0.28921045650E+03  0.00000000000E+00 0.  1.
         21    1    1    2  503  501  0.14561779306E+03  0.38200434465E+02  0.31712480460E+03  0.35104409487E+03  0.00000000000E+00 0.  1.
         21    1    1    2  504  502 -0.61133768124E+02 -0.15726879428E+03 -0.18025062948E+02  0.16969299972E+03  0.00000000000E+00 0.  1.
         21    1    1    2  505  503 -0.11889731067E+03  0.13260592543E+03 -0.51834484814E+02  0.18549316904E+03  0.00000000000E+00 0.  1.
         21    1    1    2  506  505  0.34413285738E+02 -0.13537565612E+02 -0.54003916677E+02  0.65451989538E+02  0.00000000000E+00 0.  1.
<scales pt_clust_3="152.75974" pt_clust_4="14000.00000" pt_clust_5="146.47057" pt_clust_6="36.98026"></scales>
<clustering>
<clus scale="   36.980">  2  6  1 -1</clus>
<clus scale="  152.760">  1  3  2 -1</clus>
<clus scale="  146.471">  2  5  1 -1</clus>
<clus scale="  152.760">  1  3  2 -1</clus>
</clustering>
</event>
<event>
 6    0  0.1344929E+003  0.1081927E+03  0.7546771E-02  0.1263954E+00
         21   -1    0    0  505  501  0.00000000000E+00  0.00000000000E+00  0.51672655333E+03  0.51672655333E+03  0.00000000000E+00 0.  1.
         21   -1    0    0  503  502 -0.00000000000E+00 -0.00000000000E+00 -0.37107233918E+03  0.37107233918E+03  0.00000000000E+00 0.  1.
         21    1    1    2  503  501  0.22132149385E+02  0.20304004503E+02  0.35187279305E+03  0.35315230019E+03  0.00000000000E+00 0.  1.
         21    1    1    2  504  502  0.43010840465E+01  0.60594860442E+02 -0.26529288109E+03  0.27215905128E+03  0.00000000000E+00 0.  1.
         21    1    1    2  505  506 -0.18809548028E+02 -0.11916250037E+03  0.13259107197E+03  0.17925928974E+03  0.00000000000E+00 0.  1.
         21    1    1    2  506  504 -0.76236854035E+01  0.38263635428E+02 -0.73516769789E+02  0.83228251306E+02  0.00000000000E+00 0. -1.
<scales pt_clust_3="30.03472" pt_clust_4="33.35030" pt_clust_5="99.90770" pt_clust_6="33.35030"></scales>
<clustering>
<clus scale="   30.035">  1  3  2 -1</clus>
<clus scale="   33.350">  4  6 -1 -1</clus>
<clus scale="   99.908">  1  5  2 -1</clus>
<clus scale="   30.035">  1  3  2 -1</clus>
</clustering>
</event>
<event>
 6    0  0.1344929E+003  0.9800695E+02  0.7546771E-02  0.1284544E+00
         21   -1    0    0  503  501  0.00000000000E+00  0.00000000000E+00  0.15514745972E+03  0.15514745972E+03  0.00000000000E+00 0. -1.
         21   -1    0    0  505  502 -0.00000000000E+00 -0.00000000000E+00 -0.14969825208E+03  0.14969825208E+03  0.00000000000E+00 0. -1.
         21    1    1    2  503  504 -0.13496559634E+02 -0.49236479612E+02  0.85926594526E+01  0.51770859014E+02  0.00000000000E+00 0. -1.
         21    1    1    2  504  506  0.23452436916E+02 -0.29629416452E+02 -0.11416538754E+00  0.37787989498E+02  0.00000000000E+00 0. -1.
         21    1    1    2  505  501 -0.99358159774E+02  0.17573170484E+02  0.23696172242E+02  0.10364539938E+03  0.00000000000E+00 0. -1.
         21    1    1    2  506  502  0.89402282491E+02  0.61292725581E+02 -0.26725458666E+02  0.11164146391E+03  0.00000000000E+00 0. -1.
<scales pt_clust_3="89.15662" pt_clust_4="34.73391" pt_clust_5="98.00695" pt_clust_6="14000.00000"></scales>
<clustering>
<clus scale="   34.734">  3  4 -1 -1</clus>
<clus scale="   89.157">  1  3  2 -1</clus>
<clus scale="   98.007">  1  5  2 -1</clus>
<clus scale="   89.157">  1  3  2 -1</clus>
</clustering>
</event>
<event>
 6    0  0.1344929E+003  0.1161106E+03  0.7546771E-02  0.1249655E+00
         21   -1    0    0  505  501  0.00000000000E+00  0.00000000000E+00  0.67305174570E+03  0.67305174570E+03  0.00000000000E+00 0. -1.
         21   -1    0    0  503  502 -0.00000000000E+00 -0.00000000000E+00 -0.97292262969E+02  0.97292262969E+02  0.00000000000E+00 0. -1.
         21    1    1    2  503  504  0.34468980866E+02  0.16647573319E+02 -0.35788891416E+02  0.52403216391E+02  0.00000000000E+00 0. -1.
         21    1    1    2  504  501 -0.32622002852E+00  0.10935217176E+03  0.83509015857E+02  0.13759273098E+03  0.00000000000E+00 0. -1.
         21    1    1    2  505  506  0.59298323174E+02 -0.24644336961E+02  0.34649465379E+03  0.35239491991E+03  0.00000000000E+00 0. -1.
         21    1    1    2  506  502 -0.93441084012E+02 -0.10135540812E+03  0.18154470450E+03  0.22795314139E+03  0.00000000000E+00 0. -1.
<scales pt_clust_3="38.27861" pt_clust_4="116.11064" pt_clust_5="65.64557" pt_clust_6="14000.00000"></scales>
<clustering>
<clus scale="   38.279">  2  3  1 -1</clus>
<clus scale="   65.646">  1  5  2 -1</clus>
<clus scale="  116.111">  2  4  1 -1</clus>
<clus scale="   65.646">  1  3  2 -1</clus>
</clustering>
</event>
<event>
 6    0  0.1344929E+003  0.1211949E+03  0.7546771E-02  0.1241139E+00
         21   -1    0    0  503  501  0.00000000000E+00  0.00000000000E+00  0.14355334836E+03  0.14355334836E+03  0.00000000000E+00 0. -1.
         21   -1    0    0  506  502 -0.00000000000E+00 -0.00000000000E+00 -0.20888962889E+03  0.20888962889E+03  0.00000000000E+00 0. -1.
         21    1    1    2  503  505 -0.93388488465E+02  0.39731151852E+02  0.68373646103E+02  0.12237209521E+03  0.00000000000E+00 0. -1.
         21    1    1    2  504  502  0.32915467564E+02  0.18361936826E+02 -0.47771424187E+02  0.60849796202E+02  0.00000000000E+00 0. -1.
         21    1    1    2  505  504  0.80241494072E+02 -0.31560746535E+02 -0.10105734466E+03  0.13284338524E+03  0.00000000000E+00 0. -1.
         21    1    1    2  506  501 -0.19768473170E+02 -0.26532342143E+02  0.15118842208E+02  0.36377700598E+02  0.00000000000E+00 0. -1.
<scales pt_clust_3="110.90474" pt_clust_4="32.31083" pt_clust_5="32.31083" pt_clust_6="33.08712"></scales>
<clustering>
<clus scale="   32.311">  4  5 -1 -1</clus>
<clus scale="   33.087">  1  6  2 -1</clus>
<clus scale="  110.905">  1  3  2 -1</clus>
<clus scale="   33.087">  1  3  2 -1</clus>
</clustering>
</event>
<event>
 6    0  0.1344929E+003  0.1250802E+03  0.7546771E-02  0.1234944E+00
         21   -1    0    0  504  501  0.00000000000E+00  0.00000000000E+00  0.62869137981E+03  0.62869137981E+03  0.00000000000E+00 0.  1.
         21   -1    0    0  506  502 -0.00000000000E+00 -0.00000000000E+00 -0.14688922378E+03  0.14688922378E+03  0.00000000000E+00 0.  1.
         21    1    1    2  503  505 -0.95693474344E+02  0.52811706002E+02  0.11085359247E+03  0.15567541966E+03  0.00000000000E+00 0.  1.
         21    1    1    2  504  502  0.21015331563E+02  0.36143123340E+02 -0.55183869190E+02  0.69233149172E+02  0.00000000000E+00 0.  1.
         21    1    1    2  505  501 -0.32325613322E+02 -0.58603763893E+01  0.41328145262E+03  0.41458515213E+03  0.00000000000E+00 0.  1.
         21    1    1    2  506  503  0.10700375610E+03 -0.83094452953E+02  0.12850980120E+02  0.13608688262E+03  0.00000000000E+00 0.  1.
<scales pt_clust_3="125.08023" pt_clust_4="41.11966" pt_clust_5="32.85254" pt_clust_6="14000.00000"></scales>
<clustering>
<clus scale="   32.853">  1  5  2 -1</clus>
<clus scale="   41.120">  2  4  1 -1</clus>
<clus scale="  125.080">  1  3  2 -1</clus>
<clus scale="   32.853">  1  3  2 -1</clus>
</clustering>
</event>
<event>
 6    0  0.1344929E+003  0.8261847E+02  0.7546771E-02  0.1321781E+00
         21   -1    0    0  506  501  0.00000000000E+00  0.00000000000E+00  0.27086747451E+04  0.27086747451E+04  0.00000000000E+00 0. -1.
         21   -1    0    0  503  502 -0.00000000000E+00 -0.00000000000E+00 -0.18590326884E+02  0.18590326884E+02  0.00000000000E+00 0. -1.
         21    1    1    2  503  505  0.48956884533E+02 -0.11503929887E+02  0.98467693521E+02  0.11056673828E+03  0.00000000000E+00 0. -1.
         21    1    1    2  504  502  0.21720793492E+02 -0.68645675307E+02  0.18637227565E+03  0.19979651333E+03  0.00000000000E+00 0. -1.
         21    1    1    2  505  501  0.18736547423E+02  0.31182966638E+02  0.19517989037E+04  0.19521379039E+04  0.00000000000E+00 0. -1.
         21    1    1    2  506  504 -0.89414225448E+02  0.48966638556E+02  0.45344554542E+03  0.46476391648E+03  0.00000000000E+00 0. -1.
<scales pt_clust_3="52.04481" pt_clust_4="14000.00000" pt_clust_5="36.37905" pt_clust_6="82.61847"></scales>
<clustering>
<clus scale="   36.379">  1  5  2 -1</clus>
<clus scale="   52.045">  2  3  1 -1</clus>
<clus scale="   82.618">  1  6  2 -1</clus>
<clus scale="   36.379">  1  3  2 -1</clus>
</clustering>
</event>
<event>
 6    0  0.1344929E+003  0.7745802E+02  0.7546771E-02  0.1336424E+00
         21   -1    0    0  506  501  0.00000000000E+00  0.00000000000E+00  0.13775102945E+03  0.13775102945E+03  0.00000000000E+00 0.  1.
         21   -1    0    0  503  502 -0.00000000000E+00 -0.00000000000E+00 -0.10917043427E+04  0.10917043427E+04  0.00000000000E+00 0.  1.
         21    1    1    2  503  504  0.10203217093E+03 -0.48891350531E+02 -0.94512010660E+03  0.95186813370E+03  0.00000000000E+00 0.  1.
         21    1    1    2  504  501 -0.46234517457E+02 -0.28985694259E+02  0.10378203091E+03  0.11725404478E+03  0.00000000000E+00 0.  1.
         21    1    1    2  505  502 -0.26440486127E+02  0.19396497309E+02 -0.81553660498E+02  0.87899504863E+02  0.00000000000E+00 0. -1.
         21    1    1    2  506  505 -0.29357167349E+02  0.58480547481E+02 -0.31061577113E+02  0.72433688856E+02  0.00000000000E+00 0.  1.
<scales pt_clust_3="14000.00000" pt_clust_4="54.65055" pt_clust_5="32.79212" pt_clust_6="77.45802"></scales>
<clustering>
<clus scale="   32.792">  2  5  1 -1</clus>
<clus scale="   54.651">  1  4  2 -1</clus>
<clus scale="   77.458">  1  6  2 -1</clus>
<clus scale="   54.651">  1  3  2 -1</clus>
</clustering>
</event>
<event>
 6    0  0.1344929E+003  0.8794761E+02  0.7546771E-02  0.1307899E+00
         21   -1    0    0  506  501  0.00000000000E+00  0.00000000000E+00  0.14290441518E+03  0.14290441518E+03  0.00000000000E+00 0. -1.
         21   -1    0    0  503  502 -0.00000000000E+00 -0.00000000000E+00 -0.19245057815E+03  0.19245057815E+03  0.00000000000E+00 0. -1.
         21    1    1    2  503  504  0.33154776449E+02  0.57668782481E+01 -0.21416196083E+02  0.39889215846E+02  0.00000000000E+00 0. -1.
         21    1    1    2  504  505 -0.10638484920E+03  0.71004445059E+01 -0.58350815675E+02  0.12154410780E+03  0.00000000000E+00 0. -1.
         21    1    1    2  505  501  0.28362782952E+02 -0.81910210733E+02  0.29543703318E+02  0.91578165984E+02  0.00000000000E+00 0. -1.
         21    1    1    2  506  502  0.44867289798E+02  0.69042887979E+02  0.67714546686E+00  0.82343503693E+02  0.00000000000E+00 0. -1.
<scales pt_clust_3="33.65258" pt_clust_4="14000.00000" pt_clust_5="87.94761" pt_clust_6="77.91957"></scales>
<clustering>
<clus scale="   33.653">  2  3  1 -1</clus>
<clus scale="   87.948">  1  5  2 -1</clus>
<clus scale="   77.920">  1  6  2 -1</clus>
<clus scale="   87.948">  1  3  2 -1</clus>
</clustering>
</event>
<event>
 6    0  0.1344929E+003  0.7634547E+02  0.7546771E-02  0.1339754E+00
         21   -1    0    0  504  501  0.00000000000E+00  0.00000000000E+00  0.14102655815E+04  0.14102655815E+04  0.00000000000E+00 0.  1.
         21   -1    0    0  506  502 -0.00000000000E+00 -0.00000000000E+00 -0.27748296279E+02  0.27748296279E+02  0.00000000000E+00 0.  1.
         21    1    1    2  503  501 -0.49663012428E+02  0.96729405494E+00  0.37847739521E+03  0.38172305294E+03  0.00000000000E+00 0.  1.
         21    1    1    2  504  505  0.50084311563E+02 -0.38011132759E+02  0.70970535992E+03  0.71248507520E+03  0.00000000000E+00 0.  1.
         21    1    1    2  505  502  0.73943884594E+02  0.96216232120E+01  0.22980155316E+03  0.24159682849E+03  0.00000000000E+00 0.  1.
         21    1    1    2  506  503 -0.74365183729E+02  0.27422215492E+02  0.64532976960E+02  0.10220892118E+03  0.00000000000E+00 0.  1.
<scales pt_clust_3="49.67243" pt_clust_4="40.54967" pt_clust_5="76.34547" pt_clust_6="14000.00000"></scales>
<clustering>
<clus scale="   49.672">  1  3  2 -1</clus>
<clus scale="   40.550">  1  4  2 -1</clus>
<clus scale="   76.345">  1  5  2 -1</clus>
<clus scale="   49.672">  1  3  2 -1</clus>
</clustering>
</event>
<event>
 6    0  0.1344929E+003  0.1068815E+03  0.7546771E-02  0.1266456E+00
         21   -1    0    0  505  501  0.00000000000E+00  0.00000000000E+00  0.48608567193E+03  0.48608567193E+03  0.00000000000E+00 0. -1.
         21   -1    0    0  506  502 -0.00000000000E+00 -0.00000000000E+00 -0.23903137436E+03  0.23903137436E+03  0.00000000000E+00 0. -1.
         21    1    1    2  503  501 -0.61326800691E+02 -0.63724177801E+01  0.18297833370E+03  0.19308716890E+03  0.00000000000E+00 0. -1.
         21    1    1    2  504  502  0.11616518157E+03 -0.12277270211E+02 -0.18674874998E+03  0.22027295883E+03  0.00000000000E+00 0. -1.
         21    1    1    2  505  504  0.10375973639E+02 -0.32175788434E+02  0.22144566157E+03  0.22401143546E+03  0.00000000000E+00 0. -1.
         21    1    1    2  506  503 -0.65214354522E+02  0.50825476425E+02  0.29379052283E+02  0.87745483089E+02  0.00000000000E+00 0.  1.
<scales pt_clust_3="61.38697" pt_clust_4="106.88146" pt_clust_5="33.80743" pt_clust_6="14000.00000"></scales>
<clustering>
<clus scale="   33.807">  1  5  2 -1</clus>
<clus scale="   61.387">  1  3  2 -1</clus>
<clus scale="  106.881">  2  4  1 -1</clus>
<clus scale="   33.807">  1  3  2 -1</clus>
</clustering>
</event>
<event>
 6    0  0.1344929E+003  0.1024139E+03  0.7546771E-02  0.1275300E+00
         21   -1    0    0  503  501  0.00000000000E+00  0.00000000000E+00  0.85818413838E+03  0.85818413838E+03  0.00000000000E+00 0.  1.
         21   -1    0    0  505  502 -0.00000000000E+00 -0.00000000000E+00 -0.19501086425E+03  0.19501086425E+03  0.00000000000E+00 0. -1.
         21    1    1    2  503  504 -0.65011611267E+02  0.91295095252E+02  0.29742299777E+03  0.31783917887E+03  0.00000000000E+00 0.  1.
         21    1    1    2  504  502  0.20154550646E+02 -0.38473474988E+02 -0.99180665324E+01  0.44550894864E+02  0.00000000000E+00 0.  1.
         21    1    1    2  505  506 -0.19191853935E+02 -0.68160410012E+02 -0.14744230311E+03  0.16356467069E+03  0.00000000000E+00 0. -1.
         21    1    1    2  506  501  0.64048914556E+02  0.15338789748E+02  0.52311064600E+03  0.52724025821E+03  0.00000000000E+00 0.  1.
<scales pt_clust_3="102.41386" pt_clust_4="43.43287" pt_clust_5="14000.00000" pt_clust_6="65.99300"></scales>
<clustering>
<clus scale="   43.433">  2  4  1 -1</clus>
<clus scale="   65.993">  1  6  2 -1</clus>
<clus scale="  102.414">  1  3  2 -1</clus>
<clus scale="   65.993">  1  3  2 -1</clus>
</clustering>
</event>
<event>
 6    0  0.1344929E+003  0.1124425E+03  0.7546771E-02  0.1256112E+00
         21   -1    0    0  506  501  0.00000000000E+00  0.00000000000E+00  0.26706055861E+03  0.26706055861E+03  0.00000000000E+00 0. -1.
         21   -1    0    0  504  502 -0.00000000000E+00 -0.00000000000E+00 -0.17084480211E+04  0.17084480211E+04  0.00000000000E+00 0.  1.
         21    1    1    2  503  502  0.50312940690E+02 -0.85773941029E+02 -0.57451296474E+03  0.58305549275E+03  0.00000000000E+00 0.  1.
         21    1    1    2  504  505  0.51523815061E+02  0.31478313582E+02 -0.10810772116E+04  0.10827619892E+04  0.00000000000E+00 0.  1.
         21    1    1    2  505  501 -0.46211696697E+01  0.42252755742E+02 -0.26314091672E+02  0.49990819132E+02  0.00000000000E+00 0. -1.
         21    1    1    2  506  503 -0.97215586082E+02  0.12042871705E+02  0.24051680559E+03  0.25970027860E+03  0.00000000000E+00 0. -1.
<scales pt_clust_3="112.44251" pt_clust_4="60.43853" pt_clust_5="42.50471" pt_clust_6="14000.00000"></scales>
<clustering>
<clus scale="   42.505">  1  5  2 -1</clus>
<clus scale="   60.439">  2  4  1 -1</clus>
<clus scale="  112.443">  2  3  1 -1</clus>
<clus scale="   42.505">  1  3  2 -1</clus>
</clustering>
</event>
<event>
 6    0  0.1344929E+003  0.1063198E+03  0.7546771E-02  0.1267541E+00
         21   -1    0    0  505  501  0.00000000000E+00  0.00000000000E+00  0.30676347314E+03  0.30676347314E+03  0.00000000000E+00 0.  1.
         21   -1    0    0  504  502 -0.00000000000E+00 -0.00000000000E+00 -0.16612647818E+03  0.16612647818E+03  0.00000000000E+00 0.  1.
         21    1    1    2  503  502 -0.40200375604E+02  0.10231009305E+03 -0.11483328213E+03  0.15896574481E+03  0.00000000000E+00 0.  1.
         21    1    1    2  504  506  0.60092622528E+02 -0.69552952249E+02  0.97489911340E+02  0.13398887738E+03  0.00000000000E+00 0.  1.
         21    1    1    2  505  503 -0.36948363137E+02  0.52191622175E+01  0.39429158015E+02  0.54287012209E+02  0.00000000000E+00 0.  1.
         21    1    1    2  506  501  0.17056116213E+02 -0.37976303014E+02  0.11855120774E+03  0.12564831693E+03  0.00000000000E+00 0.  1.
<scales pt_clust_3="106.31978" pt_clust_4="14000.00000" pt_clust_5="37.31516" pt_clust_6="35.52570"></scales>
<clustering>
<clus scale="   37.315">  1  5  2 -1</clus>
<clus scale="   35.526">  1  6  2 -1</clus>
<clus scale="  106.320">  2  3  1 -1</clus>
<clus scale="   37.315">  1  3  2 -1</clus>
</clustering>
</event>
<event>
 6    0  0.1344929E+003  0.1580331E+03  0.7546771E-02  0.1190935E+00
         21   -1    0    0  504  501  0.00000000000E+00  0.00000000000E+00  0.25391568702E+03  0.25391568702E+03  0.00000000000E+00 0.  1.
         21   -1    0    0  505  502 -0.00000000000E+00 -0.00000000000E+00 -0.21014893892E+04  0.21014893892E+04  0.00000000000E+00 0.  1.
         21    1    1    2  503  502 -0.89593736818E+01 -0.83069577696E+02 -0.46777061643E+03  0.47517383631E+03  0.00000000000E+00 0. -1.
         21    1    1    2  504  506 -0.16370989042E+03  0.72119431766E+02  0.37247067492E+02  0.18272789797E+03  0.00000000000E+00 0.  1.
         21    1    1    2  505  501  0.30786670342E+02  0.13903561871E+02  0.13490663876E+03  0.13907166960E+03  0.00000000000E+00 0.  1.
         21    1    1    2  506  503  0.14188259376E+03 -0.29534159405E+01 -0.15519567920E+04  0.15584316724E+04  0.00000000000E+00 0.  1.
<scales pt_clust_3="83.01432" pt_clust_4="158.03308" pt_clust_5="33.78059" pt_clust_6="14000.00000"></scales>
<clustering>
<clus scale="   33.781">  1  5  2 -1</clus>
<clus scale="   83.014">  2  3  1 -1</clus>
<clus scale="  158.033">  1  4  2 -1</clus>
<clus scale="   33.781">  1  3  2 -1</clus>
</clustering>
</event>
<event>
 6    0  0.1344929E+003  0.9116303E+02  0.7546771E-02  0.1300059E+00
         21   -1    0    0  503  501  0.00000000000E+00  0.00000000000E+00  0.12116577554E+04  0.12116577554E+04  0.00000000000E+00 0. -1.
         21   -1    0    0  504  502 -0.00000000000E+00 -0.00000000000E+00 -0.17389047225E+03  0.17389047225E+03  0.00000000000E+00 0. -1.
         21    1    1    2  503  505 -0.44026035458E+02 -0.10850883124E+03  0.15972733269E+03  0.19805372772E+03  0.00000000000E+00 0. -1.
         21    1    1    2  504  501  0.34050434917E+02  0.15058254590E+02  0.10054695195E+04  0.10061586047E+04  0.00000000000E+00 0. -1.
         21    1    1    2  505  506  0.42639177701E+02  0.57200587383E+02 -0.41548612969E+02  0.82560849751E+02  0.00000000000E+00 0. -1.
         21    1    1    2  506  502 -0.32663577160E+02  0.36249989267E+02 -0.85880956074E+02  0.98775045486E+02  0.00000000000E+00 0. -1.
<scales pt_clust_3="91.16303" pt_clust_4="37.23148" pt_clust_5="14000.00000" pt_clust_6="48.44435"></scales>
<clustering>
<clus scale="   37.231">  1  4  2 -1</clus>
<clus scale="   48.444">  2  6  1 -1</clus>
<clus scale="   91.163">  1  3  2 -1</clus>
<clus scale="   37.231">  1  3  2 -1</clus>
</clustering>
</event>
<event>
 6    0  0.1344929E+003  0.1355520E+03  0.7546771E-02  0.1219443E+00
         21   -1    0    0  506  501  0.00000000000E+00  0.00000000000E+00  0.22560513803E+02  0.22560513803E+02  0.00000000000E+00 0.  1.
         21   -1    0    0  504  502 -0.00000000000E+00 -0.00000000000E+00 -0.29622477666E+04  0.29622477666E+04  0.00000000000E+00 0. -1.
         21    1    1    2  503  501 -0.14209014057E+02 -0.10516440992E+03 -0.46467243018E+03  0.47663604203E+03  0.00000000000E+00 0.  1.
         21    1    1    2  504  503 -0.68433456877E+02 -0.26590617808E+02 -0.86410270403E+03  0.86721605272E+03  0.00000000000E+00 0. -1.
         21    1    1    2  505  502  0.18231361313E+03  0.99836710680E+02 -0.10572002534E+04  0.10774404847E+04  0.00000000000E+00 0.  1.
         21    1    1    2  506  505 -0.99671142196E+02  0.31918317047E+02 -0.55371186517E+03  0.56351570092E+03  0.00000000000E+00 0.  1.
<scales pt_clust_3="115.00064" pt_clust_4="73.41797" pt_clust_5="14000.00000" pt_clust_6="135.55201"></scales>
<clustering>
<clus scale="   73.418">  2  4  1 -1</clus>
<clus scale="  115.001">  1  3  2 -1</clus>
<clus scale="  135.552">  1  6  2 -1</clus>
<clus scale="  115.001">  1  3  2 -1</clus>
</clustering>
</event>
<event>
 6    0  0.1344929E+003  0.6534933E+02  0.7546771E-02  0.1376662E+00
         21   -1    0    0  505  501  0.00000000000E+00  0.00000000000E+00  0.11651039186E+03  0.11651039186E+03  0.00000000000E+00 0. -1.
         21   -1    0    0  504  502 -0.00000000000E+00 -0.00000000000E+00 -0.23472700214E+03  0.23472700214E+03  0.00000000000E+00 0. -1.
         21    1    1    2  503  501  0.14157470725E+02  0.53772091237E+02 -0.15181473529E+02  0.57639820540E+02  0.00000000000E+00 0. -1.
         21    1    1    2  504  506 -0.61901917272E+02  0.14093700093E+02 -0.13058787109E+03  0.14520217567E+03  0.00000000000E+00 0. -1.
         21    1    1    2  505  502  0.79232314344E+02 -0.19795606047E+02  0.37854330557E+02  0.90014309956E+02  0.00000000000E+00 0. -1.
         21    1    1    2  506  503 -0.31487867797E+02 -0.48070185283E+02 -0.10301596218E+02  0.58381087829E+02  0.00000000000E+00 0. -1.
<scales pt_clust_3="55.60460" pt_clust_4="14000.00000" pt_clust_5="65.34933" pt_clust_6="44.38216"></scales>
<clustering>
<clus scale="   55.605">  1  3  2 -1</clus>
<clus scale="   44.382">  1  6  2 -1</clus>
<clus scale="   65.349">  1  5  2 -1</clus>
<clus scale="   55.605">  1  3  2 -1</clus>
</clustering>
</event>
<event>
 6    0  0.1344929E+003  0.1998225E+03  0.7546771E-02  0.1149889E+00
         21   -1    0    0  506  501  0.00000000000E+00  0.00000000000E+00  0.93343651044E+03  0.93343651044E+03  0.00000000000E+00 0. -1.
         21   -1    0    0  503  502 -0.00000000000E+00 -0.00000000000E+00 -0.31031147213E+03  0.31031147213E+03  0.00000000000E+00 0. -1.
         21    1    1    2  503  505 -0.15781778818E+03  0.72050885349E+02  0.58117788252E+03  0.60651917981E+03  0.00000000000E+00 0. -1.
         21    1    1    2  504  502 -0.19332885650E+02 -0.27492306649E+02 -0.16300320578E+03  0.16643206568E+03  0.00000000000E+00 0. -1.
         21    1    1    2  505  501  0.31842936237E+02  0.93221586932E+02  0.24723400195E+03  0.26613697334E+03  0.00000000000E+00 0. -1.
         21    1    1    2  506  504  0.14530773759E+03 -0.13778016563E+03 -0.42283640380E+02  0.20465976373E+03  0.00000000000E+00 0. -1.
<scales pt_clust_3="199.82250" pt_clust_4="33.60933" pt_clust_5="96.41744" pt_clust_6="14000.00000"></scales>
<clustering>
<clus scale="   33.609">  2  4  1 -1</clus>
<clus scale="   96.417">  1  5  2 -1</clus>
<clus scale="  199.822">  1  3  2 -1</clus>
<clus scale="   96.417">  1  3  2 -1</clus>
</clustering>
</event>
<event>
 6    0  0.1344929E+003  0.1311351E+03  0.7546771E-02  0.1225781E+00
         21   -1    0    0  506  501  0.00000000000E+00  0.00000000000E+00  0.13861903206E+04  0.13861903206E+04  0.00000000000E+00 0. -1.
         21   -1    0    0  503  502 -0.00000000000E+00 -0.00000000000E+00 -0.45910506334E+02  0.45910506334E+02  0.00000000000E+00 0. -1.
         21    1    1    2  503  505  0.90331607848E+02 -0.70549819190E+02  0.16544577026E+03  0.20126941959E+03  0.00000000000E+00 0. -1.
         21    1    1    2  504  501 -0.35334341554E+02 -0.33238162343E+02  0.29790814777E+03  0.30183199903E+03  0.00000000000E+00 0. -1.
         21    1    1    2  505  504  0.97104530553E+02  0.11511229686E+03  0.50610607712E+03  0.52803739644E+03  0.00000000000E+00 0. -1.
         21    1    1    2  506  502 -0.15210179685E+03 -0.11324315324E+02  0.37081981912E+03  0.40096201189E+03  0.00000000000E+00 0. -1.
<scales pt_clust_3="113.65844" pt_clust_4="48.51073" pt_clust_5="14000.00000" pt_clust_6="131.13507"></scales>
<clustering>
<clus scale="   48.511">  1  4  2 -1</clus>
<clus scale="  113.658">  2  3  1 -1</clus>
<clus scale="  131.135">  2  6  1 -1</clus>
<clus scale="   48.511">  1  3  2 -1</clus>
</clustering>
</event>
<event>
 6    0  0.1344929E+003  0.7091553E+02  0.7546771E-02  0.1357007E+00
         21   -1    0    0  503  501  0.00000000000E+00  0.00000000000E+00  0.15897145142E+04  0.15897145142E+04  0.00000000000E+00 0.  1.
         21   -1    0    0  506  502 -0.00000000000E+00 -0.00000000000E+00 -0.14793152445E+03  0.14793152445E+03  0.00000000000E+00 0.  1.
         21    1    1    2  503  505  0.31979063325E+02  0.74894015786E+01  0.72649380578E+03  0.72723586371E+03  0.00000000000E+00 0.  1.
         21    1    1    2  504  502  0.29536005352E+02  0.63474104255E+02 -0.12850904699E+03  0.14634176670E+03  0.00000000000E+00 0.  1.
         21    1    1    2  505  504 -0.67804630210E+02 -0.11923759273E+03  0.64041214088E+03  0.65493723484E+03  0.00000000000E+00 0.  1.
         21    1    1    2  506  501  0.62895615324E+01  0.48274086898E+02  0.20338609011E+03  0.20913117343E+03  0.00000000000E+00 0. -1.
<scales pt_clust_3="32.84435" pt_clust_4="70.91553" pt_clust_5="14000.00000" pt_clust_6="51.96727"></scales>
<clustering>
<clus scale="   32.844">  1  3  2 -1</clus>
<clus scale="   51.967">  1  6  2 -1</clus>
<clus scale="   70.916">  2  4  1 -1</clus>
<clus scale="   32.844">  1  3  2 -1</clus>
</clustering>
</event>
<event>
 6    0  0.1344929E+003  0.1555401E+03  0.7546771E-02  0.1193826E+00
         21   -1    0    0  503  501  0.00000000000E+00  0.00000000000E+00  0.25993804388E+03  0.25993804388E+03  0.00000000000E+00 0.  1.
         21   -1    0    0  504  502 -0.00000000000E+00 -0.00000000000E+00 -0.12486095429E+04  0.12486095429E+04  0.00000000000E+00 0. -1.
         21    1    1    2  503  506 -0.39159048696E+02  0.22919132081E+02 -0.38295177127E+02  0.59373717260E+02  0.00000000000E+00 0.  1.
         21    1    1    2  504  505  0.30427311706E+02  0.11945228053E+03 -0.17805966576E+02  0.12454606002E+03  0.00000000000E+00 0.  1.
         21    1    1    2  505  501 -0.19302116480E+02 -0.17234580516E+03  0.15721056285E+03  0.23407436709E+03  0.00000000000E+00 0.  1.
         21    1    1    2  506  502  0.28033853470E+02  0.29974392553E+02 -0.10897809181E+04  0.10905534424E+04  0.00000000000E+00 0. -1.
<scales pt_clust_3="44.33398" pt_clust_4="14000.00000" pt_clust_5="155.54012" pt_clust_6="41.04097"></scales>
<clustering>
<clus scale="   41.041">  2  6  1 -1</clus>
<clus scale="   44.334">  2  3  1 -1</clus>
<clus scale="  155.540">  1  5  2 -1</clus>
<clus scale="  155.540">  1  3  2 -1</clus>
</clustering>
</event>
<event>
 6    0  0.1344929E+003  0.1233477E+03  0.7546771E-02  0.1237674E+00
         21   -1    0    0  505  501  0.00000000000E+00  0.00000000000E+00  0.67749253021E+03  0.67749253021E+03  0.00000000000E+00 0.  1.
         21   -1    0    0  506  502 -0.00000000000E+00 -0.00000000000E+00 -0.55412626842E+03  0.55412626842E+03  0.00000000000E+00 0. -1.
         21    1    1    2  503  501  0.32357279636E+02  0.29246052041E+02  0.30675720853E+03  0.30984239557E+03  0.00000000000E+00 0. -1.
         21    1    1    2  504  502  0.14129113487E+03  0.36200004762E+02 -0.48128898192E+03  0.50290427444E+03  0.00000000000E+00 0. -1.
         21    1    1    2  505  504 -0.13279317726E+03 -0.94652724783E+02  0.32366573832E+03  0.36242609784E+03  0.00000000000E+00 0.  1.
         21    1    1    2  506  503 -0.40855237242E+02  0.29206667980E+02 -0.25767703145E+02  0.56446030773E+02  0.00000000000E+00 0. -1.
<scales pt_clust_3="43.61565" pt_clust_4="14000.00000" pt_clust_5="123.34771" pt_clust_6="49.86575"></scales>
<clustering>
<clus scale="   43.616">  1  3  2 -1</clus>
<clus scale="   49.866">  2  6  1 -1</clus>
<clus scale="  123.348">  1  5  2 -1</clus>
<clus scale="   43.616">  1  3  2 -1</clus>
</clustering>
</event>
<event>
 6    0  0.1344929E+003  0.1482058E+03  0.7546771E-02  0.1202695E+00
         21   -1    0    0  504  501  0.00000000000E+00  0.00000000000E+00  0.84861204450E+03  0.84861204450E+03  0.00000000000E+00 0. -1.
         21   -1    0    0  503  502 -0.00000000000E+00 -0.00000000000E+00 -0.11209269138E+03  0.11209269138E+03  0.00000000000E+00 0.  1.
         21    1    1    2  503  506 -0.32256059472E+02 -0.32279252619E+01 -0.28747960467E+02  0.43328029094E+02  0.00000000000E+00 0.  1.
         21    1    1    2  504  502  0.10187672520E+03 -0.24081716548E+02  0.64473372922E+03  0.65317714122E+03  0.00000000000E+00 0. -1.
         21    1    1    2  505  501  0.46724271388E+02 -0.34721811027E+02  0.11884938836E+03  0.13234023882E+03  0.00000000000E+00 0.  1.
         21    1    1    2  506  505 -0.11634493712E+03  0.62031452837E+02  0.16841959967E+01  0.13185932674E+03  0.00000000000E+00 0.  1.
<scales pt_clust_3="32.41717" pt_clust_4="14000.00000" pt_clust_5="56.12100" pt_clust_6="148.20582"></scales>
<clustering>
<clus scale="   32.417">  2  3  1 -1</clus>
<clus scale="   56.121">  1  5  2 -1</clus>
<clus scale="  148.206">  2  6  1 -1</clus>
<clus scale="   56.121">  1  3  2 -1</clus>
</clustering>
</event>
<event>
 6    0  0.1344929E+003  0.9292329E+02  0.7546771E-02  0.1295923E+00
         21   -1    0    0  503  501  0.00000000000E+00  0.00000000000E+00  0.73611705462E+02  0.73611705462E+02  0.00000000000E+00 0.  1.
         21   -1    0    0  505  502 -0.00000000000E+00 -0.00000000000E+00 -0.15476297609E+04  0.15476297609E+04  0.00000000000E+00 0.  1.
         21    1    1    2  503  506 -0.17081632904E+02 -0.50029845165E+02  0.40852439260E+02  0.66810847797E+02  0.00000000000E+00 0.  1.
         21    1    1    2  504  501 -0.32932459706E+02  0.82184227388E+01 -0.10936953206E+02  0.35660991574E+02  0.00000000000E+00 0.  1.
         21    1    1    2  505  504 -0.24899089731E+02  0.96585864272E+02 -0.10903267630E+04  0.10948795569E+04  0.00000000000E+00 0.  1.
         21    1    1    2  506  502  0.74913182342E+02 -0.54774441846E+02 -0.41360677850E+03  0.42389007017E+03  0.00000000000E+00 0.  1.
<scales pt_clust_3="62.85519" pt_clust_4="33.94244" pt_clust_5="14000.00000" pt_clust_6="92.92329"></scales>
<clustering>
<clus scale="   33.942">  1  4  2 -1</clus>
<clus scale="   62.855">  1  3  2 -1</clus>
<clus scale="   92.923">  1  6  2 -1</clus>
<clus scale="   33.942">  1  3  2 -1</clus>
</clustering>
</event>
<event>
 6    0  0.1344929E+003  0.1908941E+03  0.7546771E-02  0.1157657E+00
         21   -1    0    0  503  501  0.00000000000E+00  0.00000000000E+00  0.50800351267E+03  0.50800351267E+03  0.00000000000E+00 0.  1.
         21   -1    0    0  505  502 -0.00000000000E+00 -0.00000000000E+00 -0.32276896260E+03  0.32276896260E+03  0.00000000000E+00 0.  1.
         21    1    1    2  503  506 -0.78354296576E+01  0.30614026412E+02  0.11419561898E+02  0.33600877444E+02  0.00000000000E+00 0.  1.
         21    1    1    2  504  501  0.11880128603E+03  0.74630140586E+02  0.29258362449E+03  0.32448201917E+03  0.00000000000E+00 0.  1.
         21    1    1    2  505  504 -0.25305803004E+03 -0.16033392904E+03 -0.43497636519E+02  0.30271666579E+03  0.00000000000E+00 0.  1.
         21    1    1    2  506  502  0.14209217366E+03  0.55089762038E+02 -0.75270999793E+02  0.16997291287E+03  0.00000000000E+00 0.  1.
<scales pt_clust_3="31.60083" pt_clust_4="147.67358" pt_clust_5="190.89415" pt_clust_6="14000.00000"></scales>
<clustering>
<clus scale="   31.601">  1  3  2 -1</clus>
<clus scale="  147.674">  1  4  2 -1</clus>
<clus scale="  190.894">  1  5  2 -1</clus>
<clus scale="   31.601">  1  3  2 -1</clus>
</clustering>
</event>
<event>
 6    0  0.1344929E+003  0.1168585E+03  0.7546771E-02  0.1248371E+00
         21   -1    0    0  504  501  0.00000000000E+00  0.00000000000E+00  0.20846885514E+04  0.20846885514E+04  0.00000000000E+00 0.  1.
         21   -1    0    0  503  502 -0.00000000000E+00 -0.00000000000E+00 -0.24694533568E+02  0.24694533568E+02  0.00000000000E+00 0. -1.
         21    1    1    2  503  501 -0.87693689018E+02  0.39788745178E+02  0.14931450085E+04  0.14962470864E+04  0.00000000000E+00 0.  1.
         21    1    1    2  504  506  0.51625923482E+02  0.14337345688E+02  0.26559609318E+03  0.27094663712E+03  0.00000000000E+00 0. -1.
         21    1    1    2  505  502 -0.53866043199E+02 -0.41302876709E+02  0.94428600588E+02  0.11629376098E+03  0.00000000000E+00 0. -1.
         21    1    1    2  506  505  0.89933808735E+02 -0.12823214157E+02  0.20682431567E+03  0.22589560050E+03  0.00000000000E+00 0.  1.
<scales pt_clust_3="100.13085" pt_clust_4="46.26901" pt_clust_5="67.87841" pt_clust_6="46.26901"></scales>
<clustering>
<clus scale="   46.269">  4  6 -1 -1</clus>
<clus scale="   67.878">  2  5  1 -1</clus>
<clus scale="  100.131">  1  3  2 -1</clus>
<clus scale="  100.131">  1  3  2 -1</clus>
</clustering>
</event>
<event>
 6    0  0.1344929E+003  0.8897440E+02  0.7546771E-02  0.1305355E+00
         21   -1    0    0  504  501  0.00000000000E+00  0.00000000000E+00  0.76596651066E+03  0.76596651066E+03  0.00000000000E+00 0.  1.
         21   -1    0    0  503  502 -0.00000000000E+00 -0.00000000000E+00 -0.55286284631E+02  0.55286284631E+02  0.00000000000E+00 0. -1.
         21    1    1    2  503  505  0.41752585742E+02  0.14353717631E+02  0.71377006210E+02  0.83928449535E+02  0.00000000000E+00 0. -1.
         21    1    1    2  504  506 -0.23953338662E+02  0.97885807784E+02  0.82408981688E+02  0.13017923821E+03  0.00000000000E+00 0. -1.
         21    1    1    2  505  501  0.47560609426E+02 -0.73870849878E+02  0.51109653623E+03  0.51859288790E+03  0.00000000000E+00 0.  1.
         21    1    1    2  506  502 -0.65359856506E+02 -0.38368675537E+02  0.45797701899E+02  0.88552219645E+02  0.00000000000E+00 0. -1.
<scales pt_clust_3="44.15096" pt_clust_4="14000.00000" pt_clust_5="88.97440" pt_clust_6="57.04284"></scales>
<clustering>
<clus scale="   44.151">  2  3  1 -1</clus>
<clus scale="   57.043">  2  6  1 -1</clus>
<clus scale="   88.974">  1  5  2 -1</clus>
<clus scale="   88.974">  1  3  2 -1</clus>
</clustering>
</event>
<event>
 6    0  0.1344929E+003  0.1477216E+03  0.7546771E-02  0.1203301E+00
         21   -1    0    0  502  501  0.00000000000E+00  0.00000000000E+00  0.12035139083E+03  0.12035139083E+03  0.00000000000E+00 0.  1.
         21   -1    0    0  505  502 -0.00000000000E+00 -0.00000000000E+00 -0.66263447396E+03  0.66263447396E+03  0.00000000000E+00 0.  1.
         21    1    1    2  503  506  0.38649229719E+02  0.45759595833E+02  0.10237030305E+02  0.60765947356E+02  0.00000000000E+00 0.  1.
         21    1    1    2  504  503  0.65977227293E+02  0.96531734623E+01 -0.41690615342E+02  0.78640229442E+02  0.00000000000E+00 0.  1.
         21    1    1    2  505  504 -0.10067114549E+03 -0.88863450907E+02 -0.56447988179E+03  0.58023178937E+03  0.00000000000E+00 0.  1.
         21    1    1    2  506  501 -0.39553115176E+01  0.33450681612E+02  0.53650383696E+02  0.63347898626E+02  0.00000000000E+00 0.  1.
<scales pt_clust_3="63.45417" pt_clust_4="63.45417" pt_clust_5="131.88699" pt_clust_6="33.68371"></scales>
<clustering>
<clus scale="   33.684">  1  6  2 -1</clus>
<clus scale="   63.454">  3  4 -1 -1</clus>
<clus scale="  131.887">  2  5  1 -1</clus>
<clus scale="   33.684">  1  3  2 -1</clus>
</clustering>
</event>
<event>
 6    0  0.1344929E+003  0.8945514E+02  0.7546771E-02  0.1304177E+00
         21   -1    0    0  505  501  0.00000000000E+00  0.00000000000E+00  0.41493383429E+03  0.41493383429E+03  0.00000000000E+00 0. -1.
         21   -1    0    0  504  502 -0.00000000000E+00 -0.00000000000E+00 -0.90212737142E+02  0.90212737142E+02  0.00000000000E+00 0.  1.
         21    1    1    2  503  501 -0.56047505391E+02 -0.69507598809E+02  0.27774470121E+03  0.29174431992E+03  0.00000000000E+00 0. -1.
         21    1    1    2  504  503  0.56261019841E+02 -0.23132634814E+02  0.51091937044E+02  0.79440588983E+02  0.00000000000E+00 0. -1.
         21    1    1    2  505  506  0.33463016113E+02  0.88258475139E+02  0.14080478144E+02  0.95433703407E+02  0.00000000000E+00 0.  1.
         21    1    1    2  506  502 -0.33676530563E+02  0.43817584839E+01 -0.18196019247E+02  0.38527959129E+02  0.00000000000E+00 0.  1.
<scales pt_clust_3="89.45514" pt_clust_4="53.34912" pt_clust_5="14000.00000" pt_clust_6="33.96040"></scales>
<clustering>
<clus scale="   33.960">  2  6  1 -1</clus>
<clus scale="   53.349">  2  4  1 -1</clus>
<clus scale="   89.455">  1  3  2 -1</clus>
<clus scale="   89.455">  1  3  2 -1</clus>
</clustering>
</event>
<event>
 6    0  0.1344929E+003  0.7520185E+02  0.7546771E-02  0.1343247E+00
         21   -1    0    0  505  501  0.00000000000E+00  0.00000000000E+00  0.55604290543E+03  0.55604290543E+03  0.00000000000E+00 0.  1.
         21   -1    0    0  503  502 -0.00000000000E+00 -0.00000000000E+00 -0.36687324664E+03  0.36687324664E+03  0.00000000000E+00 0.  1.
         21    1    1    2  503  501  0.54833040033E+02  0.18710692216E+02  0.32630027259E+03  0.33140401352E+03  0.00000000000E+00 0.  1.
         21    1    1    2  504  506 -0.72822900029E+02 -0.96609494228E+02 -0.16425814302E+03  0.20400320265E+03  0.00000000000E+00 0.  1.
         21    1    1    2  505  504 -0.17342496122E+02  0.26210461590E+02  0.20061886907E+03  0.20306570635E+03  0.00000000000E+00 0.  1.
         21    1    1    2  506  502  0.35332356118E+02  0.51688340422E+02 -0.17349133985E+03  0.18444322955E+03  0.00000000000E+00 0. -1.
<scales pt_clust_3="57.90551" pt_clust_4="75.20185" pt_clust_5="31.42850" pt_clust_6="14000.00000"></scales>
<clustering>
<clus scale="   31.428">  1  5  2 -1</clus>
<clus scale="   57.906">  1  3  2 -1</clus>
<clus scale="   75.202">  1  4  2 -1</clus>
<clus scale="   31.428">  1  3  2 -1</clus>
</clustering>
</event>
<event>
 6    0  0.1344929E+003  0.1656700E+03  0.7546771E-02  0.1182440E+00
         21   -1    0    0  506  501  0.00000000000E+00  0.00000000000E+00  0.78811608716E+03  0.78811608716E+03  0.00000000000E+00 0.  1.
         21   -1    0    0  504  502 -0.00000000000E+00 -0.00000000000E+00 -0.75763646071E+03  0.75763646071E+03  0.00000000000E+00 0.  1.
         21    1    1    2  503  502 -0.69749596550E+02  0.54350914325E+02 -0.24291913036E+02  0.91701282139E+02  0.00000000000E+00 0.  1.
         21    1    1    2  504  505  0.19060832476E+02  0.10280487902E+03 -0.67323404609E+03  0.68130480645E+03  0.00000000000E+00 0.  1.
         21    1    1    2  505  501  0.48179439100E+02 -0.20327555383E+03  0.64184284366E+03  0.67498477397E+03  0.00000000000E+00 0.  1.
         21    1    1    2  506  503  0.25093249740E+01  0.46119760493E+02  0.86162741921E+02  0.97761685312E+02  0.00000000000E+00 0.  1.
<scales pt_clust_3="89.72069" pt_clust_4="165.66996" pt_clust_5="14000.00000" pt_clust_6="46.18797"></scales>
<clustering>
<clus scale="   46.188">  1  6  2 -1</clus>
<clus scale="   89.721">  2  3  1 -1</clus>
<clus scale="  165.670">  2  4  1 -1</clus>
<clus scale="   46.188">  1  3  2 -1</clus>
</clustering>
</event>
<event>
 6    0  0.1344929E+003  0.1421985E+03  0.7546771E-02  0.1210401E+00
         21   -1    0    0  506  501  0.00000000000E+00  0.00000000000E+00  0.46812144525E+03  0.46812144525E+03  0.00000000000E+00 0.  1.
         21   -1    0    0  505  502 -0.00000000000E+00 -0.00000000000E+00 -0.33711073741E+03  0.33711073741E+03  0.00000000000E+00 0.  1.
         21    1    1    2  503  501 -0.69663125983E+02  0.45259215712E+02  0.21186066198E+03  0.22756600762E+03  0.00000000000E+00 0.  1.
         21    1    1    2  504  503 -0.55312865606E+02 -0.15724177195E+01  0.21649450140E+03  0.22345436835E+03  0.00000000000E+00 0.  1.
         21    1    1    2  505  504 -0.22523058991E+02  0.20987110173E+02 -0.37695974126E+02  0.48669635760E+02  0.00000000000E+00 0.  1.
         21    1    1    2  506  502  0.14749905058E+03 -0.64673908166E+02 -0.25964848141E+03  0.30554217093E+03  0.00000000000E+00 0.  1.
<scales pt_clust_3="39.91334" pt_clust_4="39.91334" pt_clust_5="30.78550" pt_clust_6="133.47921"></scales>
<clustering>
<clus scale="   30.785">  2  5  1 -1</clus>
<clus scale="   39.913">  3  4 -1 -1</clus>
<clus scale="  133.479">  2  6  1 -1</clus>
<clus scale="  142.198">  1  3  2 -1</clus>
</clustering>
</event>
<event>
 6    0  0.1344929E+003  0.8596023E+02  0.7546771E-02  0.1312940E+00
         21   -1    0    0  505  501  0.00000000000E+00  0.00000000000E+00  0.78275188373E+03  0.78275188373E+03  0.00000000000E+00 0. -1.
         21   -1    0    0  504  502 -0.00000000000E+00 -0.00000000000E+00 -0.10132385150E+04  0.10132385150E+04  0.00000000000E+00 0. -1.
         21    1    1    2  503  502 -0.14737606176E+01  0.33842047646E+02 -0.82245386270E+02  0.88948073177E+02  0.00000000000E+00 0. -1.
         21    1    1    2  504  501  0.41291766675E+02  0.41810087106E+02 -0.90544408332E+03  0.90734893034E+03  0.00000000000E+00 0. -1.
         21    1    1    2  505  506  0.54727459835E+02  0.48992285922E+02  0.43910304125E+03  0.44520424501E+03  0.00000000000E+00 0. -1.
         21    1    1    2  506  503 -0.94545465893E+02 -0.12464442067E+03  0.31809979707E+03  0.35448915021E+03  0.00000000000E+00 0. -1.
<scales pt_clust_3="33.87412" pt_clust_4="14000.00000" pt_clust_5="73.52364" pt_clust_6="85.96023"></scales>
<clustering>
<clus scale="   33.874">  2  3  1 -1</clus>
<clus scale="   73.524">  1  5  2 -1</clus>
<clus scale="   85.960">  1  6  2 -1</clus>
<clus scale="   73.524">  1  3  2 -1</clus>
</clustering>
</event>
<event>
 6    0  0.1344929E+003  0.7213639E+02  0.7546771E-02  0.1352975E+00
         21   -1    0    0  503  501  0.00000000000E+00  0.00000000000E+00  0.19440639867E+03  0.19440639867E+03  0.00000000000E+00 0. -1.
         21   -1    0    0  506  502 -0.00000000000E+00 -0.00000000000E+00 -0.31157376572E+03  0.31157376572E+03  0.00000000000E+00 0. -1.
         21    1    1    2  503  504  0.46303653611E+02  0.52880091423E+02 -0.44086872068E+01  0.70425626937E+02  0.00000000000E+00 0. -1.
         21    1    1    2  504  502 -0.19399556352E+02 -0.36061413556E+02 -0.20716554568E+03  0.21117370019E+03  0.00000000000E+00 0. -1.
         21    1    1    2  505  501 -0.48975289076E+02  0.53912888025E+02  0.12463458207E+03  0.14435704861E+03  0.00000000000E+00 0. -1.
         21    1    1    2  506  505  0.22071191817E+02 -0.70731565892E+02 -0.30227716233E+02  0.80023788653E+02  0.00000000000E+00 0. -1.
<scales pt_clust_3="55.80524" pt_clust_4="40.94836" pt_clust_5="14000.00000" pt_clust_6="72.13639"></scales>
<clustering>
<clus scale="   40.948">  2  4  1 -1</clus>
<clus scale="   55.805">  2  3  1 -1</clus>
<clus scale="   72.136">  2  6  1 -1</clus>
<clus scale="   72.136">  1  3  2 -1</clus>
</clustering>
</event>
<event>
 6    0  0.1344929E+003  0.1037863E+03  0.7546771E-02  0.1272529E+00
         21   -1    0    0  503  501  0.00000000000E+00  0.00000000000E+00  0.53846380125E+03  0.53846380125E+03  0.00000000000E+00 0. -1.
         21   -1    0    0  506  502 -0.00000000000E+00 -0.00000000000E+00 -0.53654292792E+02  0.53654292792E+02  0.00000000000E+00 0. -1.
         21    1    1    2  503  502  0.13253827844E+03 -0.44125972556E+02  0.22601922401E+03  0.26570319217E+03  0.00000000000E+00 0. -1.
         21    1    1    2  504  505 -0.35596840522E+02  0.73156744469E+01  0.60684790511E+02  0.70733994282E+02  0.00000000000E+00 0. -1.
         21    1    1    2  505  501 -0.40043573173E+02  0.19503316389E+02  0.19060264878E+03  0.19573767349E+03  0.00000000000E+00 0. -1.
         21    1    1    2  506  504 -0.56897864746E+02  0.17306981720E+02  0.75028451574E+01  0.59943234100E+02  0.00000000000E+00 0. -1.
<scales pt_clust_3="96.69830" pt_clust_4="34.05043" pt_clust_5="34.05043" pt_clust_6="59.47183"></scales>
<clustering>
<clus scale="   34.050">  4  5 -1 -1</clus>
<clus scale="   59.472">  2  6  1 -1</clus>
<clus scale="   96.698">  2  3  1 -1</clus>
<clus scale="  103.786">  1  3  2 -1</clus>
</clustering>
</event>
<event>
 6    0  0.1344929E+003  0.7563516E+02  0.7546771E-02  0.1341915E+00
         21   -1    0    0  506  501  0.00000000000E+00  0.00000000000E+00  0.88287065370E+03  0.88287065370E+03  0.00000000000E+00 0.  1.
         21   -1    0    0  505  502 -0.00000000000E+00 -0.00000000000E+00 -0.88367474512E+02  0.88367474512E+02  0.00000000000E+00 0.  1.
         21    1    1    2  503  502 -0.10345407243E+02 -0.73989109186E+02 -0.53099120026E+02  0.91656599744E+02  0.00000000000E+00 0.  1.
         21    1    1    2  504  503  0.65537549738E+02 -0.12402315427E+02  0.19605996495E+03  0.20709538312E+03  0.00000000000E+00 0.  1.
         21    1    1    2  505  501  0.69650402881E+01  0.98407217470E+02  0.46941164131E+03  0.47966632281E+03  0.00000000000E+00 0.  1.
         21    1    1    2  506  504 -0.62157182783E+02 -0.12015792856E+02  0.18213069295E+03  0.19281982254E+03  0.00000000000E+00 0.  1.
<scales pt_clust_3="75.63516" pt_clust_4="50.10461" pt_clust_5="14000.00000" pt_clust_6="63.30794"></scales>
<clustering>
<clus scale="   63.308">  1  6  2 -1</clus>
<clus scale="   50.105">  1  4  2 -1</clus>
<clus scale="   75.635">  2  3  1 -1</clus>
<clus scale="   63.308">  1  3  2 -1</clus>
</clustering>
</event>
<event>
 6    0  0.1344929E+003  0.1143474E+03  0.7546771E-02  0.1252725E+00
         21   -1    0    0  504  501  0.00000000000E+00  0.00000000000E+00  0.13017101524E+04  0.13017101524E+04  0.00000000000E+00 0.  1.
         21   -1    0    0  503  502 -0.00000000000E+00 -0.00000000000E+00 -0.62752744540E+03  0.62752744540E+03  0.00000000000E+00 0. -1.
         21    1    1    2  503  501 -0.73116502707E+02  0.40619509351E+02 -0.50682736966E+03  0.51368273297E+03  0.00000000000E+00 0. -1.
         21    1    1    2  504  506 -0.55844051171E+01 -0.60972301422E+02  0.12023769579E+04  0.12039348637E+04  0.00000000000E+00 0.  1.
         21    1    1    2  505  502 -0.23259348620E+02  0.30427886782E+02 -0.83451547558E+02  0.91820555335E+02  0.00000000000E+00 0. -1.
         21    1    1    2  506  505  0.10196025644E+03 -0.10075094711E+02  0.62084666329E+02  0.11979944583E+03  0.00000000000E+00 0.  1.
<scales pt_clust_3="114.34739" pt_clust_4="61.18686" pt_clust_5="38.29952" pt_clust_6="14000.00000"></scales>
<clustering>
<clus scale="   38.300">  2  5  1 -1</clus>
<clus scale="   61.187">  1  4  2 -1</clus>
<clus scale="  114.347">  2  3  1 -1</clus>
<clus scale="   61.187">  1  3  2 -1</clus>
</clustering>
</event>
<event>
 6    0  0.1344929E+003  0.1324370E+03  0.7546771E-02  0.1223884E+00
         21   -1    0    0  504  501  0.00000000000E+00  0.00000000000E+00  0.31858463798E+03  0.31858463798E+03  0.00000000000E+00 0. -1.
         21   -1    0    0  503  502 -0.00000000000E+00 -0.00000000000E+00 -0.36440791021E+03  0.36440791021E+03  0.00000000000E+00 0. -1.
         21    1    1    2  503  501 -0.25020693284E+02  0.34422195998E+02 -0.13813362575E+03  0.14454003332E+03  0.00000000000E+00 0.  1.
         21    1    1    2  504  505 -0.42143815552E+02  0.99793660801E+01  0.10737081976E+03  0.11577643056E+03  0.00000000000E+00 0. -1.
         21    1    1    2  505  506 -0.45699332031E+02  0.72440657172E+02  0.16146566265E+03  0.18277646997E+03  0.00000000000E+00 0. -1.
         21    1    1    2  506  502  0.11286384087E+03 -0.11684221925E+03 -0.17652612890E+03  0.23989961433E+03  0.00000000000E+00 0. -1.
<scales pt_clust_3="42.55494" pt_clust_4="34.48088" pt_clust_5="34.48088" pt_clust_6="123.24061"></scales>
<clustering>
<clus scale="   34.481">  4  5 -1 -1</clus>
<clus scale="   42.555">  2  3  1 -1</clus>
<clus scale="  123.241">  2  6  1 -1</clus>
<clus scale="  132.437">  1  3  2 -1</clus>
</clustering>
</event>
<event>
 6    0  0.1344929E+003  0.2254989E+03  0.7546771E-02  0.1129849E+00
         21   -1    0    0  506  501  0.00000000000E+00  0.00000000000E+00  0.28789477794E+03  0.28789477794E+03  0.00000000000E+00 0.  1.
         21   -1    0    0  504  502 -0.00000000000E+00 -0.00000000000E+00 -0.22635420848E+04  0.22635420848E+04  0.00000000000E+00 0. -1.
         21    1    1    2  503  502 -0.14363490854E+02 -0.20255682409E+03  0.87224186179E+02  0.22100596261E+03  0.00000000000E+00 0.  1.
         21    1    1    2  504  505 -0.14142696999E+02  0.39735625774E+02 -0.84546883387E+03  0.84652022119E+03  0.00000000000E+00 0. -1.
         21    1    1    2  505  501 -0.36309797786E+02  0.16496645890E+03 -0.13371250355E+04  0.13477520894E+04  0.00000000000E+00 0. -1.
         21    1    1    2  506  503  0.64815985639E+02 -0.21452605823E+01  0.11972237627E+03  0.13615858958E+03  0.00000000000E+00 0. -1.
<scales pt_clust_3="210.19797" pt_clust_4="40.79972" pt_clust_5="40.79972" pt_clust_6="64.85148"></scales>
<clustering>
<clus scale="   40.800">  4  5 -1 -1</clus>
<clus scale="   64.851">  1  6  2 -1</clus>
<clus scale="  210.198">  1  3  2 -1</clus>
<clus scale="   64.851">  1  3  2 -1</clus>
</clustering>
</event>
<event>
 6    0  0.1344929E+003  0.1091631E+03  0.7546771E-02  0.1262128E+00
         21   -1    0    0  504  501  0.00000000000E+00  0.00000000000E+00  0.20922698847E+03  0.20922698847E+03  0.00000000000E+00 0.  1.
         21   -1    0    0  505  502 -0.00000000000E+00 -0.00000000000E+00 -0.21778399652E+04  0.21778399652E+04  0.00000000000E+00 0.  1.
         21    1    1    2  503  501  0.11907987797E+03 -0.35782953080E+02  0.14619312355E+03  0.19191890590E+03  0.00000000000E+00 0.  1.
         21    1    1    2  504  506 -0.99242884168E+01  0.35942049296E+02  0.80120391481E+01  0.38138106658E+02  0.00000000000E+00 0.  1.
         21    1    1    2  505  503 -0.12617871964E+02 -0.72187918324E+02 -0.19180089823E+04  0.19194084408E+04  0.00000000000E+00 0.  1.
         21    1    1    2  506  502 -0.96537717594E+02  0.72028822108E+02 -0.20480915708E+03  0.23760150033E+03  0.00000000000E+00 0. -1.
<scales pt_clust_3="14000.00000" pt_clust_4="37.28703" pt_clust_5="73.15574" pt_clust_6="109.16306"></scales>
<clustering>
<clus scale="   37.287">  1  4  2 -1</clus>
<clus scale="   73.156">  2  5  1 -1</clus>
<clus scale="  109.163">  2  6  1 -1</clus>
<clus scale="   37.287">  1  3  2 -1</clus>
</clustering>
</event>
<event>
 6    0  0.1344929E+003  0.1060062E+03  0.7546771E-02  0.1268150E+00
         21   -1    0    0  505  501  0.00000000000E+00  0.00000000000E+00  0.84576599448E+03  0.84576599448E+03  0.00000000000E+00 0. -1.
         21   -1    0    0  504  502 -0.00000000000E+00 -0.00000000000E+00 -0.23439951049E+03  0.23439951049E+03  0.00000000000E+00 0.  1.
         21    1    1    2  503  501  0.12609135155E+03  0.60290026557E+02  0.59826218916E+03  0.61437086781E+03  0.00000000000E+00 0. -1.
         21    1    1    2  504  506 -0.44732515046E+02  0.12057901793E+02 -0.16833289451E+03  0.17459196508E+03  0.00000000000E+00 0.  1.
         21    1    1    2  505  502 -0.14672766618E+02 -0.52390720282E+02  0.20927697425E+03  0.21623350712E+03  0.00000000000E+00 0. -1.
         21    1    1    2  506  503 -0.66686069882E+02 -0.19957208067E+02 -0.27839784907E+02  0.74969164953E+02  0.00000000000E+00 0. -1.
<scales pt_clust_3="106.00617" pt_clust_4="46.32916" pt_clust_5="54.49179" pt_clust_6="14000.00000"></scales>
<clustering>
<clus scale="   46.329">  2  4  1 -1</clus>
<clus scale="   54.492">  1  5  2 -1</clus>
<clus scale="  106.006">  1  3  2 -1</clus>
<clus scale="   54.492">  1  3  2 -1</clus>
</clustering>
</event>
<event>
 6    0  0.1344929E+003  0.1520693E+03  0.7546771E-02  0.1197953E+00
         21   -1    0    0  504  501  0.00000000000E+00  0.00000000000E+00  0.12352578541E+03  0.12352578541E+03  0.00000000000E+00 0.  1.
         21   -1    0    0  506  502 -0.00000000000E+00 -0.00000000000E+00 -0.10525263264E+04  0.10525263264E+04  0.00000000000E+00 0. -1.
         21    1    1    2  503  502  0.22882482598E+01  0.65623549319E+02 -0.12692153765E+03  0.14290123521E+03  0.00000000000E+00 0.  1.
         21    1    1    2  504  503 -0.11182022906E+03 -0.10529715331E+03  0.47960442284E+02  0.16090822896E+03  0.00000000000E+00 0.  1.
         21    1    1    2  505  501  0.23650153830E+02 -0.26677709726E+02 -0.34831475081E+02  0.49842367808E+02  0.00000000000E+00 0.  1.
         21    1    1    2  506  505  0.85881826966E+02  0.66351313722E+02 -0.81520797052E+03  0.82240027981E+03  0.00000000000E+00 0. -1.
<scales pt_clust_3="63.90651" pt_clust_4="152.06925" pt_clust_5="35.65151" pt_clust_6="14000.00000"></scales>
<clustering>
<clus scale="   35.652">  1  5  2 -1</clus>
<clus scale="   63.907">  2  3  1 -1</clus>
<clus scale="  152.069">  1  4  2 -1</clus>
<clus scale="   35.652">  1  3  2 -1</clus>
</clustering>
</event>
<event>
 6    0  0.1344929E+003  0.1006685E+03  0.7546771E-02  0.1278896E+00
         21   -1    0    0  505  501  0.00000000000E+00  0.00000000000E+00  0.35053435464E+03  0.35053435464E+03  0.00000000000E+00 0.  1.
         21   -1    0    0  503  502 -0.00000000000E+00 -0.00000000000E+00 -0.15943716054E+03  0.15943716054E+03  0.00000000000E+00 0.  1.
         21    1    1    2  503  504  0.21419098715E+02 -0.23962457295E+02 -0.83143238838E+02  0.89139078489E+02  0.00000000000E+00 0.  1.
         21    1    1    2  504  506  0.11787265219E+02 -0.40828836913E+02 -0.11759188919E+02  0.44093220216E+02  0.00000000000E+00 0.  1.
         21    1    1    2  505  502  0.11039469974E+02 -0.82974893790E+02  0.14669689399E+03  0.16889843577E+03  0.00000000000E+00 0.  1.
         21    1    1    2  506  501 -0.44245833908E+02  0.14776618800E+03  0.13930272787E+03  0.20784078071E+03  0.00000000000E+00 0.  1.
<scales pt_clust_3="32.13996" pt_clust_4="53.79400" pt_clust_5="100.66855" pt_clust_6="14000.00000"></scales>
<clustering>
<clus scale="   32.140">  2  3  1 -1</clus>
<clus scale="   53.794">  2  4  1 -1</clus>
<clus scale="  100.669">  1  5  2 -1</clus>
<clus scale="  100.669">  1  3  2 -1</clus>
</clustering>
</event>
<event>
 6    0  0.1344929E+003  0.1156419E+03  0.7546771E-02  0.1250465E+00
         21   -1    0    0  506  501  0.00000000000E+00  0.00000000000E+00  0.18260697323E+03  0.18260697323E+03  0.00000000000E+00 0.  1.
         21   -1    0    0  504  502 -0.00000000000E+00 -0.00000000000E+00 -0.87658144634E+03  0.87658144634E+03  0.00000000000E+00 0.  1.
         21    1    1    2  503  505 -0.40581650353E+02  0.76942556222E+02 -0.39738006047E+03  0.40678979801E+03  0.00000000000E+00 0.  1.
         21    1    1    2  504  503 -0.44837521409E+02  0.80647627591E+01 -0.41015916577E+03  0.41268145705E+03  0.00000000000E+00 0.  1.
         21    1    1    2  505  501 -0.31884513874E+02 -0.31485528955E+02 -0.24282830575E+02  0.50966818807E+02  0.00000000000E+00 0.  1.
         21    1    1    2  506  502  0.11730368564E+03 -0.53521790026E+02  0.13784758371E+03  0.18875034571E+03  0.00000000000E+00 0.  1.
<scales pt_clust_3="14000.00000" pt_clust_4="45.75013" pt_clust_5="44.81028" pt_clust_6="115.64190"></scales>
<clustering>
<clus scale="   44.810">  1  5  2 -1</clus>
<clus scale="   45.750">  2  4  1 -1</clus>
<clus scale="  115.642">  1  6  2 -1</clus>
<clus scale="   44.810">  1  3  2 -1</clus>
</clustering>
</event>
<event>
 6    0  0.1344929E+003  0.7902562E+02  0.7546771E-02  0.1331840E+00
         21   -1    0    0  505  501  0.00000000000E+00  0.00000000000E+00  0.22085012379E+03  0.22085012379E+03  0.00000000000E+00 0. -1.
         21   -1    0    0  503  502 -0.00000000000E+00 -0.00000000000E+00 -0.69612273856E+03  0.69612273856E+03  0.00000000000E+00 0.  1.
         21    1    1    2  503  501 -0.93833786314E+02 -0.35876007818E+02 -0.28327653907E+03  0.30056191538E+03  0.00000000000E+00 0.  1.
         21    1    1    2  504  502 -0.30343642533E+02 -0.10159274158E+00 -0.29285434102E+03  0.29442216632E+03  0.00000000000E+00 0.  1.
         21    1    1    2  505  506  0.68276577474E+02  0.38735614054E+02  0.19626257598E+03  0.21137913227E+03  0.00000000000E+00 0. -1.
         21    1    1    2  506  504  0.55900851374E+02 -0.27580134944E+01 -0.95404310658E+02  0.11060964838E+03  0.00000000000E+00 0. -1.
<scales pt_clust_3="79.02562" pt_clust_4="30.34381" pt_clust_5="14000.00000" pt_clust_6="48.21551"></scales>
<clustering>
<clus scale="   30.344">  2  4  1 -1</clus>
<clus scale="   48.216">  2  6  1 -1</clus>
<clus scale="   79.026">  2  3  1 -1</clus>
<clus scale="   79.026">  1  3  2 -1</clus>
</clustering>
</event>
<event>
 6    0  0.1344929E+003  0.8765529E+02  0.7546771E-02  0.1308631E+00
         21   -1    0    0  503  501  0.00000000000E+00  0.00000000000E+00  0.51487303247E+03  0.51487303247E+03  0.00000000000E+00 0.  1.
         21   -1    0    0  505  502 -0.00000000000E+00 -0.00000000000E+00 -0.16090577904E+03  0.16090577904E+03  0.00000000000E+00 0.  1.
         21    1    1    2  503  502  0.19130982668E+02  0.11218291772E+03 -0.38702599243E+02  0.12020354701E+03  0.00000000000E+00 0.  1.
         21    1    1    2  504  506  0.11853306468E+02 -0.65797901090E+02  0.17084110526E+03  0.18345721002E+03  0.00000000000E+00 0.  1.
         21    1    1    2  505  504 -0.68461819625E+02 -0.48248454874E+02 -0.50111112127E+02  0.97601525104E+02  0.00000000000E+00 0.  1.
         21    1    1    2  506  501  0.37477530489E+02  0.18634382431E+01  0.27193985954E+03  0.27451652937E+03  0.00000000000E+00 0.  1.
<scales pt_clust_3="14000.00000" pt_clust_4="75.48609" pt_clust_5="87.65529" pt_clust_6="37.52383"></scales>
<clustering>
<clus scale="   37.524">  1  6  2 -1</clus>
<clus scale="   75.486">  1  4  2 -1</clus>
<clus scale="   87.655">  2  5  1 -1</clus>
<clus scale="   37.524">  1  3  2 -1</clus>
</clustering>
</event>
<event>
 6    0  0.1344929E+003  0.3569971E+03  0.7546771E-02  0.1059779E+00
         21   -1    0    0  504  501  0.00000000000E+00  0.00000000000E+00  0.11170517764E+03  0.11170517764E+03  0.00000000000E+00 0.  1.
         21   -1    0    0  506  502 -0.00000000000E+00 -0.00000000000E+00 -0.22072590502E+04  0.22072590502E+04  0.00000000000E+00 0.  1.
         21    1    1    2  503  505 -0.14160961574E+03 -0.26413704481E+03 -0.65788096637E+03  0.72293085950E+03  0.00000000000E+00 0.  1.
         21    1    1    2  504  503 -0.49772749026E+02 -0.87675246933E+02 -0.46881424984E+02  0.11118517653E+03  0.00000000000E+00 0.  1.
         21    1    1    2  505  502 -0.45829797327E+02 -0.63310791677E+01 -0.42893937465E+03  0.43142721288E+03  0.00000000000E+00 0. -1.
         21    1    1    2  506  501  0.23721216209E+03  0.35814337091E+03 -0.96185210655E+03  0.10534209789E+04  0.00000000000E+00 0.  1.
<scales pt_clust_3="356.99705" pt_clust_4="102.08221" pt_clust_5="46.26503" pt_clust_6="14000.00000"></scales>
<clustering>
<clus scale="   46.265">  2  5  1 -1</clus>
<clus scale="  102.082">  1  4  2 -1</clus>
<clus scale="  356.997">  2  3  1 -1</clus>
<clus scale="  102.082">  1  3  2 -1</clus>
</clustering>
</event>
<event>
 6    0  0.1344929E+003  0.6645214E+02  0.7546771E-02  0.1372591E+00
         21   -1    0    0  506  501  0.00000000000E+00  0.00000000000E+00  0.11598160063E+02  0.11598160063E+02  0.00000000000E+00 0. -1.
         21   -1    0    0  504  502 -0.00000000000E+00 -0.00000000000E+00 -0.17630740289E+04  0.17630740289E+04  0.00000000000E+00 0. -1.
         21    1    1    2  503  502 -0.13333452985E+02 -0.42725855725E+02 -0.38193628462E+03  0.38454987352E+03  0.00000000000E+00 0. -1.
         21    1    1    2  504  505  0.55816457255E+02 -0.20642022832E+01 -0.73761526245E+03  0.73972698560E+03  0.00000000000E+00 0. -1.
         21    1    1    2  505  501  0.41597639878E+01  0.87834945819E+02 -0.42298899432E+03  0.43203237224E+03  0.00000000000E+00 0. -1.
         21    1    1    2  506  503 -0.46642768257E+02 -0.43044887811E+02 -0.20893532742E+03  0.21836295758E+03  0.00000000000E+00 0. -1.
<scales pt_clust_3="44.75801" pt_clust_4="54.69416" pt_clust_5="14000.00000" pt_clust_6="66.45214"></scales>
<clustering>
<clus scale="   44.758">  2  3  1 -1</clus>
<clus scale="   54.694">  2  4  1 -1</clus>
<clus scale="   66.452">  1  6  2 -1</clus>
<clus scale="   66.452">  1  3  2 -1</clus>
</clustering>
</event>
<event>
 6    0  0.1344929E+003  0.1758959E+03  0.7546771E-02  0.1171835E+00
         21   -1    0    0  505  501  0.00000000000E+00  0.00000000000E+00  0.19003763822E+03  0.19003763822E+03  0.00000000000E+00 0. -1.
         21   -1    0    0  504  502 -0.00000000000E+00 -0.00000000000E+00 -0.84780065335E+03  0.84780065335E+03  0.00000000000E+00 0.  1.
         21    1    1    2  503  502 -0.53046059753E+02 -0.14818122708E+03 -0.69238122556E+03  0.71004459157E+03  0.00000000000E+00 0.  1.
         21    1    1    2  504  501 -0.61337184177E+02 -0.30590796893E+02  0.74273769744E+02  0.10106750165E+03  0.00000000000E+00 0. -1.
         21    1    1    2  505  506  0.67879094382E+02  0.52387911579E+02 -0.33058520011E+02  0.91896302858E+02  0.00000000000E+00 0.  1.
         21    1    1    2  506  503  0.46504149548E+02  0.12638411239E+03 -0.65970393021E+01  0.13482989549E+03  0.00000000000E+00 0.  1.
<scales pt_clust_3="161.70998" pt_clust_4="68.54230" pt_clust_5="55.22082" pt_clust_6="55.22082"></scales>
<clustering>
<clus scale="   55.221">  5  6 -1 -1</clus>
<clus scale="   68.542">  1  4  2 -1</clus>
<clus scale="  161.710">  2  3  1 -1</clus>
<clus scale="   68.542">  1  3  2 -1</clus>
</clustering>
</event>
<event>
 6    0  0.1344929E+003  0.1418347E+03  0.7546771E-02  0.1210881E+00
         21   -1    0    0  503  501  0.00000000000E+00  0.00000000000E+00  0.13914352837E+03  0.13914352837E+03  0.00000000000E+00 0. -1.
         21   -1    0    0  504  502 -0.00000000000E+00 -0.00000000000E+00 -0.29203469112E+03  0.29203469112E+03  0.00000000000E+00 0. -1.
         21    1    1    2  503  502  0.67847495654E+01  0.46923132823E+02 -0.42828273591E+02  0.63891112366E+02  0.00000000000E+00 0. -1.
         21    1    1    2  504  506  0.83414145779E+02 -0.12905692595E+03 -0.15979462622E+03  0.22169332967E+03  0.00000000000E+00 0. -1.
         21    1    1    2  505  501 -0.51773553258E+02  0.13990240591E+02  0.39693071865E+02  0.66721567748E+02  0.00000000000E+00 0. -1.
         21    1    1    2  506  505 -0.38425342087E+02  0.68143552533E+02  0.10038665194E+02  0.78872209714E+02  0.00000000000E+00 0. -1.
<scales pt_clust_3="47.41111" pt_clust_4="127.57185" pt_clust_5="49.78408" pt_clust_6="49.78408"></scales>
<clustering>
<clus scale="   47.411">  2  3  1 -1</clus>
<clus scale="   49.784">  5  6 -1 -1</clus>
<clus scale="  127.572">  2  4  1 -1</clus>
<clus scale="  141.835">  1  3  2 -1</clus>
</clustering>
</event>
<event>
 6    0  0.1344929E+003  0.1974204E+03  0.7546771E-02  0.1151934E+00
         21   -1    0    0  505  501  0.00000000000E+00  0.00000000000E+00  0.32301936887E+03  0.32301936887E+03  0.00000000000E+00 0.  1.
         21   -1    0    0  504  502 -0.00000000000E+00 -0.00000000000E+00 -0.66312104505E+03  0.66312104505E+03  0.00000000000E+00 0. -1.
         21    1    1    2  503  501 -0.14441391640E+02  0.41929884204E+02  0.12511368376E+03  0.13274073545E+03  0.00000000000E+00 0.  1.
         21    1    1    2  504  503 -0.36225506978E+02  0.18840848916E+02 -0.33318153357E+03  0.33567424574E+03  0.00000000000E+00 0. -1.
         21    1    1    2  505  506  0.13298531805E+03  0.12376436109E+03  0.10215075318E+03  0.20841662187E+03  0.00000000000E+00 0.  1.
         21    1    1    2  506  502 -0.82318419436E+02 -0.18453509421E+03 -0.23418457957E+03  0.30930881087E+03  0.00000000000E+00 0. -1.
<scales pt_clust_3="44.69188" pt_clust_4="40.83216" pt_clust_5="197.42043" pt_clust_6="14000.00000"></scales>
<clustering>
<clus scale="   40.832">  2  4  1 -1</clus>
<clus scale="   44.692">  1  3  2 -1</clus>
<clus scale="  197.420">  1  5  2 -1</clus>
<clus scale="   44.692">  1  3  2 -1</clus>
</clustering>
</event>
<event>
 6    0  0.1344929E+003  0.7906818E+02  0.7546771E-02  0.1331717E+00
         21   -1    0    0  505  501  0.00000000000E+00  0.00000000000E+00  0.13100401447E+03  0.13100401447E+03  0.00000000000E+00 0. -1.
         21   -1    0    0  503  502 -0.00000000000E+00 -0.00000000000E+00 -0.38505973158E+03  0.38505973158E+03  0.00000000000E+00 0. -1.
         21    1    1    2  503  506  0.69019027376E+02  0.64040223938E+01 -0.24500907527E+03  0.25462538091E+03  0.00000000000E+00 0. -1.
         21    1    1    2  504  501  0.14025942503E+02 -0.32283308420E+02  0.58310836130E+02  0.68110885150E+02  0.00000000000E+00 0. -1.
         21    1    1    2  505  502 -0.81048866554E+02  0.86797689417E+02 -0.56125865095E+02  0.13135018230E+03  0.00000000000E+00 0. -1.
         21    1    1    2  506  504 -0.19961033247E+01 -0.60918403391E+02 -0.11231612880E+02  0.61977297683E+02  0.00000000000E+00 0. -1.
<scales pt_clust_3="70.13459" pt_clust_4="35.19857" pt_clust_5="79.06818" pt_clust_6="14000.00000"></scales>
<clustering>
<clus scale="   35.199">  1  4  2 -1</clus>
<clus scale="   70.135">  2  3  1 -1</clus>
<clus scale="   79.068">  2  5  1 -1</clus>
<clus scale="   35.199">  1  3  2 -1</clus>
</clustering>
</event>
<event>
 6    0  0.1344929E+003  0.8758828E+02  0.7546771E-02  0.1308799E+00
         21   -1    0    0  506  501  0.00000000000E+00  0.00000000000E+00  0.83700950893E+03  0.83700950893E+03  0.00000000000E+00 0. -1.
         21   -1    0    0  504  502 -0.00000000000E+00 -0.00000000000E+00 -0.56397685918E+03  0.56397685918E+03  0.00000000000E+00 0. -1.
         21    1    1    2  503  505 -0.92281418337E+02  0.77530783642E+02  0.78393240031E+02  0.14377893679E+03  0.00000000000E+00 0. -1.
         21    1    1    2  504  503  0.73072996212E+02  0.52014398964E+01 -0.47313635526E+03  0.47877419357E+03  0.00000000000E+00 0. -1.
         21    1    1    2  505  501  0.31951156769E+02 -0.52419104786E+01  0.69467036941E+03  0.69542452946E+03  0.00000000000E+00 0. -1.
         21    1    1    2  506  502 -0.12742734643E+02 -0.77490313059E+02 -0.26894604424E+02  0.83008708286E+02  0.00000000000E+00 0. -1.
<scales pt_clust_3="87.58828" pt_clust_4="73.88349" pt_clust_5="32.37830" pt_clust_6="14000.00000"></scales>
<clustering>
<clus scale="   32.378">  1  5  2 -1</clus>
<clus scale="   73.883">  2  4  1 -1</clus>
<clus scale="   87.588">  1  3  2 -1</clus>
<clus scale="   32.378">  1  3  2 -1</clus>
</clustering>
</event>
<event>
 6    0  0.1344929E+003  0.2007577E+03  0.7546771E-02  0.1149101E+00
         21   -1    0    0  504  501  0.00000000000E+00  0.00000000000E+00  0.22533960507E+03  0.22533960507E+03  0.00000000000E+00 0. -1.
         21   -1    0    0  505  502 -0.00000000000E+00 -0.00000000000E+00 -0.46021458559E+03  0.46021458559E+03  0.00000000000E+00 0. -1.
         21    1    1    2  503  502  0.81450808763E+02  0.16342963790E+03 -0.30678480130E+02  0.18516114586E+03  0.00000000000E+00 0. -1.
         21    1    1    2  504  503  0.15923009331E+02  0.30361602355E+02  0.82381661281E+02  0.89230640696E+02  0.00000000000E+00 0. -1.
         21    1    1    2  505  506 -0.60436993275E+02 -0.20026898913E+03 -0.30463261650E+03  0.36954205335E+03  0.00000000000E+00 0. -1.
         21    1    1    2  506  501 -0.36936824820E+02  0.64777488714E+01  0.18054454820E+02  0.41620350756E+02  0.00000000000E+00 0. -1.
<scales pt_clust_3="14000.00000" pt_clust_4="34.28366" pt_clust_5="200.75770" pt_clust_6="35.95294"></scales>
<clustering>
<clus scale="   34.284">  1  4  2 -1</clus>
<clus scale="   35.953">  1  6  2 -1</clus>
<clus scale="  200.758">  2  5  1 -1</clus>
<clus scale="   34.284">  1  3  2 -1</clus>
</clustering>
</event>
<event>
 6    0  0.1344929E+003  0.1782442E+03  0.7546771E-02  0.1169513E+00
         21   -1    0    0  505  501  0.00000000000E+00  0.00000000000E+00  0.34808549194E+03  0.34808549194E+03  0.00000000000E+00 0. -1.
         21   -1    0    0  504  502 -0.00000000000E+00 -0.00000000000E+00 -0.97650534313E+03  0.97650534313E+03  0.00000000000E+00 0.  1.
         21    1    1    2  503  506 -0.13675317924E+03  0.10778869966E+03  0.39897233119E+02  0.17863825183E+03  0.00000000000E+00 0. -1.
         21    1    1    2  504  501 -0.11379422184E+02 -0.38170367361E+02 -0.35926248567E+03  0.36146369361E+03  0.00000000000E+00 0.  1.
         21    1    1    2  505  503  0.83784271115E+02  0.72871794826E+02  0.21263083780E+03  0.23987908569E+03  0.00000000000E+00 0. -1.
         21    1    1    2  506  502  0.64348330307E+02 -0.14249012713E+03 -0.52168543645E+03  0.54460980394E+03  0.00000000000E+00 0.  1.
<scales pt_clust_3="178.24418" pt_clust_4="39.83049" pt_clust_5="110.29825" pt_clust_6="14000.00000"></scales>
<clustering>
<clus scale="   39.830">  2  4  1 -1</clus>
<clus scale="  110.298">  1  5  2 -1</clus>
<clus scale="  178.244">  1  3  2 -1</clus>
<clus scale="  110.298">  1  3  2 -1</clus>
</clustering>
</event>
<event>
 6    0  0.1344929E+003  0.9921968E+02  0.7546771E-02  0.1281945E+00
         21   -1    0    0  504  501  0.00000000000E+00  0.00000000000E+00  0.57023325287E+03  0.57023325287E+03  0.00000000000E+00 0. -1.
         21   -1    0    0  506  502 -0.00000000000E+00 -0.00000000000E+00 -0.99272484327E+03  0.99272484327E+03  0.00000000000E+00 0. -1.
         21    1    1    2  503  501 -0.69506394757E+02  0.44565066656E+02  0.19302309723E+03  0.20994070625E+03  0.00000000000E+00 0. -1.
         21    1    1    2  504  502  0.96418416382E+01 -0.99717084628E+02  0.30815172254E+03  0.32402769354E+03  0.00000000000E+00 0. -1.
         21    1    1    2  505  503  0.28565344287E+02  0.14740911213E+03 -0.63008947491E+02  0.16283596868E+03  0.00000000000E+00 0. -1.
         21    1    1    2  506  505  0.31299208832E+02 -0.92257094158E+02 -0.86065746267E+03  0.86615372766E+03  0.00000000000E+00 0. -1.
<scales pt_clust_3="82.56624" pt_clust_4="79.23446" pt_clust_5="14000.00000" pt_clust_6="99.21968"></scales>
<clustering>
<clus scale="   82.566">  1  3  2 -1</clus>
<clus scale="   79.234">  1  4  2 -1</clus>
<clus scale="   99.220">  2  6  1 -1</clus>
<clus scale="   82.566">  1  3  2 -1</clus>
</clustering>
</event>
<event>
 6    0  0.1344929E+003  0.1412568E+03  0.7546771E-02  0.1211648E+00
         21   -1    0    0  502  501  0.00000000000E+00  0.00000000000E+00  0.26194807920E+03  0.26194807920E+03  0.00000000000E+00 0.  1.
         21   -1    0    0  503  502 -0.00000000000E+00 -0.00000000000E+00 -0.90701145253E+03  0.90701145253E+03  0.00000000000E+00 0.  1.
         21    1    1    2  503  504  0.82820598845E+02 -0.30552666648E+02 -0.61611058412E+03  0.62240257784E+03  0.00000000000E+00 0.  1.
         21    1    1    2  504  506  0.32049410447E+02 -0.40497840643E+02 -0.26039270055E+03  0.26546487208E+03  0.00000000000E+00 0.  1.
         21    1    1    2  505  501 -0.25113737650E+02 -0.17538842293E+02  0.68599126087E+02  0.75127564233E+02  0.00000000000E+00 0.  1.
         21    1    1    2  506  505 -0.89756271642E+02  0.88589349584E+02  0.16284078526E+03  0.20596451758E+03  0.00000000000E+00 0.  1.
<scales pt_clust_3="32.56298" pt_clust_4="32.56298" pt_clust_5="30.63186" pt_clust_6="134.70770"></scales>
<clustering>
<clus scale="   30.632">  1  5  2 -1</clus>
<clus scale="   32.563">  3  4 -1 -1</clus>
<clus scale="  134.708">  1  6  2 -1</clus>
<clus scale="   30.632">  1  3  2 -1</clus>
</clustering>
</event>
<event>
 6    0  0.1344929E+003  0.9711738E+02  0.7546771E-02  0.1286477E+00
         21   -1    0    0  503  501  0.00000000000E+00  0.00000000000E+00  0.13832073396E+03  0.13832073396E+03  0.00000000000E+00 0.  1.
         21   -1    0    0  506  502 -0.00000000000E+00 -0.00000000000E+00 -0.20797442246E+03  0.20797442246E+03  0.00000000000E+00 0.  1.
         21    1    1    2  503  505 -0.44073271879E+02 -0.18528390227E+02 -0.30346855583E+01  0.47905781018E+02  0.00000000000E+00 0. -1.
         21    1    1    2  504  501  0.40756536271E+01 -0.34511799830E+02  0.49557651094E+02  0.60527977514E+02  0.00000000000E+00 0. -1.
         21    1    1    2  505  502 -0.31971609204E+02  0.10632011234E+03 -0.94340286164E+02  0.14569227734E+03  0.00000000000E+00 0.  1.
         21    1    1    2  506  504  0.71969227456E+02 -0.53279922287E+02 -0.21836367880E+02  0.92169120543E+02  0.00000000000E+00 0.  1.
<scales pt_clust_3="51.19730" pt_clust_4="34.75162" pt_clust_5="14000.00000" pt_clust_6="97.11738"></scales>
<clustering>
<clus scale="   34.752">  1  4  2 -1</clus>
<clus scale="   51.197">  1  3  2 -1</clus>
<clus scale="   97.117">  1  6  2 -1</clus>
<clus scale="   34.752">  1  3  2 -1</clus>
</clustering>
</event>
<event>
 6    0  0.1344929E+003  0.1194119E+03  0.7546771E-02  0.1244070E+00
         21   -1    0    0  504  501  0.00000000000E+00  0.00000000000E+00  0.35446421699E+03  0.35446421699E+03  0.00000000000E+00 0.  1.
         21   -1    0    0  506  502 -0.00000000000E+00 -0.00000000000E+00 -0.11032920759E+04  0.11032920759E+04  0.00000000000E+00 0.  1.
         21    1    1    2  503  502 -0.76551456057E+02 -0.10367675575E+03 -0.26776900605E+03  0.29716869907E+03  0.00000000000E+00 0.  1.
         21    1    1    2  504  503  0.23169606992E+02  0.19199499949E+02  0.25322011099E+03  0.25500171783E+03  0.00000000000E+00 0.  1.
         21    1    1    2  505  501  0.95423349533E+02  0.24654139217E+02  0.55042219241E+02  0.11288528742E+03  0.00000000000E+00 0.  1.
         21    1    1    2  506  505 -0.42041500468E+02  0.59823116588E+02 -0.78932118309E+03  0.79270058856E+03  0.00000000000E+00 0.  1.
<scales pt_clust_3="119.41192" pt_clust_4="30.09072" pt_clust_5="14000.00000" pt_clust_6="73.16027"></scales>
<clustering>
<clus scale="   30.091">  1  4  2 -1</clus>
<clus scale="   73.160">  2  6  1 -1</clus>
<clus scale="  119.412">  2  3  1 -1</clus>
<clus scale="   30.091">  1  3  2 -1</clus>
</clustering>
</event>
<event>
 6    0  0.1344929E+003  0.1044869E+03  0.7546771E-02  0.1271134E+00
         21   -1    0    0  505  501  0.00000000000E+00  0.00000000000E+00  0.16805126184E+03  0.16805126184E+03  0.00000000000E+00 0. -1.
         21   -1    0    0  504  502 -0.00000000000E+00 -0.00000000000E+00 -0.80027805998E+03  0.80027805998E+03  0.00000000000E+00 0. -1.
         21    1    1    2  503  501  0.56442283659E+02 -0.12018765553E+03  0.57996718148E+02  0.14489452454E+03  0.00000000000E+00 0. -1.
         21    1    1    2  504  503 -0.56212389373E+02  0.50061066593E+02 -0.66917709967E+03  0.67339730756E+03  0.00000000000E+00 0. -1.
         21    1    1    2  505  506  0.15192941662E+02  0.43197208371E+02  0.52826827419E+02  0.69910642842E+02  0.00000000000E+00 0. -1.
         21    1    1    2  506  502 -0.15422835948E+02  0.26929380563E+02 -0.73873244038E+02  0.80126846880E+02  0.00000000000E+00 0. -1.
<scales pt_clust_3="14000.00000" pt_clust_4="104.48687" pt_clust_5="46.03152" pt_clust_6="31.03313"></scales>
<clustering>
<clus scale="   31.033">  2  6  1 -1</clus>
<clus scale="   46.032">  1  5  2 -1</clus>
<clus scale="  104.487">  2  4  1 -1</clus>
<clus scale="   46.032">  1  3  2 -1</clus>
</clustering>
</event>
<event>
 6    0  0.1344929E+003  0.1614369E+03  0.7546771E-02  0.1187084E+00
         21   -1    0    0  506  501  0.00000000000E+00  0.00000000000E+00  0.12168612037E+04  0.12168612037E+04  0.00000000000E+00 0.  1.
         21   -1    0    0  503  502 -0.00000000000E+00 -0.00000000000E+00 -0.10906501815E+03  0.10906501815E+03  0.00000000000E+00 0.  1.
         21    1    1    2  503  505  0.22398493266E+01 -0.34677991080E+02 -0.64214912255E+01  0.35338584294E+02  0.00000000000E+00 0. -1.
         21    1    1    2  504  502  0.84120836445E+02  0.10610792425E+03  0.19918161901E+02  0.13686467728E+03  0.00000000000E+00 0.  1.
         21    1    1    2  505  501 -0.26884263536E+02 -0.18385403196E+03  0.91631829299E+03  0.93496753032E+03  0.00000000000E+00 0.  1.
         21    1    1    2  506  504 -0.59476422236E+02  0.11242409879E+03  0.17798122191E+03  0.21875542997E+03  0.00000000000E+00 0.  1.
<scales pt_clust_3="34.75025" pt_clust_4="119.31596" pt_clust_5="14000.00000" pt_clust_6="161.43687"></scales>
<clustering>
<clus scale="   34.750">  2  3  1 -1</clus>
<clus scale="  119.316">  2  4  1 -1</clus>
<clus scale="  161.437">  2  6  1 -1</clus>
<clus scale="  161.437">  1  3  2 -1</clus>
</clustering>
</event>
<event>
 6    0  0.1344929E+003  0.1263507E+03  0.7546771E-02  0.1232973E+00
         21   -1    0    0  503  501  0.00000000000E+00  0.00000000000E+00  0.17341604419E+04  0.17341604419E+04  0.00000000000E+00 0. -1.
         21   -1    0    0  505  502 -0.00000000000E+00 -0.00000000000E+00 -0.10896098464E+03  0.10896098464E+03  0.00000000000E+00 0.  1.
         21    1    1    2  503  504 -0.68303604432E+02 -0.49852886387E+02  0.12421021951E+04  0.12449773314E+04  0.00000000000E+00 0. -1.
         21    1    1    2  504  502  0.13191982123E+03 -0.12739839070E+02 -0.47339184806E+02  0.14073429273E+03  0.00000000000E+00 0.  1.
         21    1    1    2  505  506 -0.41820640697E+01  0.32781149382E+02  0.14322717595E+02  0.36017130008E+02  0.00000000000E+00 0. -1.
         21    1    1    2  506  501 -0.59434152725E+02  0.29811576074E+02  0.41611372943E+03  0.42139267245E+03  0.00000000000E+00 0. -1.
<scales pt_clust_3="126.35066" pt_clust_4="14000.00000" pt_clust_5="33.04684" pt_clust_6="66.99174"></scales>
<clustering>
<clus scale="   33.047">  2  5  1 -1</clus>
<clus scale="   66.992">  1  6  2 -1</clus>
<clus scale="  126.351">  1  3  2 -1</clus>
<clus scale="   66.992">  1  3  2 -1</clus>
</clustering>
</event>
<event>
 6    0  0.1344929E+003  0.1478372E+03  0.7546771E-02  0.1203156E+00
         21   -1    0    0  503  501  0.00000000000E+00  0.00000000000E+00  0.35716055767E+04  0.35716055767E+04  0.00000000000E+00 0. -1.
         21   -1    0    0  506  502 -0.00000000000E+00 -0.00000000000E+00 -0.13673042941E+03  0.13673042941E+03  0.00000000000E+00 0.  1.
         21    1    1    2  503  504  0.12374155445E+03  0.11440842677E+03  0.17903090333E+04  0.17982234831E+04  0.00000000000E+00 0. -1.
         21    1    1    2  504  502 -0.14571363386E+02 -0.46462647153E+02 -0.12301369581E+03  0.13230068620E+03  0.00000000000E+00 0.  1.
         21    1    1    2  505  501  0.22910542694E+02 -0.26823804461E+02  0.14045435549E+03  0.14481655785E+03  0.00000000000E+00 0. -1.
         21    1    1    2  506  505 -0.13208073376E+03 -0.41121975151E+02  0.16271254543E+04  0.16329952790E+04  0.00000000000E+00 0.  1.
<scales pt_clust_3="147.83721" pt_clust_4="48.71936" pt_clust_5="35.27619" pt_clust_6="14000.00000"></scales>
<clustering>
<clus scale="   35.276">  1  5  2 -1</clus>
<clus scale="   48.719">  2  4  1 -1</clus>
<clus scale="  147.837">  2  3  1 -1</clus>
<clus scale="   35.276">  1  3  2 -1</clus>
</clustering>
</event>
<event>
 6    0  0.1344929E+003  0.1418555E+03  0.7546771E-02  0.1210854E+00
         21   -1    0    0  504  501  0.00000000000E+00  0.00000000000E+00  0.26049374473E+04  0.26049374473E+04  0.00000000000E+00 0. -1.
         21   -1    0    0  503  502 -0.00000000000E+00 -0.00000000000E+00 -0.41298407353E+02  0.41298407353E+02  0.00000000000E+00 0.  1.
         21    1    1    2  503  505 -0.11966421186E+02  0.10441158613E+03  0.38331674641E+02  0.11186729564E+03  0.00000000000E+00 0.  1.
         21    1    1    2  504  502 -0.29197379958E+02  0.19709366316E+02  0.12723516131E+03  0.13202171182E+03  0.00000000000E+00 0.  1.
         21    1    1    2  505  506 -0.13875023290E+02 -0.36017204236E+02  0.54490210278E+03  0.54626738589E+03  0.00000000000E+00 0. -1.
         21    1    1    2  506  501  0.55038824434E+02 -0.88103748206E+02  0.18531701012E+04  0.18560794613E+04  0.00000000000E+00 0. -1.
<scales pt_clust_3="129.24153" pt_clust_4="35.22707" pt_clust_5="35.79061" pt_clust_6="35.79061"></scales>
<clustering>
<clus scale="   35.227">  2  4  1 -1</clus>
<clus scale="   35.791">  5  6 -1 -1</clus>
<clus scale="  129.242">  2  3  1 -1</clus>
<clus scale="  141.855">  1  3  2 -1</clus>
</clustering>
</event>
<event>
 6    0  0.1344929E+003  0.7644252E+02  0.7546771E-02  0.1339461E+00
         21   -1    0    0  505  501  0.00000000000E+00  0.00000000000E+00  0.21766942882E+03  0.21766942882E+03  0.00000000000E+00 0.  1.
         21   -1    0    0  504  502 -0.00000000000E+00 -0.00000000000E+00 -0.54243052305E+03  0.54243052305E+03  0.00000000000E+00 0. -1.
         21    1    1    2  503  506  0.47708372752E+02  0.20965239680E+02 -0.12474533559E+03  0.13519256213E+03  0.00000000000E+00 0. -1.
         21    1    1    2  504  501 -0.76318105078E+02 -0.92955637227E+02 -0.27539179065E+03  0.30050930437E+03  0.00000000000E+00 0. -1.
         21    1    1    2  505  503  0.26679783296E+02  0.41252481173E+02  0.19488626818E+03  0.20098317234E+03  0.00000000000E+00 0.  1.
         21    1    1    2  506  502  0.19299490313E+01  0.30737916374E+02 -0.11951023617E+03  0.12341491302E+03  0.00000000000E+00 0. -1.
<scales pt_clust_3="14000.00000" pt_clust_4="76.44252" pt_clust_5="49.32280" pt_clust_6="30.79844"></scales>
<clustering>
<clus scale="   30.798">  2  6  1 -1</clus>
<clus scale="   49.323">  1  5  2 -1</clus>
<clus scale="   76.443">  1  4  2 -1</clus>
<clus scale="   49.323">  1  3  2 -1</clus>
</clustering>
</event>
<event>
 6    0  0.1344929E+003  0.1052967E+03  0.7546771E-02  0.1269536E+00
         21   -1    0    0  505  501  0.00000000000E+00  0.00000000000E+00  0.16476149746E+04  0.16476149746E+04  0.00000000000E+00 0.  1.
         21   -1    0    0  506  502 -0.00000000000E+00 -0.00000000000E+00 -0.18287962415E+03  0.18287962415E+03  0.00000000000E+00 0.  1.
         21    1    1    2  503  502  0.41374601440E+02 -0.65720396137E+02 -0.13434707115E+03  0.15517784520E+03  0.00000000000E+00 0.  1.
         21    1    1    2  504  503 -0.42292509086E+02  0.11022687940E+03  0.35215389333E+03  0.37141753574E+03  0.00000000000E+00 0.  1.
         21    1    1    2  505  504 -0.32328261684E+02 -0.33422395322E+02  0.12640432431E+04  0.12648982146E+04  0.00000000000E+00 0.  1.
         21    1    1    2  506  501  0.33246169330E+02 -0.11084087945E+02 -0.17114714850E+02  0.39001003129E+02  0.00000000000E+00 0.  1.
<scales pt_clust_3="14000.00000" pt_clust_4="105.29673" pt_clust_5="46.45743" pt_clust_6="35.04518"></scales>
<clustering>
<clus scale="   35.045">  2  6  1 -1</clus>
<clus scale="   46.457">  1  5  2 -1</clus>
<clus scale="  105.297">  1  4  2 -1</clus>
<clus scale="   46.457">  1  3  2 -1</clus>
</clustering>
</event>
<event>
 6    0  0.1344929E+003  0.1124984E+03  0.7546771E-02  0.1256012E+00
         21   -1    0    0  503  501  0.00000000000E+00  0.00000000000E+00  0.11453533726E+03  0.11453533726E+03  0.00000000000E+00 0.  1.
         21   -1    0    0  504  502 -0.00000000000E+00 -0.00000000000E+00 -0.56729802265E+03  0.56729802265E+03  0.00000000000E+00 0.  1.
         21    1    1    2  503  505 -0.45775320706E+02  0.25070004986E+02  0.29523529009E+00  0.52191688032E+02  0.00000000000E+00 0.  1.
         21    1    1    2  504  501 -0.11169340353E+03 -0.57961184160E+02 -0.16474346699E+03  0.20730490871E+03  0.00000000000E+00 0.  1.
         21    1    1    2  505  506  0.13627665523E+03  0.10129390108E+02 -0.43993326047E+01  0.13672339021E+03  0.00000000000E+00 0.  1.
         21    1    1    2  506  502  0.21192069010E+02  0.22761789066E+02 -0.28391512108E+03  0.28561337295E+03  0.00000000000E+00 0.  1.
<scales pt_clust_3="51.56233" pt_clust_4="14000.00000" pt_clust_5="112.49841" pt_clust_6="31.09988"></scales>
<clustering>
<clus scale="   31.100">  2  6  1 -1</clus>
<clus scale="   51.562">  1  3  2 -1</clus>
<clus scale="  112.498">  1  5  2 -1</clus>
<clus scale="   51.562">  1  3  2 -1</clus>
</clustering>
</event>
<event>
 6    0  0.1344929E+003  0.1921435E+03  0.7546771E-02  0.1156542E+00
         21   -1    0    0  505  501  0.00000000000E+00  0.00000000000E+00  0.41920172657E+03  0.41920172657E+03  0.00000000000E+00 0.  1.
         21   -1    0    0  504  502 -0.00000000000E+00 -0.00000000000E+00 -0.48271365421E+03  0.48271365421E+03  0.00000000000E+00 0.  1.
         21    1    1    2  503  502 -0.54482011443E+02 -0.34367615804E+02 -0.16792697068E+03  0.17985797194E+03  0.00000000000E+00 0.  1.
         21    1    1    2  504  506  0.32390479432E+02  0.15069644745E+02 -0.69225074683E+02  0.77899604078E+02  0.00000000000E+00 0.  1.
         21    1    1    2  505  503 -0.29765483881E+02  0.19151519637E+03  0.34501612973E+03  0.39572741154E+03  0.00000000000E+00 0.  1.
         21    1    1    2  506  501  0.51857015891E+02 -0.17221722531E+03 -0.17137601201E+03  0.24843039323E+03  0.00000000000E+00 0.  1.
<scales pt_clust_3="49.39333" pt_clust_4="35.72446" pt_clust_5="14000.00000" pt_clust_6="192.14351"></scales>
<clustering>
<clus scale="   35.724">  2  4  1 -1</clus>
<clus scale="   49.393">  2  3  1 -1</clus>
<clus scale="  192.144">  2  6  1 -1</clus>
<clus scale="  192.144">  1  3  2 -1</clus>
</clustering>
</event>
<event>
 6    0  0.1344929E+003  0.6447943E+02  0.7546771E-02  0.1379940E+00
         21   -1    0    0  505  501  0.00000000000E+00  0.00000000000E+00  0.28683839787E+03  0.28683839787E+03  0.00000000000E+00 0.  1.
         21   -1    0    0  503  502 -0.00000000000E+00 -0.00000000000E+00 -0.41397449293E+03  0.41397449293E+03  0.00000000000E+00 0.  1.
         21    1    1    2  503  506 -0.56000489025E+02  0.26996493467E+02 -0.33713152364E+03  0.34281559134E+03  0.00000000000E+00 0.  1.
         21    1    1    2  504  501  0.28905942838E+02  0.38454169848E+02  0.77504508049E+02  0.91220751356E+02  0.00000000000E+00 0.  1.
         21    1    1    2  505  502  0.75176278390E+02 -0.77165985653E+02 -0.17219282554E+02  0.10909888114E+03  0.00000000000E+00 0.  1.
         21    1    1    2  506  504 -0.48081732203E+02  0.11715322337E+02  0.14971020310E+03  0.15767766697E+03  0.00000000000E+00 0.  1.
<scales pt_clust_3="64.47943" pt_clust_4="48.10693" pt_clust_5="14000.00000" pt_clust_6="48.54387"></scales>
<clustering>
<clus scale="   48.107">  1  4  2 -1</clus>
<clus scale="   48.544">  1  6  2 -1</clus>
<clus scale="   64.479">  2  3  1 -1</clus>
<clus scale="   48.107">  1  3  2 -1</clus>
</clustering>
</event>
<event>
 6    0  0.1344929E+003  0.7232391E+02  0.7546771E-02  0.1352364E+00
         21   -1    0    0  505  501  0.00000000000E+00  0.00000000000E+00  0.12117900956E+03  0.12117900956E+03  0.00000000000E+00 0. -1.
         21   -1    0    0  503  502 -0.00000000000E+00 -0.00000000000E+00 -0.55711677193E+03  0.55711677193E+03  0.00000000000E+00 0. -1.
         21    1    1    2  503  506 -0.24664985687E+02  0.40217734961E+02 -0.30926139656E+03  0.31283931839E+03  0.00000000000E+00 0. -1.
         21    1    1    2  504  502  0.28229752121E+02 -0.80138340103E+02 -0.14615686653E+03  0.16905887168E+03  0.00000000000E+00 0. -1.
         21    1    1    2  505  504  0.69300803936E+02  0.36302213941E+02 -0.52256685370E+02  0.94080887161E+02  0.00000000000E+00 0. -1.
         21    1    1    2  506  501 -0.72865570371E+02  0.36183912012E+01  0.71737186102E+02  0.10231670426E+03  0.00000000000E+00 0. -1.
<scales pt_clust_3="47.17868" pt_clust_4="55.78141" pt_clust_5="14000.00000" pt_clust_6="72.32391"></scales>
<clustering>
<clus scale="   47.179">  2  3  1 -1</clus>
<clus scale="   55.781">  2  4  1 -1</clus>
<clus scale="   72.324">  1  6  2 -1</clus>
<clus scale="   72.324">  1  3  2 -1</clus>
</clustering>
</event>
<event>
 6    0  0.1344929E+003  0.1078379E+03  0.7546771E-02  0.1264627E+00
         21   -1    0    0  506  501  0.00000000000E+00  0.00000000000E+00  0.34297960615E+04  0.34297960615E+04  0.00000000000E+00 0.  1.
         21   -1    0    0  505  502 -0.00000000000E+00 -0.00000000000E+00 -0.64540516583E+02  0.64540516583E+02  0.00000000000E+00 0. -1.
         21    1    1    2  503  501  0.77838022762E+02 -0.74630504353E+02  0.28747519825E+04  0.28767737886E+04  0.00000000000E+00 0.  1.
         21    1    1    2  504  503  0.56436138558E+02 -0.36040838648E+01  0.18085403558E+03  0.18948933834E+03  0.00000000000E+00 0.  1.
         21    1    1    2  505  504 -0.32017404292E+02  0.29917662068E+02 -0.40771276959E+02  0.59853802771E+02  0.00000000000E+00 0. -1.
         21    1    1    2  506  502 -0.10225675703E+03  0.48316926149E+02  0.35042080382E+03  0.36821964839E+03  0.00000000000E+00 0. -1.
<scales pt_clust_3="107.83788" pt_clust_4="47.03975" pt_clust_5="43.81987" pt_clust_6="14000.00000"></scales>
<clustering>
<clus scale="   43.820">  2  5  1 -1</clus>
<clus scale="   47.040">  2  4  1 -1</clus>
<clus scale="  107.838">  1  3  2 -1</clus>
<clus scale="  107.838">  1  3  2 -1</clus>
</clustering>
</event>
<event>
 6    0  0.1344929E+003  0.5793180E+02  0.7546771E-02  0.1406722E+00
         21   -1    0    0  504  501  0.00000000000E+00  0.00000000000E+00  0.16462582377E+03  0.16462582377E+03  0.00000000000E+00 0. -1.
         21   -1    0    0  503  502 -0.00000000000E+00 -0.00000000000E+00 -0.22412456387E+03  0.22412456387E+03  0.00000000000E+00 0.  1.
         21    1    1    2  503  501 -0.25198137859E+02  0.47587641118E+02 -0.13156052128E+03  0.14215379171E+03  0.00000000000E+00 0.  1.
         21    1    1    2  504  505 -0.10826584298E+02  0.34331631418E+02  0.71763047478E+02  0.80285807131E+02  0.00000000000E+00 0. -1.
         21    1    1    2  505  506 -0.50190007555E+02 -0.82327993623E+01 -0.11925533076E+02  0.52240158717E+02  0.00000000000E+00 0. -1.
         21    1    1    2  506  502  0.86214729712E+02 -0.73686473173E+02  0.12224266777E+02  0.11407063008E+03  0.00000000000E+00 0. -1.
<scales pt_clust_3="57.93180" pt_clust_4="35.99828" pt_clust_5="52.65481" pt_clust_6="14000.00000"></scales>
<clustering>
<clus scale="   35.998">  1  4  2 -1</clus>
<clus scale="   52.655">  1  5  2 -1</clus>
<clus scale="   57.932">  2  3  1 -1</clus>
<clus scale="   35.998">  1  3  2 -1</clus>
</clustering>
</event>
<event>
 6    0  0.1344929E+003  0.2080763E+03  0.7546771E-02  0.1143099E+00
         21   -1    0    0  504  501  0.00000000000E+00  0.00000000000E+00  0.42420568353E+03  0.42420568353E+03  0.00000000000E+00 0. -1.
         21   -1    0    0  503  502 -0.00000000000E+00 -0.00000000000E+00 -0.94585212252E+03  0.94585212252E+03  0.00000000000E+00 0. -1.
         21    1    1    2  503  501  0.31823250212E+02  0.21160249111E+03 -0.11943780690E+03  0.24505861180E+03  0.00000000000E+00 0. -1.
         21    1    1    2  504  505  0.28724502000E+02  0.25686710228E+02  0.29891578607E+03  0.30138936819E+03  0.00000000000E+00 0. -1.
         21    1    1    2  505  506  0.40317332806E+02 -0.53994396768E+02  0.21954456708E+02  0.70872282144E+02  0.00000000000E+00 0. -1.
         21    1    1    2  506  502 -0.10086508502E+03 -0.18329480457E+03 -0.72307887485E+03  0.75273754392E+03  0.00000000000E+00 0. -1.
<scales pt_clust_3="208.07626" pt_clust_4="38.53445" pt_clust_5="67.65724" pt_clust_6="14000.00000"></scales>
<clustering>
<clus scale="   38.534">  1  4  2 -1</clus>
<clus scale="   67.657">  1  5  2 -1</clus>
<clus scale="  208.076">  1  3  2 -1</clus>
<clus scale="   38.534">  1  3  2 -1</clus>
</clustering>
</event>
<event>
 6    0  0.1344929E+003  0.2172532E+03  0.7546771E-02  0.1135948E+00
         21   -1    0    0  505  501  0.00000000000E+00  0.00000000000E+00  0.66512579601E+03  0.66512579601E+03  0.00000000000E+00 0. -1.
         21   -1    0    0  504  502 -0.00000000000E+00 -0.00000000000E+00 -0.98405089293E+02  0.98405089293E+02  0.00000000000E+00 0. -1.
         21    1    1    2  503  501  0.25296082003E+02  0.24375069343E+02  0.18359344488E+03  0.18692401871E+03  0.00000000000E+00 0.  1.
         21    1    1    2  504  503  0.13558452707E+03  0.13391073503E+03  0.13812305006E+03  0.23535765527E+03  0.00000000000E+00 0. -1.
         21    1    1    2  505  506 -0.59753466205E+02 -0.37456583369E+02  0.35064550203E+02  0.78759094980E+02  0.00000000000E+00 0. -1.
         21    1    1    2  506  502 -0.10112714287E+03 -0.12082922100E+03  0.20993966157E+03  0.26249011633E+03  0.00000000000E+00 0. -1.
<scales pt_clust_3="35.12885" pt_clust_4="204.23503" pt_clust_5="50.96368" pt_clust_6="50.96368"></scales>
<clustering>
<clus scale="   35.129">  1  3  2 -1</clus>
<clus scale="   50.964">  5  6 -1 -1</clus>
<clus scale="  204.235">  2  4  1 -1</clus>
<clus scale="   35.129">  1  3  2 -1</clus>
</clustering>
</event>
<event>
 6    0  0.1344929E+003  0.1725844E+03  0.7546771E-02  0.1175179E+00
         21   -1    0    0  505  501  0.00000000000E+00  0.00000000000E+00  0.25041691920E+03  0.25041691920E+03  0.00000000000E+00 0. -1.
         21   -1    0    0  504  502 -0.00000000000E+00 -0.00000000000E+00 -0.26097723311E+03  0.26097723311E+03  0.00000000000E+00 0. -1.
         21    1    1    2  503  502  0.39668440267E+02 -0.78178523885E+02  0.57608661340E+02  0.10490102293E+03  0.00000000000E+00 0. -1.
         21    1    1    2  504  506 -0.72579670955E+01  0.36230151872E+02 -0.93852700807E+02  0.10086442108E+03  0.00000000000E+00 0. -1.
         21    1    1    2  505  503 -0.11837499989E+02 -0.74282783729E+02  0.12862750765E+03  0.14900702698E+03  0.00000000000E+00 0. -1.
         21    1    1    2  506  501 -0.20572973182E+02  0.11623115574E+03 -0.10294378209E+03  0.15662168133E+03  0.00000000000E+00 0. -1.
<scales pt_clust_3="70.33974" pt_clust_4="33.34154" pt_clust_5="70.33974" pt_clust_6="166.04288"></scales>
<clustering>
<clus scale="   33.342">  4  6 -1 -1</clus>
<clus scale="   70.340">  3  5 -1 -1</clus>
<clus scale="  166.043">  2  4  1 -1</clus>
<clus scale="  172.584">  1  3  2 -1</clus>
</clustering>
</event>
<event>
 6    0  0.1344929E+003  0.2022343E+03  0.7546771E-02  0.1147867E+00
         21   -1    0    0  505  501  0.00000000000E+00  0.00000000000E+00  0.14533868567E+04  0.14533868567E+04  0.00000000000E+00 0.  1.
         21   -1    0    0  506  502 -0.00000000000E+00 -0.00000000000E+00 -0.10867722147E+03  0.10867722147E+03  0.00000000000E+00 0. -1.
         21    1    1    2  503  501  0.20036430480E+03  0.18761828357E+03  0.34988610707E+03  0.44470975128E+03  0.00000000000E+00 0. -1.
         21    1    1    2  504  502 -0.13558289598E+03 -0.60874706230E+02  0.47799583840E+03  0.50056815028E+03  0.00000000000E+00 0.  1.
         21    1    1    2  505  504 -0.16275396268E+02 -0.87896664520E+02  0.54230437405E+03  0.54962236697E+03  0.00000000000E+00 0.  1.
         21    1    1    2  506  503 -0.48506012545E+02 -0.38846912817E+02 -0.25476684257E+02  0.67163809669E+02  0.00000000000E+00 0. -1.
<scales pt_clust_3="202.23432" pt_clust_4="14000.00000" pt_clust_5="92.18119" pt_clust_6="62.14432"></scales>
<clustering>
<clus scale="   62.144">  2  6  1 -1</clus>
<clus scale="   92.181">  1  5  2 -1</clus>
<clus scale="  202.234">  2  3  1 -1</clus>
<clus scale="   92.181">  1  3  2 -1</clus>
</clustering>
</event>
<event>
 6    0  0.1344929E+003  0.1082679E+03  0.7546771E-02  0.1263812E+00
         21   -1    0    0  504  501  0.00000000000E+00  0.00000000000E+00  0.37091938697E+02  0.37091938697E+02  0.00000000000E+00 0. -1.
         21   -1    0    0  503  502 -0.00000000000E+00 -0.00000000000E+00 -0.13356800217E+04  0.13356800217E+04  0.00000000000E+00 0. -1.
         21    1    1    2  503  506 -0.13425258557E+03 -0.63653202064E+01 -0.38999458022E+03  0.41250460195E+03  0.00000000000E+00 0. -1.
         21    1    1    2  504  505 -0.16895778485E+02 -0.76993180668E+02 -0.12527185408E+03  0.14800829242E+03  0.00000000000E+00 0. -1.
         21    1    1    2  505  502  0.54042776494E+02  0.44332586190E+02 -0.57392711555E+03  0.57816808443E+03  0.00000000000E+00 0. -1.
         21    1    1    2  506  501  0.97105587556E+02  0.39025914685E+02 -0.20939453319E+03  0.23409098164E+03  0.00000000000E+00 0. -1.
<scales pt_clust_3="108.26785" pt_clust_4="69.39071" pt_clust_5="69.89993" pt_clust_6="14000.00000"></scales>
<clustering>
<clus scale="   69.900">  2  5  1 -1</clus>
<clus scale="   69.391">  1  4  2 -1</clus>
<clus scale="  108.268">  2  3  1 -1</clus>
<clus scale="   69.391">  1  3  2 -1</clus>
</clustering>
</event>
<event>
 6    0  0.1344929E+003  0.1924535E+03  0.7546771E-02  0.1156267E+00
         21   -1    0    0  503  501  0.00000000000E+00  0.00000000000E+00  0.54339772340E+03  0.54339772340E+03  0.00000000000E+00 0.  1.
         21   -1    0    0  505  502 -0.00000000000E+00 -0.00000000000E+00 -0.10830773074E+04  0.10830773074E+04  0.00000000000E+00 0.  1.
         21    1    1    2  503  502 -0.10465302583E+03  0.11926696073E+03 -0.71812269229E+03  0.73544344780E+03  0.00000000000E+00 0.  1.
         21    1    1    2  504  506  0.27890740937E+03  0.39805845026E+02  0.26347902950E+03  0.38573961074E+03  0.00000000000E+00 0.  1.
         21    1    1    2  505  504 -0.71578518856E+02 -0.19005236778E+03 -0.24153753556E+03  0.31556895909E+03  0.00000000000E+00 0.  1.
         21    1    1    2  506  501 -0.10267586469E+03  0.30979562016E+02  0.15650161431E+03  0.18972301320E+03  0.00000000000E+00 0.  1.
<scales pt_clust_3="160.80616" pt_clust_4="14000.00000" pt_clust_5="192.45354" pt_clust_6="107.24769"></scales>
<clustering>
<clus scale="  107.248">  1  6  2 -1</clus>
<clus scale="  160.806">  2  3  1 -1</clus>
<clus scale="  192.454">  2  5  1 -1</clus>
<clus scale="  107.248">  1  3  2 -1</clus>
</clustering>
</event>
<event>
 6    0  0.1344929E+003  0.1330172E+03  0.7546771E-02  0.1223046E+00
         21   -1    0    0  505  501  0.00000000000E+00  0.00000000000E+00  0.45121266987E+03  0.45121266987E+03  0.00000000000E+00 0.  1.
         21   -1    0    0  503  502 -0.00000000000E+00 -0.00000000000E+00 -0.71085738694E+02  0.71085738694E+02  0.00000000000E+00 0. -1.
         21    1    1    2  503  504  0.24875899481E+02 -0.40939315588E+02  0.98548805688E+01  0.48907633421E+02  0.00000000000E+00 0. -1.
         21    1    1    2  504  501  0.38179438730E+02 -0.41157349198E+02  0.78066170263E+02  0.96155727204E+02  0.00000000000E+00 0.  1.
         21    1    1    2  505  506  0.19232293233E+02 -0.36467802670E+02  0.20393123106E+03  0.20805703241E+03  0.00000000000E+00 0.  1.
         21    1    1    2  506  502 -0.82287631443E+02  0.11856446746E+03  0.88274649287E+02  0.16917801553E+03  0.00000000000E+00 0. -1.
<scales pt_clust_3="44.15651" pt_clust_4="44.15651" pt_clust_5="41.22841" pt_clust_6="122.86641"></scales>
<clustering>
<clus scale="   41.228">  1  5  2 -1</clus>
<clus scale="   44.157">  3  4 -1 -1</clus>
<clus scale="  122.866">  1  6  2 -1</clus>
<clus scale="   41.228">  1  3  2 -1</clus>
</clustering>
</event>
<event>
 6    0  0.1344929E+003  0.9192170E+02  0.7546771E-02  0.1298264E+00
         21   -1    0    0  503  501  0.00000000000E+00  0.00000000000E+00  0.10363500730E+04  0.10363500730E+04  0.00000000000E+00 0. -1.
         21   -1    0    0  505  502 -0.00000000000E+00 -0.00000000000E+00 -0.17514403258E+03  0.17514403258E+03  0.00000000000E+00 0.  1.
         21    1    1    2  503  506 -0.25243666667E+02  0.22010710717E+02  0.60967174702E+03  0.61059098683E+03  0.00000000000E+00 0. -1.
         21    1    1    2  504  502  0.33069956156E+01  0.30809031770E+02  0.71083462137E+01  0.31790898768E+02  0.00000000000E+00 0.  1.
         21    1    1    2  505  501  0.36508547890E+02 -0.11580248916E+03 -0.13652912927E+03  0.18271095671E+03  0.00000000000E+00 0.  1.
         21    1    1    2  506  504 -0.14571876838E+02  0.62982746674E+02  0.38095507645E+03  0.38640126325E+03  0.00000000000E+00 0. -1.
<scales pt_clust_3="33.54220" pt_clust_4="30.98601" pt_clust_5="14000.00000" pt_clust_6="91.92170"></scales>
<clustering>
<clus scale="   30.986">  2  4  1 -1</clus>
<clus scale="   33.542">  1  3  2 -1</clus>
<clus scale="   91.922">  1  6  2 -1</clus>
<clus scale="   33.542">  1  3  2 -1</clus>
</clustering>
</event>
<event>
 6    0  0.1344929E+003  0.1077195E+03  0.7546771E-02  0.1264852E+00
         21   -1    0    0  504  501  0.00000000000E+00  0.00000000000E+00  0.11251833742E+04  0.11251833742E+04  0.00000000000E+00 0. -1.
         21   -1    0    0  505  502 -0.00000000000E+00 -0.00000000000E+00 -0.85698583988E+02  0.85698583988E+02  0.00000000000E+00 0. -1.
         21    1    1    2  503  502 -0.47574638443E+02 -0.31494087806E+02  0.85427108079E+01  0.57690568533E+02  0.00000000000E+00 0. -1.
         21    1    1    2  504  503 -0.32597014302E+02 -0.21171190156E+02  0.10296684121E+03  0.11005887071E+03  0.00000000000E+00 0.  1.
         21    1    1    2  505  506 -0.27386368344E+02  0.10950966097E+03  0.58677499134E+01  0.11303455006E+03  0.00000000000E+00 0. -1.
         21    1    1    2  506  501  0.10755802109E+03 -0.56844383010E+02  0.92210748830E+03  0.93009796890E+03  0.00000000000E+00 0. -1.
<scales pt_clust_3="58.31813" pt_clust_4="38.86881" pt_clust_5="14000.00000" pt_clust_6="107.71954"></scales>
<clustering>
<clus scale="   38.869">  1  4  2 -1</clus>
<clus scale="   58.318">  2  3  1 -1</clus>
<clus scale="  107.720">  1  6  2 -1</clus>
<clus scale="   38.869">  1  3  2 -1</clus>
</clustering>
</event>
<event>
 6    0  0.1344929E+003  0.7868888E+02  0.7546771E-02  0.1332814E+00
         21   -1    0    0  506  501  0.00000000000E+00  0.00000000000E+00  0.10782653695E+02  0.10782653695E+02  0.00000000000E+00 0.  1.
         21   -1    0    0  503  502 -0.00000000000E+00 -0.00000000000E+00 -0.21348928250E+04  0.21348928250E+04  0.00000000000E+00 0.  1.
         21    1    1    2  503  505  0.19038909972E+02 -0.23203400772E+02 -0.78180851533E+03  0.78238445316E+03  0.00000000000E+00 0.  1.
         21    1    1    2  504  501 -0.44563839440E+02  0.32775768418E+02 -0.17605522398E+03  0.18454167191E+03  0.00000000000E+00 0. -1.
         21    1    1    2  505  504 -0.10004103953E+02  0.76922862218E+02 -0.55346707924E+03  0.55887656654E+03  0.00000000000E+00 0.  1.
         21    1    1    2  506  502  0.35529033421E+02 -0.86495229864E+02 -0.61277935280E+03  0.61987278712E+03  0.00000000000E+00 0.  1.
<scales pt_clust_3="30.01463" pt_clust_4="51.45203" pt_clust_5="78.68888" pt_clust_6="14000.00000"></scales>
<clustering>
<clus scale="   30.015">  2  3  1 -1</clus>
<clus scale="   51.452">  1  4  2 -1</clus>
<clus scale="   78.689">  2  5  1 -1</clus>
<clus scale="   51.452">  1  3  2 -1</clus>
</clustering>
</event>
<event>
 6    0  0.1344929E+003  0.1198890E+03  0.7546771E-02  0.1243280E+00
         21   -1    0    0  503  501  0.00000000000E+00  0.00000000000E+00  0.71907550639E+02  0.71907550639E+02  0.00000000000E+00 0.  1.
         21   -1    0    0  506  502 -0.00000000000E+00 -0.00000000000E+00 -0.12796863380E+04  0.12796863380E+04  0.00000000000E+00 0.  1.
         21    1    1    2  503  504  0.34113325167E+02 -0.87471023807E+01 -0.36789489237E+01  0.35408550086E+02  0.00000000000E+00 0.  1.
         21    1    1    2  504  505  0.82153043273E+02  0.37379495270E+02 -0.11074430254E+03  0.14286584522E+03  0.00000000000E+00 0.  1.
         21    1    1    2  505  502  0.39501492093E+02  0.62887976417E+01 -0.97192845798E+03  0.97275117285E+03  0.00000000000E+00 0.  1.
         21    1    1    2  506  501 -0.15576786053E+03 -0.34921190531E+02 -0.12142707789E+03  0.20056832045E+03  0.00000000000E+00 0.  1.
<scales pt_clust_3="35.21691" pt_clust_4="14000.00000" pt_clust_5="40.23628" pt_clust_6="119.88905"></scales>
<clustering>
<clus scale="   35.217">  1  3  2 -1</clus>
<clus scale="   40.236">  2  5  1 -1</clus>
<clus scale="  119.889">  1  6  2 -1</clus>
<clus scale="   35.217">  1  3  2 -1</clus>
</clustering>
</event>
<event>
 6    0  0.1344929E+003  0.1269386E+03  0.7546771E-02  0.1232070E+00
         21   -1    0    0  506  501  0.00000000000E+00  0.00000000000E+00  0.19410619357E+03  0.19410619357E+03  0.00000000000E+00 0. -1.
         21   -1    0    0  504  502 -0.00000000000E+00 -0.00000000000E+00 -0.94711268852E+03  0.94711268852E+03  0.00000000000E+00 0.  1.
         21    1    1    2  503  501 -0.95326783100E+02  0.49466595697E+02  0.12177600295E+03  0.16236851469E+03  0.00000000000E+00 0. -1.
         21    1    1    2  504  503  0.14037555247E+03 -0.18918746195E+01 -0.76204295017E+03  0.77486665487E+03  0.00000000000E+00 0.  1.
         21    1    1    2  505  502 -0.84297325095E+02 -0.60512619991E+02 -0.12347288450E+03  0.16128660640E+03  0.00000000000E+00 0.  1.
         21    1    1    2  506  505  0.39248555722E+02  0.12937898913E+02  0.10733336765E+02  0.42697106139E+02  0.00000000000E+00 0.  1.
<scales pt_clust_3="86.60104" pt_clust_4="126.93862" pt_clust_5="14000.00000" pt_clust_6="41.32600"></scales>
<clustering>
<clus scale="   41.326">  1  6  2 -1</clus>
<clus scale="   86.601">  1  3  2 -1</clus>
<clus scale="  126.939">  2  4  1 -1</clus>
<clus scale="   41.326">  1  3  2 -1</clus>
</clustering>
</event>
<event>
 6    0  0.1344929E+003  0.9541253E+02  0.7546771E-02  0.1290250E+00
         21   -1    0    0  502  501  0.00000000000E+00  0.00000000000E+00  0.81926853434E+03  0.81926853434E+03  0.00000000000E+00 0.  1.
         21   -1    0    0  504  502 -0.00000000000E+00 -0.00000000000E+00 -0.67201473852E+02  0.67201473852E+02  0.00000000000E+00 0. -1.
         21    1    1    2  503  501 -0.81091722070E+02 -0.31933993934E+02  0.46306301390E+03  0.47119316867E+03  0.00000000000E+00 0.  1.
         21    1    1    2  504  506  0.32442787289E+02 -0.51318503072E+02 -0.38104219163E+02  0.71680225465E+02  0.00000000000E+00 0. -1.
         21    1    1    2  505  503  0.49627701054E+02  0.45358353174E+02  0.20585634365E+03  0.21655743611E+03  0.00000000000E+00 0.  1.
         21    1    1    2  506  505 -0.97876627229E+00  0.37894143832E+02  0.12125192210E+03  0.12703917795E+03  0.00000000000E+00 0.  1.
<scales pt_clust_3="85.68799" pt_clust_4="60.71345" pt_clust_5="31.51093" pt_clust_6="31.51093"></scales>
<clustering>
<clus scale="   31.511">  5  6 -1 -1</clus>
<clus scale="   60.713">  2  4  1 -1</clus>
<clus scale="   85.688">  1  3  2 -1</clus>
<clus scale="   85.688">  1  3  2 -1</clus>
</clustering>
</event>
<event>
 6    0  0.1344929E+003  0.7558017E+02  0.7546771E-02  0.1342084E+00
         21   -1    0    0  506  501  0.00000000000E+00  0.00000000000E+00  0.10935383259E+03  0.10935383259E+03  0.00000000000E+00 0.  1.
         21   -1    0    0  503  502 -0.00000000000E+00 -0.00000000000E+00 -0.52336148751E+03  0.52336148751E+03  0.00000000000E+00 0.  1.
         21    1    1    2  503  501  0.62011246650E+02  0.50391832221E+02  0.63827691814E+02  0.10226781365E+03  0.00000000000E+00 0.  1.
         21    1    1    2  504  502  0.53115185810E+02 -0.15251345182E+02 -0.21740567760E+03  0.22431909224E+03  0.00000000000E+00 0.  1.
         21    1    1    2  505  504 -0.36177993104E+02 -0.53705510707E+02 -0.18252479033E+03  0.19367092748E+03  0.00000000000E+00 0.  1.
         21    1    1    2  506  505 -0.78948439355E+02  0.18565023668E+02 -0.77904878804E+02  0.11245748673E+03  0.00000000000E+00 0.  1.
<scales pt_clust_3="75.58017" pt_clust_4="55.26144" pt_clust_5="63.26747" pt_clust_6="14000.00000"></scales>
<clustering>
<clus scale="   55.261">  2  4  1 -1</clus>
<clus scale="   63.267">  2  5  1 -1</clus>
<clus scale="   75.580">  1  3  2 -1</clus>
<clus scale="   75.580">  1  3  2 -1</clus>
</clustering>
</event>
<event>
 6    0  0.1344929E+003  0.1060631E+03  0.7546771E-02  0.1268039E+00
         21   -1    0    0  506  501  0.00000000000E+00  0.00000000000E+00  0.63643848839E+03  0.63643848839E+03  0.00000000000E+00 0. -1.
         21   -1    0    0  504  502 -0.00000000000E+00 -0.00000000000E+00 -0.52045268359E+03  0.52045268359E+03  0.00000000000E+00 0.  1.
         21    1    1    2  503  501  0.21260402410E+02  0.33058309676E+02  0.50505111808E+01  0.39627821192E+02  0.00000000000E+00 0. -1.
         21    1    1    2  504  503 -0.51373064878E+02  0.92237490874E+02 -0.48273112689E+03  0.49414197088E+03  0.00000000000E+00 0.  1.
         21    1    1    2  505  502  0.75230290367E+02 -0.11974052641E+03  0.40231135493E+03  0.42644087112E+03  0.00000000000E+00 0. -1.
         21    1    1    2  506  505 -0.45117627898E+02 -0.55552741392E+01  0.19135506558E+03  0.19668050880E+03  0.00000000000E+00 0.  1.
<scales pt_clust_3="39.30466" pt_clust_4="106.06315" pt_clust_5="14000.00000" pt_clust_6="38.71063"></scales>
<clustering>
<clus scale="   39.305">  1  3  2 -1</clus>
<clus scale="   38.711">  1  6  2 -1</clus>
<clus scale="  106.063">  2  4  1 -1</clus>
<clus scale="   39.305">  1  3  2 -1</clus>
</clustering>
</event>
<event>
 6    0  0.1344929E+003  0.8476048E+02  0.7546771E-02  0.1316060E+00
         21   -1    0    0  505  501  0.00000000000E+00  0.00000000000E+00  0.46386885437E+02  0.46386885437E+02  0.00000000000E+00 0. -1.
         21   -1    0    0  504  502 -0.00000000000E+00 -0.00000000000E+00 -0.72138568972E+03  0.72138568972E+03  0.00000000000E+00 0. -1.
         21    1    1    2  503  506 -0.76672132532E+02 -0.51323102254E+02 -0.12292300331E+03  0.15369691433E+03  0.00000000000E+00 0. -1.
         21    1    1    2  504  501  0.34416075904E+02  0.26461163886E+02 -0.27571030049E+03  0.27910720032E+03  0.00000000000E+00 0. -1.
         21    1    1    2  505  503  0.21753057832E+02  0.86652468780E+02 -0.56596365584E+02  0.10575913421E+03  0.00000000000E+00 0. -1.
         21    1    1    2  506  502  0.20502998796E+02 -0.61790530411E+02 -0.21976913491E+03  0.22920932630E+03  0.00000000000E+00 0. -1.
<scales pt_clust_3="14000.00000" pt_clust_4="43.41266" pt_clust_5="84.76048" pt_clust_6="61.48493"></scales>
<clustering>
<clus scale="   43.413">  2  4  1 -1</clus>
<clus scale="   61.485">  2  6  1 -1</clus>
<clus scale="   84.760">  1  5  2 -1</clus>
<clus scale="   84.760">  1  3  2 -1</clus>
</clustering>
</event>
<event>
 6    0  0.1344929E+003  0.1188161E+03  0.7546771E-02  0.1245063E+00
         21   -1    0    0  505  501  0.00000000000E+00  0.00000000000E+00  0.18530736985E+04  0.18530736985E+04  0.00000000000E+00 0.  1.
         21   -1    0    0  503  502 -0.00000000000E+00 -0.00000000000E+00 -0.16661504846E+03  0.16661504846E+03  0.00000000000E+00 0.  1.
         21    1    1    2  503  501  0.14340823330E+03 -0.12045403250E+03  0.17383519728E+03  0.25552645878E+03  0.00000000000E+00 0.  1.
         21    1    1    2  504  502 -0.61753150215E+02 -0.86619416203E+02 -0.79088381581E+02  0.13255695729E+03  0.00000000000E+00 0.  1.
         21    1    1    2  505  506 -0.46638800889E+02  0.10614451812E+03  0.14474928900E+04  0.14521286110E+04  0.00000000000E+00 0.  1.
         21    1    1    2  506  504 -0.35016282198E+02  0.10092893059E+03  0.14421894435E+03  0.17947671982E+03  0.00000000000E+00 0. -1.
<scales pt_clust_3="14000.00000" pt_clust_4="106.37845" pt_clust_5="118.81612" pt_clust_6="92.45632"></scales>
<clustering>
<clus scale="  106.378">  2  4  1 -1</clus>
<clus scale="   92.456">  2  6  1 -1</clus>
<clus scale="  118.816">  1  5  2 -1</clus>
<clus scale="  118.816">  1  3  2 -1</clus>
</clustering>
</event>
<event>
 6    0  0.1344929E+003  0.1052153E+03  0.7546771E-02  0.1269696E+00
         21   -1    0    0  505  501  0.00000000000E+00  0.00000000000E+00  0.20702382946E+03  0.20702382946E+03  0.00000000000E+00 0.  1.
         21   -1    0    0  506  502 -0.00000000000E+00 -0.00000000000E+00 -0.66158085575E+03  0.66158085575E+03  0.00000000000E+00 0. -1.
         21    1    1    2  503  504  0.12761631328E+03 -0.55770290649E+01  0.38479649384E+02  0.13340805855E+03  0.00000000000E+00 0.  1.
         21    1    1    2  504  501  0.72434336101E-01 -0.37876793762E+02  0.10040730517E+02  0.39185112246E+02  0.00000000000E+00 0. -1.
         21    1    1    2  505  502 -0.87631261338E+02 -0.27643801043E+02  0.71025311571E+02  0.11613790330E+03  0.00000000000E+00 0.  1.
         21    1    1    2  506  503 -0.40057486278E+02  0.71097623869E+02 -0.57410271776E+03  0.57987361112E+03  0.00000000000E+00 0. -1.
<scales pt_clust_3="14000.00000" pt_clust_4="37.87686" pt_clust_5="105.21528" pt_clust_6="81.08357"></scales>
<clustering>
<clus scale="   37.877">  1  4  2 -1</clus>
<clus scale="   81.084">  2  6  1 -1</clus>
<clus scale="  105.215">  1  5  2 -1</clus>
<clus scale="   37.877">  1  3  2 -1</clus>
</clustering>
</event>
<event>
 6    0  0.1344929E+003  0.9298160E+02  0.7546771E-02  0.1295788E+00
         21   -1    0    0  504  501  0.00000000000E+00  0.00000000000E+00  0.58529157612E+03  0.58529157612E+03  0.00000000000E+00 0.  1.
         21   -1    0    0  506  502 -0.00000000000E+00 -0.00000000000E+00 -0.85607852684E+03  0.85607852684E+03  0.00000000000E+00 0.  1.
         21    1    1    2  503  502 -0.34567050730E+02 -0.86372682714E+02 -0.78545332692E+03  0.79094377176E+03  0.00000000000E+00 0.  1.
         21    1    1    2  504  505 -0.37999108276E+01 -0.29883101649E+02  0.20359702499E+03  0.20581347786E+03  0.00000000000E+00 0.  1.
         21    1    1    2  505  503  0.78058978360E+02  0.75521176141E+01 -0.30367613366E+02  0.84097743873E+02  0.00000000000E+00 0. -1.
         21    1    1    2  506  501 -0.39692016802E+02  0.10870366675E+03  0.34143696459E+03  0.36051510946E+03  0.00000000000E+00 0.  1.
<scales pt_clust_3="14000.00000" pt_clust_4="30.12373" pt_clust_5="77.98092" pt_clust_6="92.98160"></scales>
<clustering>
<clus scale="   30.124">  1  4  2 -1</clus>
<clus scale="   77.981">  1  5  2 -1</clus>
<clus scale="   92.982">  1  6  2 -1</clus>
<clus scale="   30.124">  1  3  2 -1</clus>
</clustering>
</event>
<event>
 6    0  0.1344929E+003  0.1861798E+03  0.7546771E-02  0.1161953E+00
         21   -1    0    0  505  501  0.00000000000E+00  0.00000000000E+00  0.91038607259E+03  0.91038607259E+03  0.00000000000E+00 0.  1.
         21   -1    0    0  506  502 -0.00000000000E+00 -0.00000000000E+00 -0.21029520239E+03  0.21029520239E+03  0.00000000000E+00 0.  1.
         21    1    1    2  503  501  0.81773482932E+01 -0.11883699424E+03  0.60876258279E+03  0.62030716780E+03  0.00000000000E+00 0.  1.
         21    1    1    2  504  502 -0.75120425041E+02  0.19884657744E+03  0.77018734787E+02  0.22608610114E+03  0.00000000000E+00 0.  1.
         21    1    1    2  505  504  0.30798439370E+02 -0.76800228746E+02  0.12941026040E+03  0.15360284665E+03  0.00000000000E+00 0.  1.
         21    1    1    2  506  503  0.36144637377E+02 -0.32093544569E+01 -0.11510070778E+03  0.12068515939E+03  0.00000000000E+00 0.  1.
<scales pt_clust_3="186.17978" pt_clust_4="14000.00000" pt_clust_5="85.00219" pt_clust_6="36.28684"></scales>
<clustering>
<clus scale="   36.287">  2  6  1 -1</clus>
<clus scale="   85.002">  1  5  2 -1</clus>
<clus scale="  186.180">  1  3  2 -1</clus>
<clus scale="   85.002">  1  3  2 -1</clus>
</clustering>
</event>
<event>
 6    0  0.1344929E+003  0.1394978E+03  0.7546771E-02  0.1214006E+00
         21   -1    0    0  504  501  0.00000000000E+00  0.00000000000E+00  0.18060516332E+04  0.18060516332E+04  0.00000000000E+00 0. -1.
         21   -1    0    0  506  502 -0.00000000000E+00 -0.00000000000E+00 -0.13178020703E+03  0.13178020703E+03  0.00000000000E+00 0. -1.
         21    1    1    2  503  502 -0.38168275710E+02  0.13767273712E+03 -0.47792692837E+02  0.15064773913E+03  0.00000000000E+00 0. -1.
         21    1    1    2  504  503 -0.85891592972E+02 -0.49068374919E+02  0.40097276006E+03  0.41299421966E+03  0.00000000000E+00 0. -1.
         21    1    1    2  505  501  0.63081512317E+02  0.27185298633E+02  0.11790693853E+04  0.11810685556E+04  0.00000000000E+00 0. -1.
         21    1    1    2  506  505  0.60978356365E+02 -0.11578966083E+03  0.14202197367E+03  0.19312132587E+03  0.00000000000E+00 0. -1.
<scales pt_clust_3="14000.00000" pt_clust_4="54.76953" pt_clust_5="68.69001" pt_clust_6="139.49785"></scales>
<clustering>
<clus scale="   68.690">  1  5  2 -1</clus>
<clus scale="   54.770">  1  4  2 -1</clus>
<clus scale="  139.498">  1  6  2 -1</clus>
<clus scale="   68.690">  1  3  2 -1</clus>
</clustering>
</event>
<event>
 6    0  0.1344929E+003  0.8804569E+02  0.7546771E-02  0.1307655E+00
         21   -1    0    0  504  501  0.00000000000E+00  0.00000000000E+00  0.66213894450E+03  0.66213894450E+03  0.00000000000E+00 0. -1.
         21   -1    0    0  505  502 -0.00000000000E+00 -0.00000000000E+00 -0.56857582458E+03  0.56857582458E+03  0.00000000000E+00 0.  1.
         21    1    1    2  503  502 -0.20781695264E+02 -0.84784848252E+02  0.47929215055E+03  0.48717688259E+03  0.00000000000E+00 0. -1.
         21    1    1    2  504  503  0.30918283760E+02  0.80104894907E+00  0.12503485897E+03  0.12880333035E+03  0.00000000000E+00 0. -1.
         21    1    1    2  505  506 -0.78462779169E+02  0.41062859679E+02 -0.52532953517E+03  0.53274166974E+03  0.00000000000E+00 0.  1.
         21    1    1    2  506  501  0.68326190673E+02  0.42920939624E+02  0.14565645561E+02  0.81992886403E+02  0.00000000000E+00 0. -1.
<scales pt_clust_3="88.04569" pt_clust_4="30.92866" pt_clust_5="14000.00000" pt_clust_6="83.10103"></scales>
<clustering>
<clus scale="   30.929">  1  4  2 -1</clus>
<clus scale="   83.101">  1  6  2 -1</clus>
<clus scale="   88.046">  1  3  2 -1</clus>
<clus scale="   30.929">  1  3  2 -1</clus>
</clustering>
</event>
<event>
 6    0  0.1344929E+003  0.1040823E+03  0.7546771E-02  0.1271938E+00
         21   -1    0    0  505  501  0.00000000000E+00  0.00000000000E+00  0.17460268370E+03  0.17460268370E+03  0.00000000000E+00 0. -1.
         21   -1    0    0  506  502 -0.00000000000E+00 -0.00000000000E+00 -0.32061432107E+03  0.32061432107E+03  0.00000000000E+00 0. -1.
         21    1    1    2  503  501 -0.31542429037E+02 -0.21254167292E+02  0.95425052468E+02  0.10272587354E+03  0.00000000000E+00 0. -1.
         21    1    1    2  504  502 -0.75557108803E+02  0.23026174600E+02 -0.34694414014E+02  0.86271569889E+02  0.00000000000E+00 0.  1.
         21    1    1    2  505  504 -0.53697236538E+01  0.32589084836E+02  0.28237862602E+02  0.43454105294E+02  0.00000000000E+00 0. -1.
         21    1    1    2  506  503  0.11246926149E+03 -0.34361092145E+02 -0.23498013843E+03  0.26276545605E+03  0.00000000000E+00 0. -1.
<scales pt_clust_3="35.43388" pt_clust_4="104.08235" pt_clust_5="33.02851" pt_clust_6="14000.00000"></scales>
<clustering>
<clus scale="   33.029">  1  5  2 -1</clus>
<clus scale="   35.434">  1  3  2 -1</clus>
<clus scale="  104.082">  1  4  2 -1</clus>
<clus scale="   33.029">  1  3  2 -1</clus>
</clustering>
</event>
<event>
 6    0  0.1344929E+003  0.1892447E+03  0.7546771E-02  0.1159144E+00
         21   -1    0    0  505  501  0.00000000000E+00  0.00000000000E+00  0.13197901990E+03  0.13197901990E+03  0.00000000000E+00 0. -1.
         21   -1    0    0  506  502 -0.00000000000E+00 -0.00000000000E+00 -0.16531160416E+04  0.16531160416E+04  0.00000000000E+00 0. -1.
         21    1    1    2  503  501  0.55515775927E+02  0.49335287050E+02  0.80776411779E+02  0.10973058200E+03  0.00000000000E+00 0. -1.
         21    1    1    2  504  503 -0.96382386937E+02  0.16980704434E+03 -0.50197996163E+03  0.53861663425E+03  0.00000000000E+00 0.  1.
         21    1    1    2  505  502 -0.65148512468E+01 -0.19982601616E+03 -0.56421234093E+03  0.59858871162E+03  0.00000000000E+00 0. -1.
         21    1    1    2  506  504  0.47381462257E+02 -0.19316315228E+02 -0.53572113094E+03  0.53815913365E+03  0.00000000000E+00 0. -1.
<scales pt_clust_3="74.56491" pt_clust_4="189.24470" pt_clust_5="14000.00000" pt_clust_6="51.16760"></scales>
<clustering>
<clus scale="   51.168">  2  6  1 -1</clus>
<clus scale="   74.565">  1  3  2 -1</clus>
<clus scale="  189.245">  2  4  1 -1</clus>
<clus scale="   74.565">  1  3  2 -1</clus>
</clustering>
</event>
<event>
 6    0  0.1344929E+003  0.8028588E+02  0.7546771E-02  0.1328242E+00
         21   -1    0    0  506  501  0.00000000000E+00  0.00000000000E+00  0.86885437141E+03  0.86885437141E+03  0.00000000000E+00 0. -1.
         21   -1    0    0  504  502 -0.00000000000E+00 -0.00000000000E+00 -0.24876698399E+03  0.24876698399E+03  0.00000000000E+00 0.  1.
         21    1    1    2  503  501 -0.25158700222E+02 -0.17371247359E+02  0.51407849406E+03  0.51498681389E+03  0.00000000000E+00 0. -1.
         21    1    1    2  504  505  0.33747032078E+01 -0.78185479277E+02 -0.20028426099E+03  0.21503056293E+03  0.00000000000E+00 0.  1.
         21    1    1    2  505  503 -0.47155955843E+02 -0.17623804471E+02  0.22840359169E+03  0.23388562024E+03  0.00000000000E+00 0.  1.
         21    1    1    2  506  502  0.68939952857E+02  0.11318053111E+03  0.77889562662E+02  0.15371835835E+03  0.00000000000E+00 0.  1.
<scales pt_clust_3="30.57320" pt_clust_4="14000.00000" pt_clust_5="69.85270" pt_clust_6="80.28588"></scales>
<clustering>
<clus scale="   30.573">  1  3  2 -1</clus>
<clus scale="   69.853">  1  5  2 -1</clus>
<clus scale="   80.286">  1  6  2 -1</clus>
<clus scale="   30.573">  1  3  2 -1</clus>
</clustering>
</event>
<event>
 6    0  0.1344929E+003  0.7492965E+02  0.7546771E-02  0.1344089E+00
         21   -1    0    0  505  501  0.00000000000E+00  0.00000000000E+00  0.12605165730E+03  0.12605165730E+03  0.00000000000E+00 0. -1.
         21   -1    0    0  503  502 -0.00000000000E+00 -0.00000000000E+00 -0.35916401304E+03  0.35916401304E+03  0.00000000000E+00 0. -1.
         21    1    1    2  503  501 -0.27097961107E+01  0.41141011556E+02 -0.38323564011E+02  0.56290508838E+02  0.00000000000E+00 0.  1.
         21    1    1    2  504  502  0.61190964446E+02 -0.72491044850E+01 -0.46066844274E+02  0.76935283109E+02  0.00000000000E+00 0. -1.
         21    1    1    2  505  506  0.24791363301E+02 -0.71428685998E+02  0.77348335743E+02  0.10816392153E+03  0.00000000000E+00 0. -1.
         21    1    1    2  506  504 -0.83272531637E+02  0.37536778928E+02 -0.22607028320E+03  0.24382595687E+03  0.00000000000E+00 0. -1.
<scales pt_clust_3="41.23016" pt_clust_4="60.66272" pt_clust_5="74.92965" pt_clust_6="14000.00000"></scales>
<clustering>
<clus scale="   41.230">  2  3  1 -1</clus>
<clus scale="   60.663">  2  4  1 -1</clus>
<clus scale="   74.930">  1  5  2 -1</clus>
<clus scale="   74.930">  1  3  2 -1</clus>
</clustering>
</event>
<event>
 6    0  0.1344929E+003  0.2228041E+03  0.7546771E-02  0.1131810E+00
         21   -1    0    0  503  501  0.00000000000E+00  0.00000000000E+00  0.25247696004E+04  0.25247696004E+04  0.00000000000E+00 0.  1.
         21   -1    0    0  504  502 -0.00000000000E+00 -0.00000000000E+00 -0.98949355431E+02  0.98949355431E+02  0.00000000000E+00 0.  1.
         21    1    1    2  503  506  0.15806493019E+03  0.19158993814E+03  0.47168871407E+03  0.53308673735E+03  0.00000000000E+00 0.  1.
         21    1    1    2  504  505  0.16361438938E+01 -0.34373481477E+02 -0.62688720225E+01  0.34978735714E+02  0.00000000000E+00 0. -1.
         21    1    1    2  505  501 -0.12852632178E+03 -0.17599269132E+03  0.19941486593E+04  0.20060212657E+04  0.00000000000E+00 0.  1.
         21    1    1    2  506  502 -0.31174752308E+02  0.18776234657E+02 -0.33748256380E+02  0.49632217138E+02  0.00000000000E+00 0.  1.
<scales pt_clust_3="14000.00000" pt_clust_4="34.41240" pt_clust_5="222.80412" pt_clust_6="30.30769"></scales>
<clustering>
<clus scale="   34.412">  2  4  1 -1</clus>
<clus scale="   30.308">  2  6  1 -1</clus>
<clus scale="  222.804">  1  5  2 -1</clus>
<clus scale="  222.804">  1  3  2 -1</clus>
</clustering>
</event>
<event>
 6    0  0.1344929E+003  0.1742499E+03  0.7546771E-02  0.1173487E+00
         21   -1    0    0  504  501  0.00000000000E+00  0.00000000000E+00  0.19757534642E+04  0.19757534642E+04  0.00000000000E+00 0. -1.
         21   -1    0    0  505  502 -0.00000000000E+00 -0.00000000000E+00 -0.88366574901E+03  0.88366574901E+03  0.00000000000E+00 0.  1.
         21    1    1    2  503  502 -0.78902807821E+02 -0.25924992489E+03 -0.14427887181E+03  0.30700581344E+03  0.00000000000E+00 0.  1.
         21    1    1    2  504  503  0.86456143413E+02  0.81883720345E+02  0.18490904683E+04  0.18529207129E+04  0.00000000000E+00 0. -1.
         21    1    1    2  505  506 -0.89965987837E+02  0.89407813427E+02 -0.54838428498E+03  0.56286140397E+03  0.00000000000E+00 0.  1.
         21    1    1    2  506  501  0.82412652244E+02  0.87958391114E+02 -0.64339596296E+02  0.13663128291E+03  0.00000000000E+00 0.  1.
<scales pt_clust_3="14000.00000" pt_clust_4="119.07816" pt_clust_5="126.81615" pt_clust_6="174.24988"></scales>
<clustering>
<clus scale="  119.078">  1  4  2 -1</clus>
<clus scale="  126.816">  2  5  1 -1</clus>
<clus scale="  174.250">  2  6  1 -1</clus>
<clus scale="  119.078">  1  3  2 -1</clus>
</clustering>
</event>
<event>
 6    0  0.1344929E+003  0.1777610E+03  0.7546771E-02  0.1169988E+00
         21   -1    0    0  506  501  0.00000000000E+00  0.00000000000E+00  0.14481616684E+04  0.14481616684E+04  0.00000000000E+00 0.  1.
         21   -1    0    0  504  502 -0.00000000000E+00 -0.00000000000E+00 -0.11511533664E+03  0.11511533664E+03  0.00000000000E+00 0. -1.
         21    1    1    2  503  505 -0.98081786204E+02 -0.12557666235E+03  0.58776064483E+03  0.60897628075E+03  0.00000000000E+00 0.  1.
         21    1    1    2  504  503  0.12582565360E+03  0.96586995369E+02 -0.24931549238E+02  0.16057000008E+03  0.00000000000E+00 0. -1.
         21    1    1    2  505  501 -0.69107960314E+02  0.37418789604E+02  0.73374932588E+03  0.73794589858E+03  0.00000000000E+00 0.  1.
         21    1    1    2  506  502  0.41364092917E+02 -0.84291226280E+01  0.36467910329E+02  0.55784825669E+02  0.00000000000E+00 0. -1.
<scales pt_clust_3="14000.00000" pt_clust_4="177.76096" pt_clust_5="77.78480" pt_clust_6="42.21420"></scales>
<clustering>
<clus scale="   42.214">  2  6  1 -1</clus>
<clus scale="   77.785">  1  5  2 -1</clus>
<clus scale="  177.761">  2  4  1 -1</clus>
<clus scale="   77.785">  1  3  2 -1</clus>
</clustering>
</event>
<event>
 6    0  0.1344929E+003  0.2110692E+03  0.7546771E-02  0.1140722E+00
         21   -1    0    0  505  501  0.00000000000E+00  0.00000000000E+00  0.15360940175E+04  0.15360940175E+04  0.00000000000E+00 0.  1.
         21   -1    0    0  503  502 -0.00000000000E+00 -0.00000000000E+00 -0.37782313688E+03  0.37782313688E+03  0.00000000000E+00 0. -1.
         21    1    1    2  503  506 -0.33148601078E+02 -0.14285949931E+02 -0.23390295321E+03  0.23667173392E+03  0.00000000000E+00 0. -1.
         21    1    1    2  504  501 -0.19424814024E+03  0.86951879912E+02  0.11972058914E+04  0.12159748829E+04  0.00000000000E+00 0.  1.
         21    1    1    2  505  502  0.11948392278E+03 -0.19608508374E+03  0.35109110930E+02  0.23228951233E+03  0.00000000000E+00 0. -1.
         21    1    1    2  506  504  0.10791281854E+03  0.12341915376E+03  0.15985883155E+03  0.22898102529E+03  0.00000000000E+00 0.  1.
<scales pt_clust_3="36.09596" pt_clust_4="211.06920" pt_clust_5="14000.00000" pt_clust_6="156.09068"></scales>
<clustering>
<clus scale="   36.096">  2  3  1 -1</clus>
<clus scale="  156.091">  2  6  1 -1</clus>
<clus scale="  211.069">  1  4  2 -1</clus>
<clus scale="  211.069">  1  3  2 -1</clus>
</clustering>
</event>
<event>
 6    0  0.1344929E+003  0.7781433E+02  0.7546771E-02  0.1335371E+00
         21   -1    0    0  505  501  0.00000000000E+00  0.00000000000E+00  0.12037216903E+03  0.12037216903E+03  0.00000000000E+00 0.  1.
         21   -1    0    0  506  502 -0.00000000000E+00 -0.00000000000E+00 -0.27631181942E+03  0.27631181942E+03  0.00000000000E+00 0.  1.
         21    1    1    2  503  501 -0.20015299088E+02  0.76240932541E+02  0.21153424392E+02  0.81613475332E+02  0.00000000000E+00 0.  1.
         21    1    1    2  504  502  0.17824194210E+02  0.24960884278E+02 -0.15691770213E+03  0.15988718800E+03  0.00000000000E+00 0. -1.
         21    1    1    2  505  504  0.51734261766E+02 -0.61951234446E+02  0.16106627748E+02  0.82303175803E+02  0.00000000000E+00 0.  1.
         21    1    1    2  506  503 -0.49543156887E+02 -0.39250582373E+02 -0.36282000404E+02  0.72880149316E+02  0.00000000000E+00 0.  1.
<scales pt_clust_3="77.81433" pt_clust_4="30.67161" pt_clust_5="14000.00000" pt_clust_6="49.72038"></scales>
<clustering>
<clus scale="   30.672">  2  4  1 -1</clus>
<clus scale="   49.720">  2  6  1 -1</clus>
<clus scale="   77.814">  1  3  2 -1</clus>
<clus scale="   77.814">  1  3  2 -1</clus>
</clustering>
</event>
<event>
 6    0  0.1344929E+003  0.1283392E+03  0.7546771E-02  0.1229941E+00
         21   -1    0    0  506  501  0.00000000000E+00  0.00000000000E+00  0.16381865818E+03  0.16381865818E+03  0.00000000000E+00 0. -1.
         21   -1    0    0  503  502 -0.00000000000E+00 -0.00000000000E+00 -0.14117787000E+04  0.14117787000E+04  0.00000000000E+00 0.  1.
         21    1    1    2  503  504  0.39639702090E+02  0.72070843933E+02 -0.45598777516E+02  0.94046589720E+02  0.00000000000E+00 0. -1.
         21    1    1    2  504  501  0.34423818071E+02 -0.49719692552E+02  0.48386702986E+01  0.60666793292E+02  0.00000000000E+00 0. -1.
         21    1    1    2  505  502  0.19114326480E+02 -0.12722950674E+03 -0.12632688754E+04  0.12698035110E+04  0.00000000000E+00 0.  1.
         21    1    1    2  506  505 -0.93177846641E+02  0.10487835536E+03  0.56068940846E+02  0.15108046417E+03  0.00000000000E+00 0. -1.
<scales pt_clust_3="77.91194" pt_clust_4="60.47352" pt_clust_5="128.33924" pt_clust_6="14000.00000"></scales>
<clustering>
<clus scale="   60.474">  1  4  2 -1</clus>
<clus scale="   77.912">  1  3  2 -1</clus>
<clus scale="  128.339">  2  5  1 -1</clus>
<clus scale="   60.474">  1  3  2 -1</clus>
</clustering>
</event>
<event>
 6    0  0.1344929E+003  0.1152286E+03  0.7546771E-02  0.1251183E+00
         21   -1    0    0  505  501  0.00000000000E+00  0.00000000000E+00  0.12634634183E+04  0.12634634183E+04  0.00000000000E+00 0.  1.
         21   -1    0    0  503  502 -0.00000000000E+00 -0.00000000000E+00 -0.70642637217E+02  0.70642637217E+02  0.00000000000E+00 0.  1.
         21    1    1    2  503  501  0.50890481218E+02  0.27178725675E+02  0.51749229256E+03  0.52069837437E+03  0.00000000000E+00 0.  1.
         21    1    1    2  504  506  0.22009615507E+02  0.65355080993E+02  0.27840677686E+03  0.28682057665E+03  0.00000000000E+00 0.  1.
         21    1    1    2  505  504  0.36203631927E+02 -0.38524784763E+02  0.40130120598E+03  0.40476847694E+03  0.00000000000E+00 0.  1.
         21    1    1    2  506  502 -0.10910372865E+03 -0.54009021905E+02 -0.43794943082E+01  0.12181862757E+03  0.00000000000E+00 0.  1.
<scales pt_clust_3="115.22860" pt_clust_4="62.66344" pt_clust_5="52.86645" pt_clust_6="14000.00000"></scales>
<clustering>
<clus scale="   52.866">  1  5  2 -1</clus>
<clus scale="   62.663">  1  4  2 -1</clus>
<clus scale="  115.229">  1  3  2 -1</clus>
<clus scale="   52.866">  1  3  2 -1</clus>
</clustering>
</event>
<event>
 6    0  0.1344929E+003  0.6909636E+02  0.7546771E-02  0.1363193E+00
         21   -1    0    0  505  501  0.00000000000E+00  0.00000000000E+00  0.11320427583E+03  0.11320427583E+03  0.00000000000E+00 0. -1.
         21   -1    0    0  504  502 -0.00000000000E+00 -0.00000000000E+00 -0.10764419749E+04  0.10764419749E+04  0.00000000000E+00 0. -1.
         21    1    1    2  503  502 -0.39374674861E+01  0.30106009756E+02 -0.25762614833E+03  0.25940915130E+03  0.00000000000E+00 0. -1.
         21    1    1    2  504  506  0.35941662202E+02  0.31971297679E+02 -0.73925542127E+03  0.74081883402E+03  0.00000000000E+00 0. -1.
         21    1    1    2  505  503  0.64083974339E+02  0.82264010605E+01  0.27440926750E+02  0.70195682933E+02  0.00000000000E+00 0. -1.
         21    1    1    2  506  501 -0.96088169055E+02 -0.70303708495E+02  0.62029437774E+01  0.11922258247E+03  0.00000000000E+00 0. -1.
<scales pt_clust_3="30.36240" pt_clust_4="14000.00000" pt_clust_5="64.61281" pt_clust_6="69.09636"></scales>
<clustering>
<clus scale="   30.362">  2  3  1 -1</clus>
<clus scale="   64.613">  1  5  2 -1</clus>
<clus scale="   69.096">  1  6  2 -1</clus>
<clus scale="   64.613">  1  3  2 -1</clus>
</clustering>
</event>
<event>
 6    0  0.1344929E+003  0.1075114E+03  0.7546771E-02  0.1265249E+00
         21   -1    0    0  504  501  0.00000000000E+00  0.00000000000E+00  0.55565959969E+03  0.55565959969E+03  0.00000000000E+00 0. -1.
         21   -1    0    0  503  502 -0.00000000000E+00 -0.00000000000E+00 -0.81078165172E+03  0.81078165172E+03  0.00000000000E+00 0.  1.
         21    1    1    2  503  505  0.39836807669E+01 -0.30779263446E+02 -0.51516942071E+03  0.51610344390E+03  0.00000000000E+00 0.  1.
         21    1    1    2  504  506  0.14219030259E+02 -0.75716349638E+02 -0.12052344106E+03  0.14304211362E+03  0.00000000000E+00 0.  1.
         21    1    1    2  505  501  0.65635921878E+02  0.88101595063E+02  0.52658424445E+03  0.53792279353E+03  0.00000000000E+00 0. -1.
         21    1    1    2  506  502 -0.83838632904E+02  0.18394018021E+02 -0.14601343471E+03  0.16937290037E+03  0.00000000000E+00 0.  1.
<scales pt_clust_3="31.03599" pt_clust_4="107.51139" pt_clust_5="14000.00000" pt_clust_6="81.73343"></scales>
<clustering>
<clus scale="   31.036">  2  3  1 -1</clus>
<clus scale="   81.733">  2  6  1 -1</clus>
<clus scale="  107.511">  2  4  1 -1</clus>
<clus scale="  107.511">  1  3  2 -1</clus>
</clustering>
</event>
<event>
 6    0  0.1344929E+003  0.8500399E+02  0.7546771E-02  0.1315422E+00
         21   -1    0    0  506  501  0.00000000000E+00  0.00000000000E+00  0.37267141212E+03  0.37267141212E+03  0.00000000000E+00 0. -1.
         21   -1    0    0  504  502 -0.00000000000E+00 -0.00000000000E+00 -0.19784145222E+03  0.19784145222E+03  0.00000000000E+00 0.  1.
         21    1    1    2  503  501  0.39457490078E+02 -0.17985651658E+02  0.29809887651E+03  0.30123631482E+03  0.00000000000E+00 0. -1.
         21    1    1    2  504  503  0.38679590463E+02  0.97754146012E+01 -0.56880668843E+02  0.69477190048E+02  0.00000000000E+00 0.  1.
         21    1    1    2  505  502 -0.30047163534E+02  0.86515725063E+02 -0.55930781540E+02  0.10731288386E+03  0.00000000000E+00 0.  1.
         21    1    1    2  506  505 -0.48089917007E+02 -0.78305488006E+02 -0.10457466234E+02  0.92486475604E+02  0.00000000000E+00 0. -1.
<scales pt_clust_3="43.72705" pt_clust_4="39.89573" pt_clust_5="85.00399" pt_clust_6="14000.00000"></scales>
<clustering>
<clus scale="   39.896">  2  4  1 -1</clus>
<clus scale="   43.727">  1  3  2 -1</clus>
<clus scale="   85.004">  2  5  1 -1</clus>
<clus scale="   43.727">  1  3  2 -1</clus>
</clustering>
</event>
<event>
 6    0  0.1344929E+003  0.7673573E+02  0.7546771E-02  0.1338579E+00
         21   -1    0    0  505  501  0.00000000000E+00  0.00000000000E+00  0.14274384277E+03  0.14274384277E+03  0.00000000000E+00 0. -1.
         21   -1    0    0  503  502 -0.00000000000E+00 -0.00000000000E+00 -0.12548265970E+04  0.12548265970E+04  0.00000000000E+00 0. -1.
         21    1    1    2  503  501  0.25730611170E+01  0.10161555193E+03 -0.77096008196E+03  0.77763216820E+03  0.00000000000E+00 0. -1.
         21    1    1    2  504  502  0.62483936442E+01 -0.61014234557E+02 -0.44647674060E+03  0.45066978946E+03  0.00000000000E+00 0. -1.
         21    1    1    2  505  506  0.41654992181E+02  0.49274712530E+01  0.90414002009E+02  0.99670006049E+02  0.00000000000E+00 0. -1.
         21    1    1    2  506  504 -0.50476446942E+02 -0.45528788629E+02  0.14940066306E+02  0.69598476069E+02  0.00000000000E+00 0. -1.
<scales pt_clust_3="14000.00000" pt_clust_4="76.73573" pt_clust_5="41.94542" pt_clust_6="43.34016"></scales>
<clustering>
<clus scale="   41.945">  1  5  2 -1</clus>
<clus scale="   43.340">  1  6  2 -1</clus>
<clus scale="   76.736">  2  4  1 -1</clus>
<clus scale="   41.945">  1  3  2 -1</clus>
</clustering>
</event>
<event>
 6    0  0.1344929E+003  0.7331453E+02  0.7546771E-02  0.1349171E+00
         21   -1    0    0  506  501  0.00000000000E+00  0.00000000000E+00  0.44760698271E+03  0.44760698271E+03  0.00000000000E+00 0.  1.
         21   -1    0    0  504  502 -0.00000000000E+00 -0.00000000000E+00 -0.29222786502E+04  0.29222786502E+04  0.00000000000E+00 0. -1.
         21    1    1    2  503  505 -0.88208592851E+02  0.48879002598E+02 -0.14237652268E+03  0.17447345631E+03  0.00000000000E+00 0. -1.
         21    1    1    2  504  501 -0.18489424283E+02 -0.40982234763E+02 -0.26992886019E+04  0.26996630083E+04  0.00000000000E+00 0. -1.
         21    1    1    2  505  502  0.33728214332E+02 -0.60943248839E+01 -0.56461011476E+02  0.66049822518E+02  0.00000000000E+00 0. -1.
         21    1    1    2  506  503  0.72969802803E+02 -0.18024429516E+01  0.42345446847E+03  0.42969934581E+03  0.00000000000E+00 0.  1.
<scales pt_clust_3="14000.00000" pt_clust_4="48.59759" pt_clust_5="34.27438" pt_clust_6="73.31453"></scales>
<clustering>
<clus scale="   34.274">  2  5  1 -1</clus>
<clus scale="   48.598">  2  4  1 -1</clus>
<clus scale="   73.315">  1  6  2 -1</clus>
<clus scale="   73.315">  1  3  2 -1</clus>
</clustering>
</event>
<event>
 6    0  0.1344929E+003  0.1498906E+03  0.7546771E-02  0.1200607E+00
         21   -1    0    0  504  501  0.00000000000E+00  0.00000000000E+00  0.40126386250E+03  0.40126386250E+03  0.00000000000E+00 0.  1.
         21   -1    0    0  503  502 -0.00000000000E+00 -0.00000000000E+00 -0.46679462983E+03  0.46679462983E+03  0.00000000000E+00 0.  1.
         21    1    1    2  503  505 -0.83077585415E+02  0.55293977502E+02 -0.21390464685E+02  0.10206302526E+03  0.00000000000E+00 0.  1.
         21    1    1    2  504  506  0.15405541057E+03 -0.94151959730E+02  0.16855037816E+03  0.24699573078E+03  0.00000000000E+00 0.  1.
         21    1    1    2  505  501 -0.18796606558E+02 -0.40482309906E+02  0.14354513881E+03  0.15032410555E+03  0.00000000000E+00 0.  1.
         21    1    1    2  506  502 -0.52181218595E+02  0.79340292133E+02 -0.35623581961E+03  0.36867563074E+03  0.00000000000E+00 0.  1.
<scales pt_clust_3="149.89061" pt_clust_4="14000.00000" pt_clust_5="44.63328" pt_clust_6="94.39188"></scales>
<clustering>
<clus scale="   44.633">  1  5  2 -1</clus>
<clus scale="   94.392">  2  6  1 -1</clus>
<clus scale="  149.891">  2  3  1 -1</clus>
<clus scale="   44.633">  1  3  2 -1</clus>
</clustering>
</event>
<event>
 6    0  0.1344929E+003  0.1135555E+03  0.7546771E-02  0.1254124E+00
         21   -1    0    0  505  501  0.00000000000E+00  0.00000000000E+00  0.23798606024E+03  0.23798606024E+03  0.00000000000E+00 0.  1.
         21   -1    0    0  501  502 -0.00000000000E+00 -0.00000000000E+00 -0.25973668034E+03  0.25973668034E+03  0.00000000000E+00 0.  1.
         21    1    1    2  503  506  0.20381758291E+02 -0.31589176059E+02  0.32416948613E+02  0.49640212252E+02  0.00000000000E+00 0.  1.
         21    1    1    2  504  502  0.15992133938E+02  0.57613374599E+02 -0.20045271931E+03  0.20918016627E+03  0.00000000000E+00 0.  1.
         21    1    1    2  505  503 -0.29255043053E+02 -0.89605752344E+02  0.14734356965E+03  0.17491476757E+03  0.00000000000E+00 0.  1.
         21    1    1    2  506  504 -0.71188491755E+01  0.63581553803E+02 -0.10584190521E+01  0.63987594489E+02  0.00000000000E+00 0.  1.
<scales pt_clust_3="36.52043" pt_clust_4="59.79172" pt_clust_5="36.52043" pt_clust_6="97.72769"></scales>
<clustering>
<clus scale="   36.520">  3  5 -1 -1</clus>
<clus scale="   59.792">  2  4  1 -1</clus>
<clus scale="   97.728">  2  6  1 -1</clus>
<clus scale="  113.555">  1  3  2 -1</clus>
</clustering>
</event>
<event>
 6    0  0.1344929E+003  0.1183232E+03  0.7546771E-02  0.1245889E+00
         21   -1    0    0  504  501  0.00000000000E+00  0.00000000000E+00  0.77012960239E+02  0.77012960239E+02  0.00000000000E+00 0.  1.
         21   -1    0    0  506  502 -0.00000000000E+00 -0.00000000000E+00 -0.43884502150E+03  0.43884502150E+03  0.00000000000E+00 0. -1.
         21    1    1    2  503  502 -0.49245759190E+02 -0.11321894722E+02 -0.21623782376E+03  0.22206333899E+03  0.00000000000E+00 0. -1.
         21    1    1    2  504  503 -0.56491690957E+02 -0.23466988171E+02 -0.12757613080E+03  0.14148385007E+03  0.00000000000E+00 0. -1.
         21    1    1    2  505  501  0.10353613780E+02 -0.32299198974E+02  0.20604428959E+01  0.33980597369E+02  0.00000000000E+00 0.  1.
         21    1    1    2  506  505  0.95383836366E+02  0.67088081867E+02 -0.20078549600E+02  0.11833019531E+03  0.00000000000E+00 0.  1.
<scales pt_clust_3="35.81211" pt_clust_4="35.81211" pt_clust_5="33.91807" pt_clust_6="111.50121"></scales>
<clustering>
<clus scale="   33.918">  1  5  2 -1</clus>
<clus scale="   35.812">  3  4 -1 -1</clus>
<clus scale="  111.501">  1  6  2 -1</clus>
<clus scale="   33.918">  1  3  2 -1</clus>
</clustering>
</event>
<event>
 6    0  0.1344929E+003  0.8615481E+02  0.7546771E-02  0.1312440E+00
         21   -1    0    0  506  501  0.00000000000E+00  0.00000000000E+00  0.26695242486E+03  0.26695242486E+03  0.00000000000E+00 0. -1.
         21   -1    0    0  503  502 -0.00000000000E+00 -0.00000000000E+00 -0.24415590869E+03  0.24415590869E+03  0.00000000000E+00 0. -1.
         21    1    1    2  503  504  0.41226996374E+02  0.62180861253E+02 -0.15111850523E+03  0.16853168058E+03  0.00000000000E+00 0. -1.
         21    1    1    2  504  505 -0.18517346834E+02 -0.10110290323E+03  0.62823464566E+02  0.12046359150E+03  0.00000000000E+00 0. -1.
         21    1    1    2  505  501 -0.61825521095E+02  0.53434450488E+02  0.14626451331E+03  0.16754385519E+03  0.00000000000E+00 0. -1.
         21    1    1    2  506  502  0.39115871556E+02 -0.14512408507E+02 -0.35172956472E+02  0.54569206291E+02  0.00000000000E+00 0. -1.
<scales pt_clust_3="14000.00000" pt_clust_4="86.15481" pt_clust_5="79.63395" pt_clust_6="41.72123"></scales>
<clustering>
<clus scale="   41.721">  2  6  1 -1</clus>
<clus scale="   79.634">  1  5  2 -1</clus>
<clus scale="   86.155">  1  4  2 -1</clus>
<clus scale="   79.634">  1  3  2 -1</clus>
</clustering>
</event>
<event>
 6    0  0.1344929E+003  0.1005535E+03  0.7546771E-02  0.1279136E+00
         21   -1    0    0  503  501  0.00000000000E+00  0.00000000000E+00  0.15701929373E+03  0.15701929373E+03  0.00000000000E+00 0.  1.
         21   -1    0    0  504  502 -0.00000000000E+00 -0.00000000000E+00 -0.22232396596E+04  0.22232396596E+04  0.00000000000E+00 0.  1.
         21    1    1    2  503  505  0.21593233098E+02 -0.68274828340E+02 -0.15508738128E+02  0.73268280032E+02  0.00000000000E+00 0.  1.
         21    1    1    2  504  506  0.12079352725E+03  0.26101736870E+02 -0.13998212428E+04  0.14052657716E+04  0.00000000000E+00 0.  1.
         21    1    1    2  505  502 -0.46250797526E+02  0.42163609171E+02 -0.75640069757E+03  0.75898545539E+03  0.00000000000E+00 0.  1.
         21    1    1    2  506  501 -0.96135962822E+02  0.94822983642E-02  0.10551031270E+03  0.14273944628E+03  0.00000000000E+00 0.  1.
<scales pt_clust_3="69.97453" pt_clust_4="14000.00000" pt_clust_5="62.58519" pt_clust_6="100.55352"></scales>
<clustering>
<clus scale="   62.585">  2  5  1 -1</clus>
<clus scale="   69.975">  1  3  2 -1</clus>
<clus scale="  100.554">  1  6  2 -1</clus>
<clus scale="   69.975">  1  3  2 -1</clus>
</clustering>
</event>
<event>
 6    0  0.1344929E+003  0.8290080E+02  0.7546771E-02  0.1321015E+00
         21   -1    0    0  503  501  0.00000000000E+00  0.00000000000E+00  0.40533382895E+03  0.40533382895E+03  0.00000000000E+00 0.  1.
         21   -1    0    0  505  502 -0.00000000000E+00 -0.00000000000E+00 -0.32151860415E+03  0.32151860415E+03  0.00000000000E+00 0. -1.
         21    1    1    2  503  506  0.34264895338E+02  0.80744906666E+02  0.35491587016E+03  0.36559417104E+03  0.00000000000E+00 0.  1.
         21    1    1    2  504  502  0.52851509290E+02 -0.40607029992E+02 -0.15554620733E+03  0.16922421675E+03  0.00000000000E+00 0. -1.
         21    1    1    2  505  501 -0.41892906833E+02  0.27168393824E+01 -0.12235891012E+03  0.12936034843E+03  0.00000000000E+00 0. -1.
         21    1    1    2  506  504 -0.45223497795E+02 -0.42854716057E+02  0.68044720858E+01  0.62673696887E+02  0.00000000000E+00 0. -1.
<scales pt_clust_3="82.90080" pt_clust_4="42.40146" pt_clust_5="41.98091" pt_clust_6="14000.00000"></scales>
<clustering>
<clus scale="   41.981">  2  5  1 -1</clus>
<clus scale="   42.401">  2  4  1 -1</clus>
<clus scale="   82.901">  1  3  2 -1</clus>
<clus scale="   82.901">  1  3  2 -1</clus>
</clustering>
</event>
<event>
 6    0  0.1344929E+003  0.6339323E+02  0.7546771E-02  0.1384119E+00
         21   -1    0    0  503  501  0.00000000000E+00  0.00000000000E+00  0.80117941131E+02  0.80117941131E+02  0.00000000000E+00 0.  1.
         21   -1    0    0  506  502 -0.00000000000E+00 -0.00000000000E+00 -0.20422062380E+04  0.20422062380E+04  0.00000000000E+00 0.  1.
         21    1    1    2  503  505 -0.25674735488E+02  0.32394297547E+02  0.56033887020E+02  0.69630302674E+02  0.00000000000E+00 0.  1.
         21    1    1    2  504  502 -0.55382112178E+02 -0.10082481122E+02 -0.98660128721E+03  0.98820591715E+03  0.00000000000E+00 0.  1.
         21    1    1    2  505  504  0.11973840776E+03  0.85979829634E+01 -0.99682458156E+03  0.10040271202E+04  0.00000000000E+00 0.  1.
         21    1    1    2  506  501 -0.38681560093E+02 -0.30909799389E+02 -0.34696315158E+02  0.60460839186E+02  0.00000000000E+00 0.  1.
<scales pt_clust_3="41.33500" pt_clust_4="57.22055" pt_clust_5="63.39323" pt_clust_6="14000.00000"></scales>
<clustering>
<clus scale="   41.335">  1  3  2 -1</clus>
<clus scale="   57.221">  2  4  1 -1</clus>
<clus scale="   63.393">  2  5  1 -1</clus>
<clus scale="   41.335">  1  3  2 -1</clus>
</clustering>
</event>
<event>
 6    0  0.1344929E+003  0.1254835E+03  0.7546771E-02  0.1234316E+00
         21   -1    0    0  505  501  0.00000000000E+00  0.00000000000E+00  0.22454932590E+03  0.22454932590E+03  0.00000000000E+00 0. -1.
         21   -1    0    0  503  502 -0.00000000000E+00 -0.00000000000E+00 -0.60451544033E+03  0.60451544033E+03  0.00000000000E+00 0. -1.
         21    1    1    2  503  501  0.20066665658E+02  0.65998534760E+02 -0.90992238509E+02  0.11418434713E+03  0.00000000000E+00 0.  1.
         21    1    1    2  504  502  0.12607922823E+02  0.69607849223E+02 -0.45232425603E+03  0.45782250380E+03  0.00000000000E+00 0. -1.
         21    1    1    2  505  506 -0.16752733816E+02 -0.26347399205E+02  0.14098710886E+03  0.14440292379E+03  0.00000000000E+00 0. -1.
         21    1    1    2  506  504 -0.15921854666E+02 -0.10925898478E+03  0.22363271256E+02  0.11265499151E+03  0.00000000000E+00 0. -1.
<scales pt_clust_3="64.73103" pt_clust_4="125.48351" pt_clust_5="31.22242" pt_clust_6="14000.00000"></scales>
<clustering>
<clus scale="   31.222">  1  5  2 -1</clus>
<clus scale="   64.731">  2  3  1 -1</clus>
<clus scale="  125.484">  2  4  1 -1</clus>
<clus scale="   31.222">  1  3  2 -1</clus>
</clustering>
</event>
<event>
 6    0  0.1344929E+003  0.1988987E+03  0.7546771E-02  0.1150671E+00
         21   -1    0    0  505  501  0.00000000000E+00  0.00000000000E+00  0.50326817983E+03  0.50326817983E+03  0.00000000000E+00 0. -1.
         21   -1    0    0  504  502 -0.00000000000E+00 -0.00000000000E+00 -0.30144295485E+03  0.30144295485E+03  0.00000000000E+00 0. -1.
         21    1    1    2  503  506 -0.85487586409E+02 -0.12666284708E+03 -0.14864420580E+03  0.21318232614E+03  0.00000000000E+00 0. -1.
         21    1    1    2  504  501  0.15441257828E+03  0.12909309536E+03  0.32166203292E+03  0.37944002823E+03  0.00000000000E+00 0. -1.
         21    1    1    2  505  503 -0.36226845805E+02  0.17695855693E+02  0.11277159765E+03  0.11976210127E+03  0.00000000000E+00 0. -1.
         21    1    1    2  506  502 -0.32698146065E+02 -0.20126103966E+02 -0.83964199788E+02  0.92326679042E+02  0.00000000000E+00 0. -1.
<scales pt_clust_3="30.54891" pt_clust_4="189.33170" pt_clust_5="40.31783" pt_clust_6="30.54891"></scales>
<clustering>
<clus scale="   30.549">  3  6 -1 -1</clus>
<clus scale="   40.318">  1  5  2 -1</clus>
<clus scale="  189.332">  1  4  2 -1</clus>
<clus scale="   40.318">  1  3  2 -1</clus>
</clustering>
</event>
<event>
 6    0  0.1344929E+003  0.8685965E+02  0.7546771E-02  0.1310640E+00
         21   -1    0    0  506  501  0.00000000000E+00  0.00000000000E+00  0.57189506998E+03  0.57189506998E+03  0.00000000000E+00 0. -1.
         21   -1    0    0  503  502 -0.00000000000E+00 -0.00000000000E+00 -0.65779081777E+02  0.65779081777E+02  0.00000000000E+00 0.  1.
         21    1    1    2  503  504  0.66198687656E+02  0.92684468049E+02  0.32383808137E+03  0.34328381816E+03  0.00000000000E+00 0. -1.
         21    1    1    2  504  501 -0.30177248758E+02  0.18520926388E+02  0.14629710239E+03  0.15052087305E+03  0.00000000000E+00 0.  1.
         21    1    1    2  505  502 -0.39331941873E+02 -0.74158258487E+02 -0.10213391983E+02  0.84562180253E+02  0.00000000000E+00 0.  1.
         21    1    1    2  506  505  0.33105029758E+01 -0.37047135951E+02  0.46194196421E+02  0.59307280288E+02  0.00000000000E+00 0.  1.
<scales pt_clust_3="14000.00000" pt_clust_4="35.40750" pt_clust_5="86.85965" pt_clust_6="34.74301"></scales>
<clustering>
<clus scale="   35.408">  1  4  2 -1</clus>
<clus scale="   34.743">  1  6  2 -1</clus>
<clus scale="   86.860">  2  5  1 -1</clus>
<clus scale="   35.408">  1  3  2 -1</clus>
</clustering>
</event>
<event>
 6    0  0.1344929E+003  0.1384491E+03  0.7546771E-02  0.1215431E+00
         21   -1    0    0  503  501  0.00000000000E+00  0.00000000000E+00  0.13287539166E+04  0.13287539166E+04  0.00000000000E+00 0. -1.
         21   -1    0    0  505  502 -0.00000000000E+00 -0.00000000000E+00 -0.15585175439E+03  0.15585175439E+03  0.00000000000E+00 0. -1.
         21    1    1    2  503  504 -0.71524488541E+02 -0.10717923183E+03  0.39990030031E+03  0.42014686764E+03  0.00000000000E+00 0. -1.
         21    1    1    2  504  502  0.62968021239E+02 -0.10132918555E+03 -0.98061856763E+02  0.15443025382E+03  0.00000000000E+00 0. -1.
         21    1    1    2  505  506  0.31275512602E+02 -0.55345411255E+00  0.30984325159E+02  0.44028313680E+02  0.00000000000E+00 0. -1.
         21    1    1    2  506  501 -0.22719045300E+02  0.20906187149E+03  0.84007939345E+03  0.86600023581E+03  0.00000000000E+00 0. -1.
<scales pt_clust_3="127.71995" pt_clust_4="138.44914" pt_clust_5="31.28041" pt_clust_6="14000.00000"></scales>
<clustering>
<clus scale="   31.280">  2  5  1 -1</clus>
<clus scale="  127.720">  1  3  2 -1</clus>
<clus scale="  138.449">  2  4  1 -1</clus>
<clus scale="  127.720">  1  3  2 -1</clus>
</clustering>
</event>
<event>
 6    0  0.1344929E+003  0.9241826E+02  0.7546771E-02  0.1297099E+00
         21   -1    0    0  506  501  0.00000000000E+00  0.00000000000E+00  0.11948085310E+03  0.11948085310E+03  0.00000000000E+00 0. -1.
         21   -1    0    0  504  502 -0.00000000000E+00 -0.00000000000E+00 -0.25952849703E+03  0.25952849703E+03  0.00000000000E+00 0. -1.
         21    1    1    2  503  505 -0.22418878376E+02  0.96617243763E+02 -0.33790207535E+02  0.10478204057E+03  0.00000000000E+00 0. -1.
         21    1    1    2  504  503 -0.15487705722E+02  0.29023786005E+02 -0.96372499255E+02  0.10183274422E+03  0.00000000000E+00 0. -1.
         21    1    1    2  505  501 -0.10498475146E+02 -0.37697395464E+02  0.43653217911E+02  0.58625208222E+02  0.00000000000E+00 0. -1.
         21    1    1    2  506  502  0.48405059244E+02 -0.87943634305E+02 -0.53538155050E+02  0.11376935713E+03  0.00000000000E+00 0. -1.
<scales pt_clust_3="92.41826" pt_clust_4="32.89756" pt_clust_5="38.03593" pt_clust_6="14000.00000"></scales>
<clustering>
<clus scale="   32.898">  2  4  1 -1</clus>
<clus scale="   38.036">  1  5  2 -1</clus>
<clus scale="   92.418">  1  3  2 -1</clus>
<clus scale="   38.036">  1  3  2 -1</clus>
</clustering>
</event>
<event>
 6    0  0.1344929E+003  0.1061873E+03  0.7546771E-02  0.1267798E+00
         21   -1    0    0  506  501  0.00000000000E+00  0.00000000000E+00  0.67842482874E+03  0.67842482874E+03  0.00000000000E+00 0.  1.
         21   -1    0    0  504  502 -0.00000000000E+00 -0.00000000000E+00 -0.12291466899E+04  0.12291466899E+04  0.00000000000E+00 0. -1.
         21    1    1    2  503  501 -0.36029882426E+02  0.11668706097E+03  0.28352883483E+03  0.30871122883E+03  0.00000000000E+00 0.  1.
         21    1    1    2  504  503  0.75508306101E+01 -0.31031656298E+02 -0.21704820653E+03  0.21938528368E+03  0.00000000000E+00 0. -1.
         21    1    1    2  505  502 -0.40076287661E+02 -0.10805295828E+02 -0.99113899046E+03  0.99200774274E+03  0.00000000000E+00 0. -1.
         21    1    1    2  506  505  0.68555339477E+02 -0.74850108839E+02  0.37393650104E+03  0.38746726335E+03  0.00000000000E+00 0.  1.
<scales pt_clust_3="106.18730" pt_clust_4="31.93711" pt_clust_5="52.61462" pt_clust_6="14000.00000"></scales>
<clustering>
<clus scale="   31.937">  2  4  1 -1</clus>
<clus scale="   52.615">  2  5  1 -1</clus>
<clus scale="  106.187">  2  3  1 -1</clus>
<clus scale="  106.187">  1  3  2 -1</clus>
</clustering>
</event>
<event>
 6    0  0.1344929E+003  0.9459975E+02  0.7546771E-02  0.1292080E+00
         21   -1    0    0  505  501  0.00000000000E+00  0.00000000000E+00  0.48157177348E+02  0.48157177348E+02  0.00000000000E+00 0.  1.
         21   -1    0    0  503  502 -0.00000000000E+00 -0.00000000000E+00 -0.91279159718E+03  0.91279159718E+03  0.00000000000E+00 0. -1.
         21    1    1    2  503  504  0.87480456398E+02  0.66424254236E+02 -0.68229872618E+03  0.69108361545E+03  0.00000000000E+00 0. -1.
         21    1    1    2  504  501 -0.73419492538E+02 -0.36998334322E+01 -0.14295489170E+03  0.16074890890E+03  0.00000000000E+00 0.  1.
         21    1    1    2  505  506 -0.26334843614E+02 -0.17496122984E+02  0.16922648117E+02  0.35861041911E+02  0.00000000000E+00 0.  1.
         21    1    1    2  506  502  0.12273879753E+02 -0.45228297820E+02 -0.56303450071E+02  0.73255208264E+02  0.00000000000E+00 0.  1.
<scales pt_clust_3="14000.00000" pt_clust_4="94.59975" pt_clust_5="31.61706" pt_clust_6="52.08079"></scales>
<clustering>
<clus scale="   31.617">  1  5  2 -1</clus>
<clus scale="   52.081">  1  6  2 -1</clus>
<clus scale="   94.600">  1  4  2 -1</clus>
<clus scale="   31.617">  1  3  2 -1</clus>
</clustering>
</event>
<event>
 6    0  0.1344929E+003  0.8294061E+02  0.7546771E-02  0.1320908E+00
         21   -1    0    0  505  501  0.00000000000E+00  0.00000000000E+00  0.23996446798E+03  0.23996446798E+03  0.00000000000E+00 0.  1.
         21   -1    0    0  506  502 -0.00000000000E+00 -0.00000000000E+00 -0.13975781265E+03  0.13975781265E+03  0.00000000000E+00 0.  1.
         21    1    1    2  503  501  0.12157900943E+02 -0.39709465789E+02  0.15387232063E+02  0.44287957044E+02  0.00000000000E+00 0.  1.
         21    1    1    2  504  503 -0.40477037277E+02  0.59480103606E+02  0.20230757556E+02  0.74736582896E+02  0.00000000000E+00 0.  1.
         21    1    1    2  505  502  0.80425576798E+02 -0.27261407695E+02  0.14296458094E+03  0.16628388122E+03  0.00000000000E+00 0.  1.
         21    1    1    2  506  504 -0.52106440464E+02  0.74907698779E+01 -0.78375915224E+02  0.94413859461E+02  0.00000000000E+00 0.  1.
<scales pt_clust_3="41.52898" pt_clust_4="82.94061" pt_clust_5="14000.00000" pt_clust_6="51.98701"></scales>
<clustering>
<clus scale="   41.529">  1  3  2 -1</clus>
<clus scale="   51.987">  2  6  1 -1</clus>
<clus scale="   82.941">  2  4  1 -1</clus>
<clus scale="   41.529">  1  3  2 -1</clus>
</clustering>
</event>
<event>
 6    0  0.1344929E+003  0.1093306E+03  0.7546771E-02  0.1261815E+00
         21   -1    0    0  506  501  0.00000000000E+00  0.00000000000E+00  0.93416167265E+03  0.93416167265E+03  0.00000000000E+00 0. -1.
         21   -1    0    0  505  502 -0.00000000000E+00 -0.00000000000E+00 -0.14940722844E+03  0.14940722844E+03  0.00000000000E+00 0.  1.
         21    1    1    2  503  502 -0.13439530925E+03  0.10219025311E+03 -0.75867480691E+02  0.18509678983E+03  0.00000000000E+00 0.  1.
         21    1    1    2  504  501 -0.38758003981E+01 -0.40565797463E+02  0.15463707583E+03  0.15991632492E+03  0.00000000000E+00 0. -1.
         21    1    1    2  505  504  0.56730578547E+02 -0.23875902089E+02  0.58665166737E+02  0.85029518587E+02  0.00000000000E+00 0. -1.
         21    1    1    2  506  503  0.81540531104E+02 -0.37748553561E+02  0.64731968233E+03  0.65352626775E+03  0.00000000000E+00 0. -1.
<scales pt_clust_3="14000.00000" pt_clust_4="40.75053" pt_clust_5="62.77815" pt_clust_6="109.33058"></scales>
<clustering>
<clus scale="   40.751">  1  4  2 -1</clus>
<clus scale="   62.778">  2  5  1 -1</clus>
<clus scale="  109.331">  1  6  2 -1</clus>
<clus scale="   40.751">  1  3  2 -1</clus>
</clustering>
</event>
<event>
 6    0  0.1344929E+003  0.8015066E+02  0.7546771E-02  0.1328624E+00
         21   -1    0    0  506  501  0.00000000000E+00  0.00000000000E+00  0.42665286158E+03  0.42665286158E+03  0.00000000000E+00 0.  1.
         21   -1    0    0  504  502 -0.00000000000E+00 -0.00000000000E+00 -0.14931313696E+03  0.14931313696E+03  0.00000000000E+00 0.  1.
         21    1    1    2  503  501 -0.93815326767E+02 -0.23205898092E+02  0.12290801114E+02  0.97421214500E+02  0.00000000000E+00 0.  1.
         21    1    1    2  504  503  0.23007271520E+02  0.74697589585E+02 -0.83308617389E+02  0.11423392738E+03  0.00000000000E+00 0.  1.
         21    1    1    2  505  502  0.68708874090E+02 -0.16159717034E+02  0.21235958044E+03  0.22378256687E+03  0.00000000000E+00 0.  1.
         21    1    1    2  506  505  0.20991811568E+01 -0.35331974459E+02  0.13599796046E+03  0.14052828978E+03  0.00000000000E+00 0. -1.
<scales pt_clust_3="14000.00000" pt_clust_4="76.38606" pt_clust_5="80.15066" pt_clust_6="35.39428"></scales>
<clustering>
<clus scale="   35.394">  1  6  2 -1</clus>
<clus scale="   76.386">  2  4  1 -1</clus>
<clus scale="   80.151">  1  5  2 -1</clus>
<clus scale="   35.394">  1  3  2 -1</clus>
</clustering>
</event>
<event>
 6    0  0.1344929E+003  0.6867983E+02  0.7546771E-02  0.1364641E+00
         21   -1    0    0  506  501  0.00000000000E+00  0.00000000000E+00  0.64815590858E+03  0.64815590858E+03  0.00000000000E+00 0. -1.
         21   -1    0    0  505  502 -0.00000000000E+00 -0.00000000000E+00 -0.47373542728E+03  0.47373542728E+03  0.00000000000E+00 0. -1.
         21    1    1    2  503  502 -0.59799493024E+02  0.32653814948E+02 -0.34886285805E+03  0.35545399804E+03  0.00000000000E+00 0. -1.
         21    1    1    2  504  503  0.32250333405E+02 -0.82309213520E+02 -0.96047685459E+02  0.13053753681E+03  0.00000000000E+00 0. -1.
         21    1    1    2  505  501  0.28186209026E+02  0.92846054090E+02  0.35317624003E+03  0.36626262252E+03  0.00000000000E+00 0. -1.
         21    1    1    2  506  504 -0.63704940693E+00 -0.43190655518E+02  0.26615478479E+03  0.26963717848E+03  0.00000000000E+00 0. -1.
<scales pt_clust_3="14000.00000" pt_clust_4="68.67983" pt_clust_5="58.85278" pt_clust_6="43.19535"></scales>
<clustering>
<clus scale="   43.195">  1  6  2 -1</clus>
<clus scale="   58.853">  1  5  2 -1</clus>
<clus scale="   68.680">  1  4  2 -1</clus>
<clus scale="   43.195">  1  3  2 -1</clus>
</clustering>
</event>
<event>
 6    0  0.1344929E+003  0.1314487E+03  0.7546771E-02  0.1225322E+00
         21   -1    0    0  503  501  0.00000000000E+00  0.00000000000E+00  0.42829819388E+03  0.42829819388E+03  0.00000000000E+00 0.  1.
         21   -1    0    0  506  502 -0.00000000000E+00 -0.00000000000E+00 -0.33829975864E+03  0.33829975864E+03  0.00000000000E+00 0. -1.
         21    1    1    2  503  504  0.46185376796E+02  0.79051060690E+02  0.31171418476E+03  0.32488135096E+03  0.00000000000E+00 0.  1.
         21    1    1    2  504  505  0.24640386839E+02 -0.95753172694E+02 -0.22653918025E+03  0.24717568435E+03  0.00000000000E+00 0. -1.
         21    1    1    2  505  502 -0.69565099051E+01 -0.73993786927E+02 -0.27106335400E+02  0.79108956210E+02  0.00000000000E+00 0. -1.
         21    1    1    2  506  501 -0.63869253731E+02  0.90695898931E+02  0.31929766128E+02  0.11543196100E+03  0.00000000000E+00 0.  1.
<scales pt_clust_3="90.00117" pt_clust_4="14000.00000" pt_clust_5="74.32007" pt_clust_6="131.44867"></scales>
<clustering>
<clus scale="   74.320">  2  5  1 -1</clus>
<clus scale="   90.001">  1  3  2 -1</clus>
<clus scale="  131.449">  1  6  2 -1</clus>
<clus scale="   90.001">  1  3  2 -1</clus>
</clustering>
</event>
<event>
 6    0  0.1344929E+003  0.9884845E+02  0.7546771E-02  0.1282736E+00
         21   -1    0    0  504  501  0.00000000000E+00  0.00000000000E+00  0.12621487262E+03  0.12621487262E+03  0.00000000000E+00 0.  1.
         21   -1    0    0  506  502 -0.00000000000E+00 -0.00000000000E+00 -0.24569453151E+03  0.24569453151E+03  0.00000000000E+00 0.  1.
         21    1    1    2  503  501 -0.12075617019E+01  0.10353171359E+03  0.35792555065E+02  0.10955081434E+03  0.00000000000E+00 0.  1.
         21    1    1    2  504  502  0.59432694323E+02 -0.55150914042E+00 -0.35480483222E+01  0.59541061157E+02  0.00000000000E+00 0.  1.
         21    1    1    2  505  503 -0.23500050610E+02 -0.86208134126E+02 -0.73865368416E+02  0.11593182229E+03  0.00000000000E+00 0.  1.
         21    1    1    2  506  505 -0.34725082011E+02 -0.16772070322E+02 -0.77858797214E+02  0.86885706346E+02  0.00000000000E+00 0.  1.
<scales pt_clust_3="14000.00000" pt_clust_4="52.86189" pt_clust_5="98.84845" pt_clust_6="38.56337"></scales>
<clustering>
<clus scale="   38.563">  2  6  1 -1</clus>
<clus scale="   52.862">  2  4  1 -1</clus>
<clus scale="   98.848">  2  5  1 -1</clus>
<clus scale="   98.848">  1  3  2 -1</clus>
</clustering>
</event>
<event>
 6    0  0.1344929E+003  0.9994003E+02  0.7546771E-02  0.1280422E+00
         21   -1    0    0  506  501  0.00000000000E+00  0.00000000000E+00  0.97543940176E+03  0.97543940176E+03  0.00000000000E+00 0. -1.
         21   -1    0    0  503  502 -0.00000000000E+00 -0.00000000000E+00 -0.13223340414E+03  0.13223340414E+03  0.00000000000E+00 0.  1.
         21    1    1    2  503  505 -0.24735190535E+02  0.76209157999E+02 -0.56719065778E+02  0.98166785811E+02  0.00000000000E+00 0.  1.
         21    1    1    2  504  501 -0.77135863099E+02 -0.55233963571E+02  0.77547811696E+03  0.78125990681E+03  0.00000000000E+00 0. -1.
         21    1    1    2  505  504  0.12269731733E+03 -0.56257047882E+02  0.51285488684E+02  0.14439421202E+03  0.00000000000E+00 0.  1.
         21    1    1    2  506  502 -0.20826263697E+02  0.35281853453E+02  0.73161457753E+02  0.83851901250E+02  0.00000000000E+00 0.  1.
<scales pt_clust_3="81.04701" pt_clust_4="14000.00000" pt_clust_5="99.94003" pt_clust_6="40.97002"></scales>
<clustering>
<clus scale="   40.970">  1  6  2 -1</clus>
<clus scale="   81.047">  2  3  1 -1</clus>
<clus scale="   99.940">  2  5  1 -1</clus>
<clus scale="   40.970">  1  3  2 -1</clus>
</clustering>
</event>
<event>
 6    0  0.1344929E+003  0.1219491E+03  0.7546771E-02  0.1239916E+00
         21   -1    0    0  503  501  0.00000000000E+00  0.00000000000E+00  0.74821374946E+03  0.74821374946E+03  0.00000000000E+00 0.  1.
         21   -1    0    0  504  502 -0.00000000000E+00 -0.00000000000E+00 -0.14795211361E+04  0.14795211361E+04  0.00000000000E+00 0.  1.
         21    1    1    2  503  506  0.44293666669E+02 -0.53677216822E+02 -0.48602950615E+01  0.69762418112E+02  0.00000000000E+00 0. -1.
         21    1    1    2  504  505  0.39385117915E+02  0.89692477289E+02 -0.13588635258E+04  0.13623898157E+04  0.00000000000E+00 0.  1.
         21    1    1    2  505  501 -0.45440876528E+02 -0.70030667408E+02  0.70325415221E+03  0.70819176092E+03  0.00000000000E+00 0.  1.
         21    1    1    2  506  502 -0.38237908056E+02  0.34015406941E+02 -0.70837717974E+02  0.87390890885E+02  0.00000000000E+00 0.  1.
<scales pt_clust_3="68.24579" pt_clust_4="14000.00000" pt_clust_5="121.94908" pt_clust_6="51.17798"></scales>
<clustering>
<clus scale="   51.178">  2  6  1 -1</clus>
<clus scale="   68.246">  1  3  2 -1</clus>
<clus scale="  121.949">  1  5  2 -1</clus>
<clus scale="   68.246">  1  3  2 -1</clus>
</clustering>
</event>
<event>
 6    0  0.1344929E+003  0.7646736E+02  0.7546771E-02  0.1339386E+00
         21   -1    0    0  505  501  0.00000000000E+00  0.00000000000E+00  0.13281156921E+04  0.13281156921E+04  0.00000000000E+00 0.  1.
         21   -1    0    0  504  502 -0.00000000000E+00 -0.00000000000E+00 -0.30376202238E+03  0.30376202238E+03  0.00000000000E+00 0. -1.
         21    1    1    2  503  502  0.47783365880E+02 -0.40260608176E+02 -0.23874765071E+03  0.24678858836E+03  0.00000000000E+00 0. -1.
         21    1    1    2  504  501 -0.83322038306E+02  0.68901454926E+02  0.35058801686E+02  0.11366218427E+03  0.00000000000E+00 0.  1.
         21    1    1    2  505  506 -0.42596562090E+02  0.32822792872E+00  0.11678552058E+04  0.11686318311E+04  0.00000000000E+00 0.  1.
         21    1    1    2  506  503  0.78135234516E+02 -0.28969074679E+02  0.60187312888E+02  0.10279511075E+03  0.00000000000E+00 0. -1.
<scales pt_clust_3="61.66260" pt_clust_4="14000.00000" pt_clust_5="42.59783" pt_clust_6="76.46736"></scales>
<clustering>
<clus scale="   42.598">  1  5  2 -1</clus>
<clus scale="   61.663">  2  3  1 -1</clus>
<clus scale="   76.467">  1  6  2 -1</clus>
<clus scale="   42.598">  1  3  2 -1</clus>
</clustering>
</event>
<event>
 6    0  0.1344929E+003  0.9358959E+02  0.7546771E-02  0.1294385E+00
         21   -1    0    0  504  501  0.00000000000E+00  0.00000000000E+00  0.39729773348E+03  0.39729773348E+03  0.00000000000E+00 0. -1.
         21   -1    0    0  503  502 -0.00000000000E+00 -0.00000000000E+00 -0.94051594037E+03  0.94051594037E+03  0.00000000000E+00 0. -1.
         21    1    1    2  503  506  0.19509213869E+02  0.63815984816E+02 -0.72515852645E+03  0.72822247825E+03  0.00000000000E+00 0. -1.
         21    1    1    2  504  502 -0.95616027316E+01 -0.48036917966E+02  0.94768963136E+02  0.10667767390E+03  0.00000000000E+00 0.  1.
         21    1    1    2  505  501  0.53866105774E+02 -0.39208721351E+02  0.28554546838E+03  0.29321510141E+03  0.00000000000E+00 0. -1.
         21    1    1    2  506  505 -0.63813716911E+02  0.23429654500E+02 -0.19837411196E+03  0.20969842029E+03  0.00000000000E+00 0. -1.
<scales pt_clust_3="66.47974" pt_clust_4="48.97928" pt_clust_5="93.58959" pt_clust_6="14000.00000"></scales>
<clustering>
<clus scale="   48.979">  1  4  2 -1</clus>
<clus scale="   66.480">  2  3  1 -1</clus>
<clus scale="   93.590">  1  5  2 -1</clus>
<clus scale="   48.979">  1  3  2 -1</clus>
</clustering>
</event>
<event>
 6    0  0.1344929E+003  0.8913842E+02  0.7546771E-02  0.1304952E+00
         21   -1    0    0  506  501  0.00000000000E+00  0.00000000000E+00  0.11316528159E+04  0.11316528159E+04  0.00000000000E+00 0. -1.
         21   -1    0    0  505  502 -0.00000000000E+00 -0.00000000000E+00 -0.26640859178E+03  0.26640859178E+03  0.00000000000E+00 0. -1.
         21    1    1    2  503  501 -0.12422736963E+02 -0.35354124717E+02  0.72642403743E+03  0.72738993717E+03  0.00000000000E+00 0. -1.
         21    1    1    2  504  502  0.33697848812E+02 -0.27961242352E+02 -0.23570676904E+03  0.23973956090E+03  0.00000000000E+00 0. -1.
         21    1    1    2  505  503 -0.79733777517E+02  0.77007537811E+02  0.34811649688E+03  0.36533920068E+03  0.00000000000E+00 0. -1.
         21    1    1    2  506  504  0.58458665668E+02 -0.13692170742E+02  0.26410458866E+02  0.65592708961E+02  0.00000000000E+00 0.  1.
<scales pt_clust_3="37.47317" pt_clust_4="43.85304" pt_clust_5="89.13842" pt_clust_6="14000.00000"></scales>
<clustering>
<clus scale="   37.473">  1  3  2 -1</clus>
<clus scale="   43.853">  2  4  1 -1</clus>
<clus scale="   89.138">  1  5  2 -1</clus>
<clus scale="   37.473">  1  3  2 -1</clus>
</clustering>
</event>
<event>
 6    0  0.1344929E+003  0.8140144E+02  0.7546771E-02  0.1325121E+00
         21   -1    0    0  504  501  0.00000000000E+00  0.00000000000E+00  0.94144374166E+03  0.94144374166E+03  0.00000000000E+00 0.  1.
         21   -1    0    0  506  502 -0.00000000000E+00 -0.00000000000E+00 -0.20367140883E+03  0.20367140883E+03  0.00000000000E+00 0.  1.
         21    1    1    2  503  501  0.68480585414E+02  0.21298419688E+01  0.80528014264E+03  0.80818947960E+03  0.00000000000E+00 0.  1.
         21    1    1    2  504  502  0.18070930986E+02 -0.28328422990E+02  0.55421582651E+02  0.64812112443E+02  0.00000000000E+00 0.  1.
         21    1    1    2  505  503 -0.30772069380E+02  0.79222018419E+02  0.38481346023E+02  0.93294493128E+02  0.00000000000E+00 0.  1.
         21    1    1    2  506  505 -0.55779447019E+02 -0.53023437398E+02 -0.16141073849E+03  0.17881906532E+03  0.00000000000E+00 0.  1.
<scales pt_clust_3="14000.00000" pt_clust_4="33.60146" pt_clust_5="81.40144" pt_clust_6="77.02403"></scales>
<clustering>
<clus scale="   33.601">  1  4  2 -1</clus>
<clus scale="   77.024">  2  6  1 -1</clus>
<clus scale="   81.401">  2  5  1 -1</clus>
<clus scale="   33.601">  1  3  2 -1</clus>
</clustering>
</event>
<event>
 6    0  0.1344929E+003  0.1273364E+03  0.7546771E-02  0.1231462E+00
         21   -1    0    0  503  501  0.00000000000E+00  0.00000000000E+00  0.44506914186E+03  0.44506914186E+03  0.00000000000E+00 0. -1.
         21   -1    0    0  506  502 -0.00000000000E+00 -0.00000000000E+00 -0.29572389072E+03  0.29572389072E+03  0.00000000000E+00 0.  1.
         21    1    1    2  503  502 -0.82166144002E+02 -0.11121655631E+03 -0.34972813396E+01  0.13832074535E+03  0.00000000000E+00 0.  1.
         21    1    1    2  504  501  0.57156265849E+02 -0.19110106867E+02  0.16011945139E+02  0.62357175188E+02  0.00000000000E+00 0.  1.
         21    1    1    2  505  504 -0.89979612477E+02  0.74846693261E+02  0.30632039134E+03  0.32791849643E+03  0.00000000000E+00 0. -1.
         21    1    1    2  506  505  0.11498949063E+03  0.55479969918E+02 -0.16948980400E+03  0.21219661561E+03  0.00000000000E+00 0.  1.
<scales pt_clust_3="127.33645" pt_clust_4="60.26637" pt_clust_5="75.12724" pt_clust_6="14000.00000"></scales>
<clustering>
<clus scale="   60.266">  1  4  2 -1</clus>
<clus scale="   75.127">  1  5  2 -1</clus>
<clus scale="  127.336">  1  3  2 -1</clus>
<clus scale="   60.266">  1  3  2 -1</clus>
</clustering>
</event>
<event>
 6    0  0.1344929E+003  0.1342296E+03  0.7546771E-02  0.1221311E+00
         21   -1    0    0  504  501  0.00000000000E+00  0.00000000000E+00  0.25395134033E+04  0.25395134033E+04  0.00000000000E+00 0. -1.
         21   -1    0    0  506  502 -0.00000000000E+00 -0.00000000000E+00 -0.84583554480E+02  0.84583554480E+02  0.00000000000E+00 0.  1.
         21    1    1    2  503  502  0.21782250744E+02  0.83937811802E+02 -0.46874107420E+02  0.98575882669E+02  0.00000000000E+00 0.  1.
         21    1    1    2  504  503 -0.91291704651E+02 -0.12660555684E+03  0.20087250357E+04  0.20147802390E+04  0.00000000000E+00 0. -1.
         21    1    1    2  505  501  0.60599697371E+02  0.73941317445E+02  0.42017091108E+03  0.43090977740E+03  0.00000000000E+00 0. -1.
         21    1    1    2  506  505  0.89097565366E+01 -0.31273572404E+02  0.72908009434E+02  0.79831058693E+02  0.00000000000E+00 0. -1.
<scales pt_clust_3="63.33407" pt_clust_4="134.22959" pt_clust_5="14000.00000" pt_clust_6="32.51800"></scales>
<clustering>
<clus scale="   32.518">  2  6  1 -1</clus>
<clus scale="   63.334">  2  3  1 -1</clus>
<clus scale="  134.230">  1  4  2 -1</clus>
<clus scale="  134.230">  1  3  2 -1</clus>
</clustering>
</event>
<event>
 6    0  0.1344929E+003  0.2713141E+03  0.7546771E-02  0.1100530E+00
         21   -1    0    0  506  501  0.00000000000E+00  0.00000000000E+00  0.89075580631E+03  0.89075580631E+03  0.00000000000E+00 0. -1.
         21   -1    0    0  504  502 -0.00000000000E+00 -0.00000000000E+00 -0.28906545366E+03  0.28906545366E+03  0.00000000000E+00 0. -1.
         21    1    1    2  503  501 -0.14038206691E+03 -0.11587804041E+03  0.33080085212E+02  0.18501118074E+03  0.00000000000E+00 0. -1.
         21    1    1    2  504  503 -0.68438802615E+02 -0.67424200610E+02 -0.17218764297E+03  0.19717625852E+03  0.00000000000E+00 0. -1.
         21    1    1    2  505  502  0.56960151631E+02  0.61994839665E+02  0.11619779491E+03  0.14349127695E+03  0.00000000000E+00 0. -1.
         21    1    1    2  506  505  0.15186071790E+03  0.12130740136E+03  0.62460011551E+03  0.65414254376E+03  0.00000000000E+00 0. -1.
<scales pt_clust_3="251.75191" pt_clust_4="96.07233" pt_clust_5="66.57443" pt_clust_6="66.57443"></scales>
<clustering>
<clus scale="   66.574">  5  6 -1 -1</clus>
<clus scale="   96.072">  2  4  1 -1</clus>
<clus scale="  251.752">  2  3  1 -1</clus>
<clus scale="  271.314">  1  3  2 -1</clus>
</clustering>
</event>
<event>
 6    0  0.1344929E+003  0.1534745E+03  0.7546771E-02  0.1196267E+00
         21   -1    0    0  504  501  0.00000000000E+00  0.00000000000E+00  0.10144378655E+03  0.10144378655E+03  0.00000000000E+00 0.  1.
         21   -1    0    0  506  502 -0.00000000000E+00 -0.00000000000E+00 -0.68029644506E+03  0.68029644506E+03  0.00000000000E+00 0.  1.
         21    1    1    2  503  505  0.17038009757E+02 -0.46443126152E+02 -0.18499553495E+01  0.49504344032E+02  0.00000000000E+00 0. -1.
         21    1    1    2  504  503  0.90300057114E+02 -0.45020718321E+02  0.76948605425E+01  0.10119375609E+03  0.00000000000E+00 0.  1.
         21    1    1    2  505  502 -0.13534729512E+03  0.80672624050E+02 -0.25343847205E+03  0.29842590652E+03  0.00000000000E+00 0.  1.
         21    1    1    2  506  501  0.28009228249E+02  0.10791220423E+02 -0.33125909165E+03  0.33261622496E+03  0.00000000000E+00 0.  1.
<scales pt_clust_3="36.48548" pt_clust_4="36.48548" pt_clust_5="144.10330" pt_clust_6="30.01612"></scales>
<clustering>
<clus scale="   30.016">  2  6  1 -1</clus>
<clus scale="   36.485">  3  4 -1 -1</clus>
<clus scale="  144.103">  2  5  1 -1</clus>
<clus scale="  153.474">  1  3  2 -1</clus>
</clustering>
</event>
<event>
 6    0  0.1344929E+003  0.7451340E+02  0.7546771E-02  0.1345385E+00
         21   -1    0    0  504  501  0.00000000000E+00  0.00000000000E+00  0.41661628909E+03  0.41661628909E+03  0.00000000000E+00 0. -1.
         21   -1    0    0  505  502 -0.00000000000E+00 -0.00000000000E+00 -0.35540234055E+03  0.35540234055E+03  0.00000000000E+00 0. -1.
         21    1    1    2  503  501 -0.17021934247E+02  0.12690047476E+03 -0.20814816521E+03  0.24437498936E+03  0.00000000000E+00 0. -1.
         21    1    1    2  504  506 -0.27688239861E+02 -0.18445700141E+02  0.31933128634E+03  0.32105973418E+03  0.00000000000E+00 0. -1.
         21    1    1    2  505  503 -0.15517606616E+02 -0.63845049750E+02 -0.97691436840E+02  0.11773106355E+03  0.00000000000E+00 0.  1.
         21    1    1    2  506  502  0.60227780724E+02 -0.44609724872E+02  0.47722264249E+02  0.88852842550E+02  0.00000000000E+00 0. -1.
<scales pt_clust_3="14000.00000" pt_clust_4="33.26984" pt_clust_5="68.28614" pt_clust_6="74.51340"></scales>
<clustering>
<clus scale="   33.270">  1  4  2 -1</clus>
<clus scale="   68.286">  2  5  1 -1</clus>
<clus scale="   74.513">  1  6  2 -1</clus>
<clus scale="   33.270">  1  3  2 -1</clus>
</clustering>
</event>
<event>
 6    0  0.1344929E+003  0.1716001E+03  0.7546771E-02  0.1176189E+00
         21   -1    0    0  504  501  0.00000000000E+00  0.00000000000E+00  0.10139468749E+04  0.10139468749E+04  0.00000000000E+00 0.  1.
         21   -1    0    0  505  502 -0.00000000000E+00 -0.00000000000E+00 -0.10066256518E+03  0.10066256518E+03  0.00000000000E+00 0.  1.
         21    1    1    2  503  502 -0.31776205804E+02 -0.99021662269E+01 -0.43832200540E+02  0.55036732783E+02  0.00000000000E+00 0.  1.
         21    1    1    2  504  506  0.14266131985E+03  0.11741965873E+03  0.76772834887E+03  0.78964957171E+03  0.00000000000E+00 0.  1.
         21    1    1    2  505  501  0.14529594773E+02 -0.30560565402E+02  0.79104075197E+02  0.86037852104E+02  0.00000000000E+00 0. -1.
         21    1    1    2  506  503 -0.12541470882E+03 -0.76956927101E+02  0.11028408620E+03  0.18388528349E+03  0.00000000000E+00 0.  1.
<scales pt_clust_3="33.28333" pt_clust_4="171.60009" pt_clust_5="33.59463" pt_clust_6="14000.00000"></scales>
<clustering>
<clus scale="   33.283">  2  3  1 -1</clus>
<clus scale="   33.595">  1  5  2 -1</clus>
<clus scale="  171.600">  1  4  2 -1</clus>
<clus scale="   33.595">  1  3  2 -1</clus>
</clustering>
</event>
<event>
 6    0  0.1344929E+003  0.1471049E+03  0.7546771E-02  0.1204076E+00
         21   -1    0    0  503  501  0.00000000000E+00  0.00000000000E+00  0.34309990584E+03  0.34309990584E+03  0.00000000000E+00 0.  1.
         21   -1    0    0  505  502 -0.00000000000E+00 -0.00000000000E+00 -0.10758100896E+04  0.10758100896E+04  0.00000000000E+00 0.  1.
         21    1    1    2  503  502  0.79729787736E+02 -0.14294447960E+03 -0.14067511880E+01  0.16368244331E+03  0.00000000000E+00 0. -1.
         21    1    1    2  504  501 -0.38451892961E+02 -0.16676208438E+02  0.24395827441E+03  0.24753238910E+03  0.00000000000E+00 0.  1.
         21    1    1    2  505  506  0.30552942459E+02  0.75310517906E+02 -0.77155724055E+03  0.77582583860E+03  0.00000000000E+00 0.  1.
         21    1    1    2  506  504 -0.71830837234E+02  0.84310170128E+02 -0.20370446642E+03  0.23186932441E+03  0.00000000000E+00 0.  1.
<scales pt_clust_3="14000.00000" pt_clust_4="41.91234" pt_clust_5="80.61900" pt_clust_6="147.10486"></scales>
<clustering>
<clus scale="   41.912">  1  4  2 -1</clus>
<clus scale="   80.619">  2  5  1 -1</clus>
<clus scale="  147.105">  2  6  1 -1</clus>
<clus scale="   41.912">  1  3  2 -1</clus>
</clustering>
</event>
<event>
 6    0  0.1344929E+003  0.1861935E+03  0.7546771E-02  0.1161940E+00
         21   -1    0    0  503  501  0.00000000000E+00  0.00000000000E+00  0.19332464963E+03  0.19332464963E+03  0.00000000000E+00 0. -1.
         21   -1    0    0  504  502 -0.00000000000E+00 -0.00000000000E+00 -0.50608365715E+03  0.50608365715E+03  0.00000000000E+00 0.  1.
         21    1    1    2  503  505 -0.79023419676E+02  0.15837450027E+03  0.67820445573E+02  0.18954365204E+03  0.00000000000E+00 0. -1.
         21    1    1    2  504  506  0.29774073037E+02 -0.30835562304E+02 -0.28988559673E+02  0.51746148840E+02  0.00000000000E+00 0.  1.
         21    1    1    2  505  502  0.98419707925E+02 -0.12057149167E+03 -0.37290085470E+03  0.40407792683E+03  0.00000000000E+00 0.  1.
         21    1    1    2  506  501 -0.49170361287E+02 -0.69674462914E+01  0.21309961271E+02  0.54040579070E+02  0.00000000000E+00 0. -1.
<scales pt_clust_3="14000.00000" pt_clust_4="42.86406" pt_clust_5="186.19350" pt_clust_6="48.79290"></scales>
<clustering>
<clus scale="   42.864">  2  4  1 -1</clus>
<clus scale="   48.793">  1  6  2 -1</clus>
<clus scale="  186.194">  2  5  1 -1</clus>
<clus scale="   48.793">  1  3  2 -1</clus>
</clustering>
</event>
<event>
 6    0  0.1344929E+003  0.1815864E+03  0.7546771E-02  0.1166276E+00
         21   -1    0    0  504  501  0.00000000000E+00  0.00000000000E+00  0.12079591029E+03  0.12079591029E+03  0.00000000000E+00 0.  1.
         21   -1    0    0  505  502 -0.00000000000E+00 -0.00000000000E+00 -0.41155329031E+03  0.41155329031E+03  0.00000000000E+00 0.  1.
         21    1    1    2  503  502  0.36462886291E+02 -0.31694951754E+01 -0.57576366461E+02  0.68224817707E+02  0.00000000000E+00 0.  1.
         21    1    1    2  504  503  0.65852961483E+02 -0.11747726189E+03 -0.12760753193E+03  0.18552951733E+03  0.00000000000E+00 0.  1.
         21    1    1    2  505  506 -0.13356561135E+03  0.11919611907E+03 -0.14349829353E+03  0.22943244666E+03  0.00000000000E+00 0.  1.
         21    1    1    2  506  501  0.31249763575E+02  0.14506380000E+01  0.37924811901E+02  0.49162418897E+02  0.00000000000E+00 0.  1.
<scales pt_clust_3="37.42691" pt_clust_4="37.42691" pt_clust_5="167.03175" pt_clust_6="31.28342"></scales>
<clustering>
<clus scale="   31.283">  1  6  2 -1</clus>
<clus scale="   37.427">  3  4 -1 -1</clus>
<clus scale="  167.032">  1  5  2 -1</clus>
<clus scale="   31.283">  1  3  2 -1</clus>
</clustering>
</event>
<event>
 6    0  0.1344929E+003  0.2081805E+03  0.7546771E-02  0.1143015E+00
         21   -1    0    0  506  501  0.00000000000E+00  0.00000000000E+00  0.70162266741E+02  0.70162266741E+02  0.00000000000E+00 0. -1.
         21   -1    0    0  503  502 -0.00000000000E+00 -0.00000000000E+00 -0.14714120269E+04  0.14714120269E+04  0.00000000000E+00 0.  1.
         21    1    1    2  503  505 -0.16727066453E+03  0.10605100066E+03 -0.71308783757E+03  0.74008145095E+03  0.00000000000E+00 0.  1.
         21    1    1    2  504  502 -0.35032559056E+02 -0.17042689136E+02 -0.45677863540E+03  0.45843696972E+03  0.00000000000E+00 0.  1.
         21    1    1    2  505  501  0.49870021484E+01 -0.47079743436E+02 -0.71042695515E+02  0.85372343405E+02  0.00000000000E+00 0. -1.
         21    1    1    2  506  504  0.19731622143E+03 -0.41928568092E+02 -0.16034059163E+03  0.25768352953E+03  0.00000000000E+00 0. -1.
<scales pt_clust_3="208.18045" pt_clust_4="38.95810" pt_clust_5="48.44835" pt_clust_6="14000.00000"></scales>
<clustering>
<clus scale="   38.958">  2  4  1 -1</clus>
<clus scale="   48.448">  1  5  2 -1</clus>
<clus scale="  208.180">  2  3  1 -1</clus>
<clus scale="   48.448">  1  3  2 -1</clus>
</clustering>
</event>
<event>
 6    0  0.1344929E+003  0.9729772E+02  0.7546771E-02  0.1286083E+00
         21   -1    0    0  504  501  0.00000000000E+00  0.00000000000E+00  0.42030999584E+03  0.42030999584E+03  0.00000000000E+00 0.  1.
         21   -1    0    0  506  502 -0.00000000000E+00 -0.00000000000E+00 -0.10476787249E+03  0.10476787249E+03  0.00000000000E+00 0.  1.
         21    1    1    2  503  501  0.13110748038E+01  0.90536309997E+02  0.22954957783E+03  0.24676213451E+03  0.00000000000E+00 0.  1.
         21    1    1    2  504  505 -0.39578084216E+02 -0.11717129100E+03  0.10713348673E+03  0.16362493747E+03  0.00000000000E+00 0.  1.
         21    1    1    2  505  502  0.31693279333E+02 -0.33665733570E+02 -0.27342774987E+02  0.53716598140E+02  0.00000000000E+00 0.  1.
         21    1    1    2  506  503  0.65737300788E+01  0.60300714572E+02  0.62018337792E+01  0.60974198209E+02  0.00000000000E+00 0.  1.
<scales pt_clust_3="14000.00000" pt_clust_4="97.29772" pt_clust_5="46.23684" pt_clust_6="50.14640"></scales>
<clustering>
<clus scale="   46.237">  2  5  1 -1</clus>
<clus scale="   50.146">  2  6  1 -1</clus>
<clus scale="   97.298">  2  4  1 -1</clus>
<clus scale="   97.298">  1  3  2 -1</clus>
</clustering>
</event>
<event>
 6    0  0.1344929E+003  0.1191848E+03  0.7546771E-02  0.1244448E+00
         21   -1    0    0  503  501  0.00000000000E+00  0.00000000000E+00  0.13653938338E+04  0.13653938338E+04  0.00000000000E+00 0.  1.
         21   -1    0    0  505  502 -0.00000000000E+00 -0.00000000000E+00 -0.47477710826E+03  0.47477710826E+03  0.00000000000E+00 0. -1.
         21    1    1    2  503  504  0.48424928913E+02 -0.18318275872E+02  0.11054011791E+04  0.11066129855E+04  0.00000000000E+00 0.  1.
         21    1    1    2  504  502  0.94307392426E+01  0.71688407950E+02  0.31363776907E+02  0.78815310561E+02  0.00000000000E+00 0.  1.
         21    1    1    2  505  506 -0.11917853446E+03  0.21485655345E+02 -0.43013680012E+03  0.44685884044E+03  0.00000000000E+00 0. -1.
         21    1    1    2  506  501  0.61322866300E+02 -0.74855787423E+02  0.18398856965E+03  0.20788380553E+03  0.00000000000E+00 0. -1.
<scales pt_clust_3="51.77386" pt_clust_4="70.60632" pt_clust_5="119.18479" pt_clust_6="14000.00000"></scales>
<clustering>
<clus scale="   51.774">  1  3  2 -1</clus>
<clus scale="   70.606">  1  4  2 -1</clus>
<clus scale="  119.185">  2  5  1 -1</clus>
<clus scale="   51.774">  1  3  2 -1</clus>
</clustering>
</event>
<event>
 6    0  0.1344929E+003  0.1222540E+03  0.7546771E-02  0.1239424E+00
         21   -1    0    0  504  501  0.00000000000E+00  0.00000000000E+00  0.48242986811E+03  0.48242986811E+03  0.00000000000E+00 0.  1.
         21   -1    0    0  503  502 -0.00000000000E+00 -0.00000000000E+00 -0.19852963203E+03  0.19852963203E+03  0.00000000000E+00 0.  1.
         21    1    1    2  503  506 -0.11105992910E+03 -0.27181928833E+02 -0.24485844569E+02  0.11693041388E+03  0.00000000000E+00 0.  1.
         21    1    1    2  504  505 -0.92253612423E+01 -0.29562247167E+02  0.91810086019E+02  0.96892340474E+02  0.00000000000E+00 0. -1.
         21    1    1    2  505  502  0.13111359156E+03 -0.20456161855E+02 -0.83710029434E+02  0.15689677332E+03  0.00000000000E+00 0.  1.
         21    1    1    2  506  501 -0.10828301220E+02  0.77200337855E+02  0.30028602406E+03  0.31023997247E+03  0.00000000000E+00 0.  1.
<scales pt_clust_3="122.25401" pt_clust_4="30.96827" pt_clust_5="14000.00000" pt_clust_6="56.89734"></scales>
<clustering>
<clus scale="   30.968">  1  4  2 -1</clus>
<clus scale="   56.897">  1  6  2 -1</clus>
<clus scale="  122.254">  1  3  2 -1</clus>
<clus scale="   30.968">  1  3  2 -1</clus>
</clustering>
</event>
<event>
 6    0  0.1344929E+003  0.7683086E+02  0.7546771E-02  0.1338293E+00
         21   -1    0    0  506  501  0.00000000000E+00  0.00000000000E+00  0.64433633675E+02  0.64433633675E+02  0.00000000000E+00 0. -1.
         21   -1    0    0  505  502 -0.00000000000E+00 -0.00000000000E+00 -0.84585905440E+03  0.84585905440E+03  0.00000000000E+00 0. -1.
         21    1    1    2  503  504 -0.32389115478E+01 -0.88968047889E+02 -0.89646870795E+02  0.12634225555E+03  0.00000000000E+00 0. -1.
         21    1    1    2  504  502 -0.22689098504E+02  0.67671696887E+02 -0.60094993831E+03  0.60517359667E+03  0.00000000000E+00 0. -1.
         21    1    1    2  505  501 -0.31988771634E+02 -0.78051942700E+01 -0.10701761479E+03  0.11196862258E+03  0.00000000000E+00 0. -1.
         21    1    1    2  506  503  0.57916781686E+02  0.29101545272E+02  0.16189003166E+02  0.66808213279E+02  0.00000000000E+00 0. -1.
<scales pt_clust_3="14000.00000" pt_clust_4="76.83086" pt_clust_5="32.92723" pt_clust_6="63.71470"></scales>
<clustering>
<clus scale="   32.927">  2  5  1 -1</clus>
<clus scale="   63.715">  1  6  2 -1</clus>
<clus scale="   76.831">  2  4  1 -1</clus>
<clus scale="   63.715">  1  3  2 -1</clus>
</clustering>
</event>
<event>
 6    0  0.1344929E+003  0.6943702E+02  0.7546771E-02  0.1362018E+00
         21   -1    0    0  503  501  0.00000000000E+00  0.00000000000E+00  0.47119646327E+02  0.47119646327E+02  0.00000000000E+00 0. -1.
         21   -1    0    0  505  502 -0.00000000000E+00 -0.00000000000E+00 -0.62810101919E+03  0.62810101919E+03  0.00000000000E+00 0.  1.
         21    1    1    2  503  506 -0.51167448904E+02 -0.95990868333E+01  0.53423288835E+01  0.52333457494E+02  0.00000000000E+00 0. -1.
         21    1    1    2  504  501  0.78822234803E+02 -0.21691900744E+02 -0.22108638717E+03  0.23571736009E+03  0.00000000000E+00 0.  1.
         21    1    1    2  505  504 -0.12750168185E+01 -0.46295254217E+02 -0.14240765455E+03  0.14974917798E+03  0.00000000000E+00 0.  1.
         21    1    1    2  506  502 -0.26379769081E+02  0.77586241794E+02 -0.22282966002E+03  0.23742066995E+03  0.00000000000E+00 0. -1.
<scales pt_clust_3="52.58354" pt_clust_4="69.43702" pt_clust_5="46.31281" pt_clust_6="14000.00000"></scales>
<clustering>
<clus scale="   46.313">  2  5  1 -1</clus>
<clus scale="   52.584">  1  3  2 -1</clus>
<clus scale="   69.437">  1  4  2 -1</clus>
<clus scale="   52.584">  1  3  2 -1</clus>
</clustering>
</event>
<event>
 6    0  0.1344929E+003  0.1764716E+03  0.7546771E-02  0.1171262E+00
         21   -1    0    0  504  501  0.00000000000E+00  0.00000000000E+00  0.82190327851E+02  0.82190327851E+02  0.00000000000E+00 0. -1.
         21   -1    0    0  503  502 -0.00000000000E+00 -0.00000000000E+00 -0.19585682775E+04  0.19585682775E+04  0.00000000000E+00 0.  1.
         21    1    1    2  503  505  0.14777216535E+03  0.16895089033E+03 -0.16511348071E+04  0.16663214478E+04  0.00000000000E+00 0.  1.
         21    1    1    2  504  506 -0.11942278278E+03 -0.11001264590E+03 -0.35595162678E+02  0.16622755160E+03  0.00000000000E+00 0. -1.
         21    1    1    2  505  501  0.15119389840E+02 -0.29050950025E+02 -0.62708920666E+02  0.70745758724E+02  0.00000000000E+00 0.  1.
         21    1    1    2  506  502 -0.43468772409E+02 -0.29887294409E+02 -0.12693905925E+03  0.13746384727E+03  0.00000000000E+00 0. -1.
<scales pt_clust_3="14000.00000" pt_clust_4="176.47159" pt_clust_5="32.74986" pt_clust_6="53.06654"></scales>
<clustering>
<clus scale="   32.750">  1  5  2 -1</clus>
<clus scale="   53.067">  2  6  1 -1</clus>
<clus scale="  176.472">  1  4  2 -1</clus>
<clus scale="   32.750">  1  3  2 -1</clus>
</clustering>
</event>
<event>
 6    0  0.1344929E+003  0.1648549E+03  0.7546771E-02  0.1183322E+00
         21   -1    0    0  505  501  0.00000000000E+00  0.00000000000E+00  0.19278350996E+03  0.19278350996E+03  0.00000000000E+00 0.  1.
         21   -1    0    0  503  502 -0.00000000000E+00 -0.00000000000E+00 -0.41120598885E+03  0.41120598885E+03  0.00000000000E+00 0.  1.
         21    1    1    2  503  506 -0.47401315217E+02 -0.61820853009E+02 -0.13995267094E+03  0.16017319581E+03  0.00000000000E+00 0.  1.
         21    1    1    2  504  502  0.53200708876E+02  0.37941215423E+02 -0.82014352648E+02  0.10486279270E+03  0.00000000000E+00 0.  1.
         21    1    1    2  505  504  0.71976367983E+02  0.16111628940E+03 -0.26299980386E+02  0.17841172951E+03  0.00000000000E+00 0.  1.
         21    1    1    2  506  501 -0.77775761643E+02 -0.13723665182E+03  0.29844525095E+02  0.16054178079E+03  0.00000000000E+00 0.  1.
<scales pt_clust_3="49.23220" pt_clust_4="65.34410" pt_clust_5="14000.00000" pt_clust_6="164.85488"></scales>
<clustering>
<clus scale="   65.344">  2  4  1 -1</clus>
<clus scale="   49.232">  2  3  1 -1</clus>
<clus scale="  164.855">  1  6  2 -1</clus>
<clus scale="  164.855">  1  3  2 -1</clus>
</clustering>
</event>
<event>
 6    0  0.1344929E+003  0.1694474E+03  0.7546771E-02  0.1178425E+00
         21   -1    0    0  505  501  0.00000000000E+00  0.00000000000E+00  0.32682876312E+03  0.32682876312E+03  0.00000000000E+00 0.  1.
         21   -1    0    0  503  502 -0.00000000000E+00 -0.00000000000E+00 -0.38221390097E+03  0.38221390097E+03  0.00000000000E+00 0.  1.
         21    1    1    2  503  504 -0.40150574884E+02 -0.14894023306E+02 -0.94339402092E+01  0.43850881651E+02  0.00000000000E+00 0.  1.
         21    1    1    2  504  501 -0.14927646395E+03 -0.46593982382E+02  0.14236711899E+03  0.21147779659E+03  0.00000000000E+00 0.  1.
         21    1    1    2  505  506  0.20837203761E+03 -0.33432752252E+01  0.42954925589E+02  0.21277971985E+03  0.00000000000E+00 0.  1.
         21    1    1    2  506  502 -0.18944998781E+02  0.64831280914E+02 -0.23127324222E+03  0.24093426600E+03  0.00000000000E+00 0.  1.
<scales pt_clust_3="42.82407" pt_clust_4="169.44743" pt_clust_5="14000.00000" pt_clust_6="71.40325"></scales>
<clustering>
<clus scale="   42.824">  2  3  1 -1</clus>
<clus scale="   71.403">  2  6  1 -1</clus>
<clus scale="  169.447">  1  4  2 -1</clus>
<clus scale="  169.447">  1  3  2 -1</clus>
</clustering>
</event>
<event>
 6    0  0.1344929E+003  0.7880521E+02  0.7546771E-02  0.1332477E+00
         21   -1    0    0  506  501  0.00000000000E+00  0.00000000000E+00  0.91882035789E+03  0.91882035789E+03  0.00000000000E+00 0.  1.
         21   -1    0    0  504  502 -0.00000000000E+00 -0.00000000000E+00 -0.35059064997E+02  0.35059064997E+02  0.00000000000E+00 0.  1.
         21    1    1    2  503  502 -0.68614602047E+02 -0.30254859846E+02  0.14531278459E+03  0.16352102472E+03  0.00000000000E+00 0.  1.
         21    1    1    2  504  501 -0.20006800317E+02  0.35937515698E+02  0.20164770284E+02  0.45808242207E+02  0.00000000000E+00 0.  1.
         21    1    1    2  505  503  0.63655263594E+02  0.55884641527E+02  0.14893276651E+03  0.17133608693E+03  0.00000000000E+00 0.  1.
         21    1    1    2  506  505  0.24966138770E+02 -0.61567297380E+02  0.56935097150E+03  0.57321406904E+03  0.00000000000E+00 0.  1.
<scales pt_clust_3="14000.00000" pt_clust_4="41.13122" pt_clust_5="78.80521" pt_clust_6="62.89245"></scales>
<clustering>
<clus scale="   41.131">  2  4  1 -1</clus>
<clus scale="   62.892">  1  6  2 -1</clus>
<clus scale="   78.805">  1  5  2 -1</clus>
<clus scale="   62.892">  1  3  2 -1</clus>
</clustering>
</event>
<event>
 6    0  0.1344929E+003  0.2046799E+03  0.7546771E-02  0.1145850E+00
         21   -1    0    0  506  501  0.00000000000E+00  0.00000000000E+00  0.22093408353E+03  0.22093408353E+03  0.00000000000E+00 0.  1.
         21   -1    0    0  503  502 -0.00000000000E+00 -0.00000000000E+00 -0.21603023634E+03  0.21603023634E+03  0.00000000000E+00 0.  1.
         21    1    1    2  503  501  0.25854421464E+02 -0.21586967032E+02 -0.40291623899E+01  0.33921709928E+02  0.00000000000E+00 0. -1.
         21    1    1    2  504  505 -0.10502605476E+03 -0.56738987018E+02  0.18074601062E+02  0.12073307761E+03  0.00000000000E+00 0.  1.
         21    1    1    2  505  502 -0.82168645146E+02 -0.94137201582E+01 -0.46517686739E+02  0.94890460805E+02  0.00000000000E+00 0.  1.
         21    1    1    2  506  504  0.16134027844E+03  0.87739674208E+02  0.37376095257E+02  0.18741907153E+03  0.00000000000E+00 0.  1.
<scales pt_clust_3="33.68157" pt_clust_4="63.49221" pt_clust_5="63.49221" pt_clust_6="188.75218"></scales>
<clustering>
<clus scale="   33.682">  2  3  1 -1</clus>
<clus scale="   63.492">  4  5 -1 -1</clus>
<clus scale="  188.752">  1  6  2 -1</clus>
<clus scale="  188.752">  1  3  2 -1</clus>
</clustering>
</event>
<event>
 6    0  0.1344929E+003  0.1377197E+03  0.7546771E-02  0.1216431E+00
         21   -1    0    0  504  501  0.00000000000E+00  0.00000000000E+00  0.38929359623E+03  0.38929359623E+03  0.00000000000E+00 0.  1.
         21   -1    0    0  506  502 -0.00000000000E+00 -0.00000000000E+00 -0.15664159606E+03  0.15664159606E+03  0.00000000000E+00 0.  1.
         21    1    1    2  503  502  0.30200929167E+02  0.47616317721E+02 -0.49118436305E+02  0.74779881124E+02  0.00000000000E+00 0.  1.
         21    1    1    2  504  503 -0.25385067477E+02  0.24312674360E+02  0.12432375140E+03  0.12919714760E+03  0.00000000000E+00 0.  1.
         21    1    1    2  505  501  0.11929395727E+03  0.45724780176E+02  0.97612204798E+02  0.16077918487E+03  0.00000000000E+00 0.  1.
         21    1    1    2  506  505 -0.12410981896E+03 -0.11765377226E+03  0.59834480275E+02  0.18117897869E+03  0.00000000000E+00 0.  1.
<scales pt_clust_3="56.75017" pt_clust_4="35.14979" pt_clust_5="14000.00000" pt_clust_6="137.71971"></scales>
<clustering>
<clus scale="   35.150">  1  4  2 -1</clus>
<clus scale="   56.750">  2  3  1 -1</clus>
<clus scale="  137.720">  2  6  1 -1</clus>
<clus scale="   35.150">  1  3  2 -1</clus>
</clustering>
</event>
<event>
 6    0  0.1344929E+003  0.1657158E+03  0.7546771E-02  0.1182391E+00
         21   -1    0    0  506  501  0.00000000000E+00  0.00000000000E+00  0.21339708864E+03  0.21339708864E+03  0.00000000000E+00 0.  1.
         21   -1    0    0  503  502 -0.00000000000E+00 -0.00000000000E+00 -0.34144601152E+03  0.34144601152E+03  0.00000000000E+00 0. -1.
         21    1    1    2  503  504  0.34071741854E+02 -0.47410339374E+02 -0.87183409650E+02  0.10492650185E+03  0.00000000000E+00 0. -1.
         21    1    1    2  504  501 -0.24231362127E+02 -0.12061531640E+03 -0.17287699340E+03  0.21218310091E+03  0.00000000000E+00 0. -1.
         21    1    1    2  505  502 -0.55249191068E+02  0.82950758822E+02  0.82219138320E+02  0.12920250852E+03  0.00000000000E+00 0.  1.
         21    1    1    2  506  505  0.45408811341E+02  0.85074896953E+02  0.49792341857E+02  0.10853098888E+03  0.00000000000E+00 0.  1.
<scales pt_clust_3="46.71053" pt_clust_4="46.71053" pt_clust_5="151.20880" pt_clust_6="96.43494"></scales>
<clustering>
<clus scale="   46.711">  3  4 -1 -1</clus>
<clus scale="   96.435">  1  6  2 -1</clus>
<clus scale="  151.209">  1  5  2 -1</clus>
<clus scale="   96.435">  1  3  2 -1</clus>
</clustering>
</event>
<event>
 6    0  0.1344929E+003  0.8026613E+02  0.7546771E-02  0.1328298E+00
         21   -1    0    0  506  501  0.00000000000E+00  0.00000000000E+00  0.58683537305E+03  0.58683537305E+03  0.00000000000E+00 0. -1.
         21   -1    0    0  503  502 -0.00000000000E+00 -0.00000000000E+00 -0.11837957451E+03  0.11837957451E+03  0.00000000000E+00 0. -1.
         21    1    1    2  503  501  0.93598203246E+02 -0.86382958021E+02  0.10196894855E+03  0.16315730310E+03  0.00000000000E+00 0. -1.
         21    1    1    2  504  505 -0.27215198275E+02  0.45681381376E+02  0.11209571060E+03  0.12406814239E+03  0.00000000000E+00 0. -1.
         21    1    1    2  505  502 -0.29027952407E+02  0.33111146778E+02 -0.74692229334E+02  0.86705819786E+02  0.00000000000E+00 0. -1.
         21    1    1    2  506  504 -0.37355052564E+02  0.75904298679E+01  0.32908336872E+03  0.33128368228E+03  0.00000000000E+00 0. -1.
<scales pt_clust_3="80.26613" pt_clust_4="14000.00000" pt_clust_5="44.74692" pt_clust_6="38.11843"></scales>
<clustering>
<clus scale="   38.118">  1  6  2 -1</clus>
<clus scale="   44.747">  2  5  1 -1</clus>
<clus scale="   80.266">  2  3  1 -1</clus>
<clus scale="   38.118">  1  3  2 -1</clus>
</clustering>
</event>
<event>
 6    0  0.1344929E+003  0.1446431E+03  0.7546771E-02  0.1207214E+00
         21   -1    0    0  504  501  0.00000000000E+00  0.00000000000E+00  0.11023143301E+03  0.11023143301E+03  0.00000000000E+00 0. -1.
         21   -1    0    0  506  502 -0.00000000000E+00 -0.00000000000E+00 -0.85858299114E+03  0.85858299114E+03  0.00000000000E+00 0. -1.
         21    1    1    2  503  501  0.15044209022E+03  0.94580273638E+02 -0.13461556225E+03  0.22293407158E+03  0.00000000000E+00 0. -1.
         21    1    1    2  504  505 -0.53260300904E+02 -0.95548212271E+02  0.18708475100E+01  0.10940576123E+03  0.00000000000E+00 0. -1.
         21    1    1    2  505  502 -0.98263327335E+02 -0.30493228199E+02 -0.57954036409E+03  0.58860220190E+03  0.00000000000E+00 0. -1.
         21    1    1    2  506  503  0.10815380233E+01  0.31461166831E+02 -0.36066479291E+02  0.47872389446E+02  0.00000000000E+00 0.  1.
<scales pt_clust_3="30.80825" pt_clust_4="124.75455" pt_clust_5="102.88595" pt_clust_6="30.80825"></scales>
<clustering>
<clus scale="   30.808">  3  6 -1 -1</clus>
<clus scale="  102.886">  2  5  1 -1</clus>
<clus scale="  124.755">  1  4  2 -1</clus>
<clus scale="  124.755">  1  3  2 -1</clus>
</clustering>
</event>
<event>
 6    0  0.1344929E+003  0.1100560E+03  0.7546771E-02  0.1260466E+00
         21   -1    0    0  506  501  0.00000000000E+00  0.00000000000E+00  0.38277007200E+03  0.38277007200E+03  0.00000000000E+00 0. -1.
         21   -1    0    0  505  502 -0.00000000000E+00 -0.00000000000E+00 -0.24967368827E+03  0.24967368827E+03  0.00000000000E+00 0.  1.
         21    1    1    2  503  501 -0.74645129533E+02  0.54386930542E+02  0.27613740291E+03  0.29117297069E+03  0.00000000000E+00 0. -1.
         21    1    1    2  504  502  0.53241365744E+02 -0.13163009101E+03 -0.12567152985E+03  0.18961660608E+03  0.00000000000E+00 0.  1.
         21    1    1    2  505  503 -0.79739146347E+01  0.87392162722E+02 -0.54446063996E+02  0.10327316837E+03  0.00000000000E+00 0.  1.
         21    1    1    2  506  504  0.29377678423E+02 -0.10149002254E+02  0.37076574661E+02  0.48381015128E+02  0.00000000000E+00 0. -1.
<scales pt_clust_3="67.98995" pt_clust_4="110.05601" pt_clust_5="14000.00000" pt_clust_6="31.08135"></scales>
<clustering>
<clus scale="   31.081">  1  6  2 -1</clus>
<clus scale="   67.990">  1  3  2 -1</clus>
<clus scale="  110.056">  1  4  2 -1</clus>
<clus scale="   31.081">  1  3  2 -1</clus>
</clustering>
</event>
<event>
 6    0  0.1344929E+003  0.1037397E+03  0.7546771E-02  0.1272623E+00
         21   -1    0    0  502  501  0.00000000000E+00  0.00000000000E+00  0.62456196450E+03  0.62456196450E+03  0.00000000000E+00 0.  1.
         21   -1    0    0  506  502 -0.00000000000E+00 -0.00000000000E+00 -0.50079356173E+03  0.50079356173E+03  0.00000000000E+00 0. -1.
         21    1    1    2  503  505  0.53060693764E+02  0.12109617757E+03  0.34657455780E+02  0.13667794513E+03  0.00000000000E+00 0.  1.
         21    1    1    2  504  501  0.16010844798E+02 -0.34379074075E+02  0.43513908159E+03  0.43678860815E+03  0.00000000000E+00 0.  1.
         21    1    1    2  505  504  0.29571343224E+02 -0.52197438880E+02  0.87417130178E+02  0.10602259955E+03  0.00000000000E+00 0.  1.
         21    1    1    2  506  503 -0.98642881786E+02 -0.34519664616E+02 -0.43344526478E+03  0.44586637340E+03  0.00000000000E+00 0. -1.
<scales pt_clust_3="14000.00000" pt_clust_4="37.92450" pt_clust_5="79.39450" pt_clust_6="103.73972"></scales>
<clustering>
<clus scale="   37.925">  1  4  2 -1</clus>
<clus scale="   79.394">  1  5  2 -1</clus>
<clus scale="  103.740">  2  6  1 -1</clus>
<clus scale="   37.925">  1  3  2 -1</clus>
</clustering>
</event>
<event>
 6    0  0.1344929E+003  0.8866875E+02  0.7546771E-02  0.1306108E+00
         21   -1    0    0  504  501  0.00000000000E+00  0.00000000000E+00  0.97538370941E+03  0.97538370941E+03  0.00000000000E+00 0.  1.
         21   -1    0    0  505  502 -0.00000000000E+00 -0.00000000000E+00 -0.12225917389E+03  0.12225917389E+03  0.00000000000E+00 0. -1.
         21    1    1    2  503  501 -0.35800944372E+01 -0.33466250179E+02  0.68601683077E+03  0.68684197533E+03  0.00000000000E+00 0.  1.
         21    1    1    2  504  506  0.81050575504E+02 -0.23058108740E+02  0.21734541309E+03  0.23310920351E+03  0.00000000000E+00 0.  1.
         21    1    1    2  505  503 -0.63091713889E+02 -0.35799279825E+02 -0.20700675601E+01  0.72570227898E+02  0.00000000000E+00 0.  1.
         21    1    1    2  506  502 -0.14378767178E+02  0.92323638743E+02 -0.48167640785E+02  0.10512147656E+03  0.00000000000E+00 0. -1.
<scales pt_clust_3="33.65720" pt_clust_4="14000.00000" pt_clust_5="75.00953" pt_clust_6="88.66875"></scales>
<clustering>
<clus scale="   33.657">  1  3  2 -1</clus>
<clus scale="   75.010">  2  5  1 -1</clus>
<clus scale="   88.669">  2  6  1 -1</clus>
<clus scale="   33.657">  1  3  2 -1</clus>
</clustering>
</event>
<event>
 6    0  0.1344929E+003  0.1382962E+03  0.7546771E-02  0.1215640E+00
         21   -1    0    0  506  501  0.00000000000E+00  0.00000000000E+00  0.41320076884E+03  0.41320076884E+03  0.00000000000E+00 0.  1.
         21   -1    0    0  503  502 -0.00000000000E+00 -0.00000000000E+00 -0.48806693657E+03  0.48806693657E+03  0.00000000000E+00 0. -1.
         21    1    1    2  503  505 -0.16575252183E+02  0.26604730078E+02 -0.40014686819E+03  0.40137272798E+03  0.00000000000E+00 0. -1.
         21    1    1    2  504  501  0.38992681263E+01 -0.43677618333E+02  0.18875543129E+03  0.19378222694E+03  0.00000000000E+00 0.  1.
         21    1    1    2  505  504 -0.41857283876E+02 -0.78094956026E+02  0.16976926168E+03  0.19150053938E+03  0.00000000000E+00 0.  1.
         21    1    1    2  506  502  0.54533267932E+02  0.95167844281E+02 -0.33243992513E+02  0.11461221111E+03  0.00000000000E+00 0.  1.
<scales pt_clust_3="31.34566" pt_clust_4="42.46784" pt_clust_5="42.46784" pt_clust_6="124.46828"></scales>
<clustering>
<clus scale="   31.346">  2  3  1 -1</clus>
<clus scale="   42.468">  4  5 -1 -1</clus>
<clus scale="  124.468">  2  6  1 -1</clus>
<clus scale="  138.296">  1  3  2 -1</clus>
</clustering>
</event>
<event>
 6    0  0.1344929E+003  0.7993488E+02  0.7546771E-02  0.1329236E+00
         21   -1    0    0  503  501  0.00000000000E+00  0.00000000000E+00  0.67889795799E+03  0.67889795799E+03  0.00000000000E+00 0. -1.
         21   -1    0    0  506  502 -0.00000000000E+00 -0.00000000000E+00 -0.47946609173E+03  0.47946609173E+03  0.00000000000E+00 0. -1.
         21    1    1    2  503  502 -0.90451203218E+02  0.33641015486E+02  0.91088047821E+02  0.13270331775E+03  0.00000000000E+00 0. -1.
         21    1    1    2  504  505  0.57620890816E+02  0.21192926101E+02  0.16425592362E+03  0.17535482776E+03  0.00000000000E+00 0. -1.
         21    1    1    2  505  501  0.54401913046E+02 -0.29604271913E+01  0.39357168496E+03  0.39732480853E+03  0.00000000000E+00 0. -1.
         21    1    1    2  506  504 -0.21571600644E+02 -0.51873514396E+02 -0.44948379013E+03  0.45298109568E+03  0.00000000000E+00 0. -1.
<scales pt_clust_3="14000.00000" pt_clust_4="79.93488" pt_clust_5="54.48240" pt_clust_6="56.06892"></scales>
<clustering>
<clus scale="   54.482">  1  5  2 -1</clus>
<clus scale="   56.069">  2  6  1 -1</clus>
<clus scale="   79.935">  1  4  2 -1</clus>
<clus scale="   54.482">  1  3  2 -1</clus>
</clustering>
</event>
<event>
 6    0  0.1344929E+003  0.1270041E+03  0.7546771E-02  0.1231970E+00
         21   -1    0    0  505  501  0.00000000000E+00  0.00000000000E+00  0.97311571572E+02  0.97311571572E+02  0.00000000000E+00 0.  1.
         21   -1    0    0  506  502 -0.00000000000E+00 -0.00000000000E+00 -0.60703067558E+03  0.60703067558E+03  0.00000000000E+00 0. -1.
         21    1    1    2  503  501 -0.30227207985E+02 -0.10120618747E+03  0.17567753076E+02  0.10707475161E+03  0.00000000000E+00 0.  1.
         21    1    1    2  504  502  0.10951683040E+03  0.56947755075E+02 -0.36209883555E+03  0.38256051764E+03  0.00000000000E+00 0. -1.
         21    1    1    2  505  504 -0.46669191157E+02 -0.21995894660E+02 -0.27499748763E+02  0.58464253755E+02  0.00000000000E+00 0.  1.
         21    1    1    2  506  503 -0.32620431258E+02  0.66254327057E+02 -0.13768827277E+03  0.15624272414E+03  0.00000000000E+00 0. -1.
<scales pt_clust_3="127.00411" pt_clust_4="14000.00000" pt_clust_5="51.59295" pt_clust_6="74.18012"></scales>
<clustering>
<clus scale="   51.593">  1  5  2 -1</clus>
<clus scale="   74.180">  2  6  1 -1</clus>
<clus scale="  127.004">  1  3  2 -1</clus>
<clus scale="   51.593">  1  3  2 -1</clus>
</clustering>
</event>
<event>
 6    0  0.1344929E+003  0.1084987E+03  0.7546771E-02  0.1263376E+00
         21   -1    0    0  505  501  0.00000000000E+00  0.00000000000E+00  0.63479539002E+03  0.63479539002E+03  0.00000000000E+00 0.  1.
         21   -1    0    0  506  502 -0.00000000000E+00 -0.00000000000E+00 -0.32818089789E+03  0.32818089789E+03  0.00000000000E+00 0.  1.
         21    1    1    2  503  504 -0.67703591521E+02 -0.20775144317E+01  0.34138751176E+03  0.34804241919E+03  0.00000000000E+00 0.  1.
         21    1    1    2  504  502 -0.36519579670E+01 -0.43830060608E+02 -0.27682193933E+03  0.28029412606E+03  0.00000000000E+00 0.  1.
         21    1    1    2  505  503 -0.25341276120E+02  0.32844971553E+02  0.23297943218E+03  0.23664401165E+03  0.00000000000E+00 0.  1.
         21    1    1    2  506  501  0.96696825607E+02  0.13062603487E+02  0.90694875189E+01  0.97995731010E+02  0.00000000000E+00 0. -1.
<scales pt_clust_3="37.99283" pt_clust_4="43.98194" pt_clust_5="37.99283" pt_clust_6="97.03155"></scales>
<clustering>
<clus scale="   37.993">  3  5 -1 -1</clus>
<clus scale="   43.982">  2  4  1 -1</clus>
<clus scale="   97.032">  2  6  1 -1</clus>
<clus scale="  108.499">  1  3  2 -1</clus>
</clustering>
</event>
<event>
 6    0  0.1344929E+003  0.6475658E+02  0.7546771E-02  0.1378890E+00
         21   -1    0    0  503  501  0.00000000000E+00  0.00000000000E+00  0.29134631406E+03  0.29134631406E+03  0.00000000000E+00 0. -1.
         21   -1    0    0  505  502 -0.00000000000E+00 -0.00000000000E+00 -0.28908156447E+03  0.28908156447E+03  0.00000000000E+00 0.  1.
         21    1    1    2  503  506  0.55763952300E+02 -0.64361323172E+02  0.48901195979E+02  0.98200434137E+02  0.00000000000E+00 0. -1.
         21    1    1    2  504  501 -0.61731511824E+02  0.15541425380E+02  0.63734045021E+02  0.90079653361E+02  0.00000000000E+00 0. -1.
         21    1    1    2  505  504  0.64761080222E+02  0.23441446272E+02  0.12798510690E+03  0.14533989990E+03  0.00000000000E+00 0. -1.
         21    1    1    2  506  502 -0.58793520698E+02  0.25378451521E+02 -0.23835559831E+03  0.24680789113E+03  0.00000000000E+00 0.  1.
<scales pt_clust_3="14000.00000" pt_clust_4="63.65780" pt_clust_5="41.92981" pt_clust_6="64.75658"></scales>
<clustering>
<clus scale="   63.658">  1  4  2 -1</clus>
<clus scale="   41.930">  1  5  2 -1</clus>
<clus scale="   64.757">  2  6  1 -1</clus>
<clus scale="   63.658">  1  3  2 -1</clus>
</clustering>
</event>
<event>
 6    0  0.1344929E+003  0.1058856E+03  0.7546771E-02  0.1268384E+00
         21   -1    0    0  506  501  0.00000000000E+00  0.00000000000E+00  0.41702407538E+03  0.41702407538E+03  0.00000000000E+00 0.  1.
         21   -1    0    0  504  502 -0.00000000000E+00 -0.00000000000E+00 -0.20013749090E+03  0.20013749090E+03  0.00000000000E+00 0.  1.
         21    1    1    2  503  505 -0.26822115297E+02 -0.30370732158E+02  0.47579564903E+02  0.62494977695E+02  0.00000000000E+00 0. -1.
         21    1    1    2  504  501  0.35573905660E+02  0.15225043786E+03  0.20032683325E+03  0.25411914275E+03  0.00000000000E+00 0.  1.
         21    1    1    2  505  502  0.15141627452E+01 -0.84746808404E+02 -0.15175122379E+03  0.17381814677E+03  0.00000000000E+00 0.  1.
         21    1    1    2  506  503 -0.10265953108E+02 -0.37132897299E+02  0.12073141012E+03  0.12672929908E+03  0.00000000000E+00 0.  1.
<scales pt_clust_3="38.32717" pt_clust_4="98.31984" pt_clust_5="84.76033" pt_clust_6="38.32717"></scales>
<clustering>
<clus scale="   38.327">  3  6 -1 -1</clus>
<clus scale="   84.760">  2  5  1 -1</clus>
<clus scale="   98.320">  2  4  1 -1</clus>
<clus scale="  105.886">  1  3  2 -1</clus>
</clustering>
</event>
<event>
 6    0  0.1344929E+003  0.8987407E+02  0.7546771E-02  0.1303157E+00
         21   -1    0    0  505  501  0.00000000000E+00  0.00000000000E+00  0.11024414007E+04  0.11024414007E+04  0.00000000000E+00 0.  1.
         21   -1    0    0  503  502 -0.00000000000E+00 -0.00000000000E+00 -0.35727452601E+02  0.35727452601E+02  0.00000000000E+00 0.  1.
         21    1    1    2  503  501 -0.71428211475E+02  0.11686578011E+02  0.61758901226E+02  0.95145821667E+02  0.00000000000E+00 0.  1.
         21    1    1    2  504  502  0.50800570635E+02 -0.12183102243E+03  0.33044138288E+03  0.35583002055E+03  0.00000000000E+00 0.  1.
         21    1    1    2  505  506  0.36582042375E+01  0.44911896909E+02  0.46327226415E+03  0.46545853915E+03  0.00000000000E+00 0.  1.
         21    1    1    2  506  504  0.16969436603E+02  0.65232547512E+02  0.21124139982E+03  0.22173447191E+03  0.00000000000E+00 0.  1.
<scales pt_clust_3="73.03473" pt_clust_4="89.87407" pt_clust_5="45.06064" pt_clust_6="14000.00000"></scales>
<clustering>
<clus scale="   45.061">  1  5  2 -1</clus>
<clus scale="   73.035">  2  3  1 -1</clus>
<clus scale="   89.874">  2  4  1 -1</clus>
<clus scale="   45.061">  1  3  2 -1</clus>
</clustering>
</event>
<event>
 6    0  0.1344929E+003  0.9239883E+02  0.7546771E-02  0.1297144E+00
         21   -1    0    0  503  501  0.00000000000E+00  0.00000000000E+00  0.92792720254E+02  0.92792720254E+02  0.00000000000E+00 0. -1.
         21   -1    0    0  505  502 -0.00000000000E+00 -0.00000000000E+00 -0.83555113506E+03  0.83555113506E+03  0.00000000000E+00 0. -1.
         21    1    1    2  503  506  0.51286596341E+02 -0.66912173715E+02  0.29337880168E+02  0.89265139714E+02  0.00000000000E+00 0. -1.
         21    1    1    2  504  502 -0.13159462864E+02 -0.33172534378E+02 -0.49903822706E+03  0.50031264282E+03  0.00000000000E+00 0. -1.
         21    1    1    2  505  501  0.38898754357E+02 -0.37750642025E+01 -0.16705082244E+03  0.17156148017E+03  0.00000000000E+00 0. -1.
         21    1    1    2  506  504 -0.77025887833E+02  0.10385977229E+03 -0.10600724548E+03  0.16720459262E+03  0.00000000000E+00 0. -1.
<scales pt_clust_3="92.39883" pt_clust_4="35.68737" pt_clust_5="38.22515" pt_clust_6="14000.00000"></scales>
<clustering>
<clus scale="   35.687">  2  4  1 -1</clus>
<clus scale="   38.225">  2  5  1 -1</clus>
<clus scale="   92.399">  1  3  2 -1</clus>
<clus scale="   92.399">  1  3  2 -1</clus>
</clustering>
</event>
<event>
 6    0  0.1344929E+003  0.9107007E+02  0.7546771E-02  0.1300281E+00
         21   -1    0    0  503  501  0.00000000000E+00  0.00000000000E+00  0.25268823589E+03  0.25268823589E+03  0.00000000000E+00 0.  1.
         21   -1    0    0  505  502 -0.00000000000E+00 -0.00000000000E+00 -0.12561005677E+03  0.12561005677E+03  0.00000000000E+00 0.  1.
         21    1    1    2  503  502 -0.48920648777E+02 -0.63408100793E+02  0.40021489229E+02  0.89529529894E+02  0.00000000000E+00 0.  1.
         21    1    1    2  504  501  0.19903734112E+02 -0.32395897760E+02  0.61732956142E+02  0.72502487525E+02  0.00000000000E+00 0.  1.
         21    1    1    2  505  506 -0.66559242064E+02  0.44868360384E+02 -0.40108809855E+02  0.89733043499E+02  0.00000000000E+00 0.  1.
         21    1    1    2  506  504  0.95576156729E+02  0.50935638170E+02  0.65432543603E+02  0.12653323173E+03  0.00000000000E+00 0.  1.
<scales pt_clust_3="14000.00000" pt_clust_4="38.02174" pt_clust_5="75.67154" pt_clust_6="91.07007"></scales>
<clustering>
<clus scale="   38.022">  1  4  2 -1</clus>
<clus scale="   75.672">  2  5  1 -1</clus>
<clus scale="   91.070">  2  6  1 -1</clus>
<clus scale="   38.022">  1  3  2 -1</clus>
</clustering>
</event>
<event>
 6    0  0.1344929E+003  0.1156536E+03  0.7546771E-02  0.1250444E+00
         21   -1    0    0  505  501  0.00000000000E+00  0.00000000000E+00  0.36608376924E+03  0.36608376924E+03  0.00000000000E+00 0. -1.
         21   -1    0    0  504  502 -0.00000000000E+00 -0.00000000000E+00 -0.65280598317E+03  0.65280598317E+03  0.00000000000E+00 0. -1.
         21    1    1    2  503  502 -0.40454020173E+02  0.31428192669E+01 -0.29908511062E+03  0.30182496328E+03  0.00000000000E+00 0. -1.
         21    1    1    2  504  506  0.33234050789E+02  0.26751736347E+02 -0.13713767378E+03  0.14362067783E+03  0.00000000000E+00 0. -1.
         21    1    1    2  505  503 -0.11530851186E+03 -0.31615517068E+01  0.33230504961E+03  0.35175658389E+03  0.00000000000E+00 0. -1.
         21    1    1    2  506  501  0.12252848125E+03 -0.26733003907E+02 -0.18280447914E+03  0.22168752741E+03  0.00000000000E+00 0. -1.
<scales pt_clust_3="40.57592" pt_clust_4="32.82078" pt_clust_5="14000.00000" pt_clust_6="115.65363"></scales>
<clustering>
<clus scale="   40.576">  2  3  1 -1</clus>
<clus scale="   32.821">  2  4  1 -1</clus>
<clus scale="  115.654">  2  6  1 -1</clus>
<clus scale="  115.654">  1  3  2 -1</clus>
</clustering>
</event>
<event>
 6    0  0.1344929E+003  0.8142648E+02  0.7546771E-02  0.1325051E+00
         21   -1    0    0  503  501  0.00000000000E+00  0.00000000000E+00  0.76951272361E+03  0.76951272361E+03  0.00000000000E+00 0.  1.
         21   -1    0    0  505  502 -0.00000000000E+00 -0.00000000000E+00 -0.44633808626E+03  0.44633808626E+03  0.00000000000E+00 0. -1.
         21    1    1    2  503  504  0.33002175820E+02 -0.21570803748E+02  0.56879178541E+03  0.57015659107E+03  0.00000000000E+00 0.  1.
         21    1    1    2  504  502  0.64026437449E+02  0.13621862627E+02 -0.37203986526E+03  0.37775468386E+03  0.00000000000E+00 0. -1.
         21    1    1    2  505  506 -0.92185096839E+02  0.69941011264E+02 -0.11859011067E+02  0.11632056258E+03  0.00000000000E+00 0.  1.
         21    1    1    2  506  501 -0.48435164295E+01 -0.61992070143E+02  0.13828172826E+03  0.15161897237E+03  0.00000000000E+00 0.  1.
<scales pt_clust_3="39.42643" pt_clust_4="65.85764" pt_clust_5="81.42648" pt_clust_6="14000.00000"></scales>
<clustering>
<clus scale="   39.426">  1  3  2 -1</clus>
<clus scale="   65.858">  2  4  1 -1</clus>
<clus scale="   81.426">  2  5  1 -1</clus>
<clus scale="   39.426">  1  3  2 -1</clus>
</clustering>
</event>
<event>
 6    0  0.1344929E+003  0.9098549E+02  0.7546771E-02  0.1300483E+00
         21   -1    0    0  505  501  0.00000000000E+00  0.00000000000E+00  0.61631892074E+03  0.61631892074E+03  0.00000000000E+00 0.  1.
         21   -1    0    0  504  502 -0.00000000000E+00 -0.00000000000E+00 -0.13142848683E+04  0.13142848683E+04  0.00000000000E+00 0.  1.
         21    1    1    2  503  502 -0.60996169927E+02  0.15669368149E+02 -0.18545911341E+03  0.19586001274E+03  0.00000000000E+00 0.  1.
         21    1    1    2  504  506  0.60057978493E+01  0.47736120689E+02 -0.83827161068E+03  0.83965117763E+03  0.00000000000E+00 0.  1.
         21    1    1    2  505  503  0.91095708055E+02 -0.86581420954E+01  0.60315426822E+03  0.61005611440E+03  0.00000000000E+00 0.  1.
         21    1    1    2  506  501 -0.36105335978E+02 -0.54747346742E+02 -0.27738949170E+03  0.28503648428E+03  0.00000000000E+00 0.  1.
<scales pt_clust_3="14000.00000" pt_clust_4="48.11244" pt_clust_5="90.98549" pt_clust_6="41.97838"></scales>
<clustering>
<clus scale="   48.112">  2  4  1 -1</clus>
<clus scale="   41.978">  2  6  1 -1</clus>
<clus scale="   90.985">  1  5  2 -1</clus>
<clus scale="   90.985">  1  3  2 -1</clus>
</clustering>
</event>
<event>
 6    0  0.1344929E+003  0.9179731E+02  0.7546771E-02  0.1298557E+00
         21   -1    0    0  505  501  0.00000000000E+00  0.00000000000E+00  0.53260023143E+03  0.53260023143E+03  0.00000000000E+00 0.  1.
         21   -1    0    0  503  502 -0.00000000000E+00 -0.00000000000E+00 -0.13239813242E+03  0.13239813242E+03  0.00000000000E+00 0.  1.
         21    1    1    2  503  506  0.20563484753E+02 -0.89174205536E+02 -0.34807168781E+02  0.97910340806E+02  0.00000000000E+00 0.  1.
         21    1    1    2  504  502  0.60655872325E+02  0.95927015783E+02  0.65209904978E+01  0.11368223486E+03  0.00000000000E+00 0.  1.
         21    1    1    2  505  504 -0.64054367715E+02 -0.47772789512E+02  0.37699385979E+03  0.38536939651E+03  0.00000000000E+00 0.  1.
         21    1    1    2  506  501 -0.17164989363E+02  0.41019979265E+02  0.51494417505E+02  0.68036391680E+02  0.00000000000E+00 0.  1.
<scales pt_clust_3="91.79731" pt_clust_4="14000.00000" pt_clust_5="79.26786" pt_clust_6="44.46657"></scales>
<clustering>
<clus scale="   44.467">  1  6  2 -1</clus>
<clus scale="   79.268">  1  5  2 -1</clus>
<clus scale="   91.797">  2  3  1 -1</clus>
<clus scale="   44.467">  1  3  2 -1</clus>
</clustering>
</event>
<event>
 6    0  0.1344929E+003  0.6895888E+02  0.7546771E-02  0.1363670E+00
         21   -1    0    0  506  501  0.00000000000E+00  0.00000000000E+00  0.40174539015E+03  0.40174539015E+03  0.00000000000E+00 0. -1.
         21   -1    0    0  504  502 -0.00000000000E+00 -0.00000000000E+00 -0.21616702233E+03  0.21616702233E+03  0.00000000000E+00 0. -1.
         21    1    1    2  503  505  0.49095153741E+02  0.18502662379E+02  0.27808223298E+03  0.28298835830E+03  0.00000000000E+00 0. -1.
         21    1    1    2  504  501 -0.32919088553E+02  0.56541528823E+02 -0.14503043502E+03  0.15910511606E+03  0.00000000000E+00 0. -1.
         21    1    1    2  505  502  0.24524370969E+01 -0.10143255749E+03 -0.13459519868E+02  0.10235104710E+03  0.00000000000E+00 0. -1.
         21    1    1    2  506  503 -0.18628502284E+02  0.26388366289E+02  0.65986089730E+02  0.73467891018E+02  0.00000000000E+00 0. -1.
<scales pt_clust_3="52.69864" pt_clust_4="68.95888" pt_clust_5="14000.00000" pt_clust_6="32.30119"></scales>
<clustering>
<clus scale="   32.301">  1  6  2 -1</clus>
<clus scale="   52.699">  1  3  2 -1</clus>
<clus scale="   68.959">  2  4  1 -1</clus>
<clus scale="   32.301">  1  3  2 -1</clus>
</clustering>
</event>
<event>
 6    0  0.1344929E+003  0.8252931E+02  0.7546771E-02  0.1322023E+00
         21   -1    0    0  506  501  0.00000000000E+00  0.00000000000E+00  0.60084586320E+03  0.60084586320E+03  0.00000000000E+00 0.  1.
         21   -1    0    0  501  502 -0.00000000000E+00 -0.00000000000E+00 -0.79388499778E+02  0.79388499778E+02  0.00000000000E+00 0.  1.
         21    1    1    2  503  502 -0.67045022737E+02 -0.48865217953E+02 -0.32748284216E+02  0.89192458866E+02  0.00000000000E+00 0.  1.
         21    1    1    2  504  505 -0.49487265533E+01  0.55273770166E+02  0.11357231290E+03  0.12640549759E+03  0.00000000000E+00 0.  1.
         21    1    1    2  505  503  0.10664569659E+03 -0.20334832899E+02  0.35458625964E+03  0.37083449888E+03  0.00000000000E+00 0.  1.
         21    1    1    2  506  504 -0.34651947304E+02  0.13926280686E+02  0.86047075094E+02  0.93801907645E+02  0.00000000000E+00 0. -1.
<scales pt_clust_3="82.52931" pt_clust_4="59.98916" pt_clust_5="14000.00000" pt_clust_6="37.34567"></scales>
<clustering>
<clus scale="   37.346">  1  6  2 -1</clus>
<clus scale="   59.989">  1  4  2 -1</clus>
<clus scale="   82.529">  2  3  1 -1</clus>
<clus scale="   37.346">  1  3  2 -1</clus>
</clustering>
</event>
<event>
 6    0  0.1344929E+003  0.1955676E+03  0.7546771E-02  0.1153533E+00
         21   -1    0    0  506  501  0.00000000000E+00  0.00000000000E+00  0.40506391841E+03  0.40506391841E+03  0.00000000000E+00 0.  1.
         21   -1    0    0  504  502 -0.00000000000E+00 -0.00000000000E+00 -0.72830180610E+03  0.72830180610E+03  0.00000000000E+00 0. -1.
         21    1    1    2  503  501  0.63653382340E+02 -0.28018818800E+02  0.18440259704E+03  0.19708151889E+03  0.00000000000E+00 0.  1.
         21    1    1    2  504  503 -0.24503707412E+03 -0.10996615827E+02 -0.50072551876E+03  0.55757523115E+03  0.00000000000E+00 0. -1.
         21    1    1    2  505  502  0.14602225598E+03  0.67557823402E+01 -0.16094094594E+03  0.21741694487E+03  0.00000000000E+00 0.  1.
         21    1    1    2  506  505  0.35361435804E+02  0.32259652286E+02  0.15402597997E+03  0.16129202961E+03  0.00000000000E+00 0.  1.
<scales pt_clust_3="90.97050" pt_clust_4="195.56762" pt_clust_5="14000.00000" pt_clust_6="47.86561"></scales>
<clustering>
<clus scale="   47.866">  1  6  2 -1</clus>
<clus scale="   90.970">  1  3  2 -1</clus>
<clus scale="  195.568">  1  4  2 -1</clus>
<clus scale="   47.866">  1  3  2 -1</clus>
</clustering>
</event>
<event>
 6    0  0.1344929E+003  0.1381957E+03  0.7546771E-02  0.1215778E+00
         21   -1    0    0  505  501  0.00000000000E+00  0.00000000000E+00  0.55999838841E+02  0.55999838841E+02  0.00000000000E+00 0. -1.
         21   -1    0    0  506  502 -0.00000000000E+00 -0.00000000000E+00 -0.83819277104E+03  0.83819277104E+03  0.00000000000E+00 0.  1.
         21    1    1    2  503  501  0.32370822821E+02  0.34263169409E+02 -0.32738417082E+02  0.57390233499E+02  0.00000000000E+00 0.  1.
         21    1    1    2  504  502  0.29709521212E+02 -0.26791723150E+02 -0.29408657871E+03  0.29679516145E+03  0.00000000000E+00 0.  1.
         21    1    1    2  505  504 -0.15430062263E+03  0.57951242644E+02 -0.18984628295E+03  0.25141328488E+03  0.00000000000E+00 0. -1.
         21    1    1    2  506  503  0.92220278596E+02 -0.65422688903E+02 -0.26552165346E+03  0.28859393005E+03  0.00000000000E+00 0.  1.
<scales pt_clust_3="47.33005" pt_clust_4="40.00565" pt_clust_5="14000.00000" pt_clust_6="138.19567"></scales>
<clustering>
<clus scale="   40.006">  2  4  1 -1</clus>
<clus scale="   47.330">  1  3  2 -1</clus>
<clus scale="  138.196">  2  6  1 -1</clus>
<clus scale="   47.330">  1  3  2 -1</clus>
</clustering>
</event>
<event>
 6    0  0.1344929E+003  0.1318008E+03  0.7546771E-02  0.1224808E+00
         21   -1    0    0  506  501  0.00000000000E+00  0.00000000000E+00  0.32715785703E+03  0.32715785703E+03  0.00000000000E+00 0.  1.
         21   -1    0    0  505  502 -0.00000000000E+00 -0.00000000000E+00 -0.10462812394E+03  0.10462812394E+03  0.00000000000E+00 0.  1.
         21    1    1    2  503  502 -0.51181282659E+02  0.34252196407E+02 -0.28461758142E+02  0.67843999955E+02  0.00000000000E+00 0.  1.
         21    1    1    2  504  503  0.89555634673E+02 -0.79761223629E+02  0.90147856742E+02  0.15002899910E+03  0.00000000000E+00 0.  1.
         21    1    1    2  505  501 -0.71318902973E+02  0.65187541991E+02  0.84042143109E+02  0.12805812497E+03  0.00000000000E+00 0.  1.
         21    1    1    2  506  504  0.32944550959E+02 -0.19678514769E+02  0.76801491385E+02  0.85854856941E+02  0.00000000000E+00 0.  1.
<scales pt_clust_3="61.58520" pt_clust_4="30.32844" pt_clust_5="120.40307" pt_clust_6="30.32844"></scales>
<clustering>
<clus scale="   30.328">  4  6 -1 -1</clus>
<clus scale="   61.585">  2  3  1 -1</clus>
<clus scale="  120.403">  1  5  2 -1</clus>
<clus scale="  120.403">  1  3  2 -1</clus>
</clustering>
</event>
<event>
 6    0  0.1344929E+003  0.9544516E+02  0.7546771E-02  0.1290177E+00
         21   -1    0    0  504  501  0.00000000000E+00  0.00000000000E+00  0.13750967423E+03  0.13750967423E+03  0.00000000000E+00 0.  1.
         21   -1    0    0  505  502 -0.00000000000E+00 -0.00000000000E+00 -0.61205528320E+03  0.61205528320E+03  0.00000000000E+00 0. -1.
         21    1    1    2  503  506 -0.53764706199E+02  0.62410241812E+02 -0.10175958702E+03  0.13092247884E+03  0.00000000000E+00 0. -1.
         21    1    1    2  504  503  0.31106042059E+02  0.23900815508E+02  0.10240601863E+03  0.10966233394E+03  0.00000000000E+00 0.  1.
         21    1    1    2  505  501 -0.11879503398E+02  0.30195632036E+02 -0.25860122557E+03  0.26062903265E+03  0.00000000000E+00 0. -1.
         21    1    1    2  506  502  0.34538167538E+02 -0.11650668936E+03 -0.21659081502E+03  0.24835111200E+03  0.00000000000E+00 0. -1.
<scales pt_clust_3="95.44516" pt_clust_4="39.32172" pt_clust_5="32.44840" pt_clust_6="14000.00000"></scales>
<clustering>
<clus scale="   32.448">  2  5  1 -1</clus>
<clus scale="   39.322">  1  4  2 -1</clus>
<clus scale="   95.445">  1  3  2 -1</clus>
<clus scale="   39.322">  1  3  2 -1</clus>
</clustering>
</event>
<event>
 6    0  0.1344929E+003  0.2206886E+03  0.7546771E-02  0.1133371E+00
         21   -1    0    0  506  501  0.00000000000E+00  0.00000000000E+00  0.53988109779E+03  0.53988109779E+03  0.00000000000E+00 0.  1.
         21   -1    0    0  503  502 -0.00000000000E+00 -0.00000000000E+00 -0.13581715405E+04  0.13581715405E+04  0.00000000000E+00 0. -1.
         21    1    1    2  503  501 -0.26965016645E+03  0.49502036262E+01 -0.11819098284E+04  0.12122898000E+04  0.00000000000E+00 0. -1.
         21    1    1    2  504  505  0.19374979403E+03 -0.83777379751E+01  0.28534992990E+03  0.34501268335E+03  0.00000000000E+00 0.  1.
         21    1    1    2  505  502  0.49041313281E+02 -0.12311865760E+02 -0.12514165792E+03  0.13497061530E+03  0.00000000000E+00 0. -1.
         21    1    1    2  506  504  0.26859059138E+02  0.15739400109E+02  0.20341111368E+03  0.20577953966E+03  0.00000000000E+00 0.  1.
<scales pt_clust_3="220.68859" pt_clust_4="14000.00000" pt_clust_5="50.88982" pt_clust_6="31.13098"></scales>
<clustering>
<clus scale="   31.131">  1  6  2 -1</clus>
<clus scale="   50.890">  2  5  1 -1</clus>
<clus scale="  220.689">  2  3  1 -1</clus>
<clus scale="   31.131">  1  3  2 -1</clus>
</clustering>
</event>
<event>
 6    0  0.1344929E+003  0.7326867E+02  0.7546771E-02  0.1349318E+00
         21   -1    0    0  503  501  0.00000000000E+00  0.00000000000E+00  0.95894823323E+03  0.95894823323E+03  0.00000000000E+00 0. -1.
         21   -1    0    0  504  502 -0.00000000000E+00 -0.00000000000E+00 -0.20147847170E+03  0.20147847170E+03  0.00000000000E+00 0.  1.
         21    1    1    2  503  506  0.33232742417E+02 -0.69635039665E+02  0.79094869832E+03  0.79470327625E+03  0.00000000000E+00 0. -1.
         21    1    1    2  504  501 -0.53271592723E+02 -0.39684613533E+02 -0.65163059016E+02  0.93053508278E+02  0.00000000000E+00 0.  1.
         21    1    1    2  505  502  0.93673684818E+02  0.95979681496E+02 -0.66113984741E+02  0.14952564150E+03  0.00000000000E+00 0.  1.
         21    1    1    2  506  505 -0.73634834511E+02  0.13339971702E+02  0.97798106968E+02  0.12314427890E+03  0.00000000000E+00 0.  1.
<scales pt_clust_3="73.26867" pt_clust_4="66.42839" pt_clust_5="76.85676" pt_clust_6="14000.00000"></scales>
<clustering>
<clus scale="   66.428">  2  4  1 -1</clus>
<clus scale="   76.857">  2  5  1 -1</clus>
<clus scale="   73.269">  1  3  2 -1</clus>
<clus scale="   73.269">  1  3  2 -1</clus>
</clustering>
</event>
<event>
 6    0  0.1344929E+003  0.1170870E+03  0.7546771E-02  0.1247981E+00
         21   -1    0    0  504  501  0.00000000000E+00  0.00000000000E+00  0.10497294752E+03  0.10497294752E+03  0.00000000000E+00 0.  1.
         21   -1    0    0  506  502 -0.00000000000E+00 -0.00000000000E+00 -0.13345271057E+04  0.13345271057E+04  0.00000000000E+00 0. -1.
         21    1    1    2  503  502  0.50753468996E+02 -0.86887025258E+02 -0.23716862556E+03  0.25763195982E+03  0.00000000000E+00 0. -1.
         21    1    1    2  504  503  0.40397669991E+02 -0.31558858461E+01 -0.59354235147E+02  0.71866936668E+02  0.00000000000E+00 0.  1.
         21    1    1    2  505  501 -0.53728230736E+02 -0.28072199812E+02  0.73839498229E+02  0.95535557145E+02  0.00000000000E+00 0.  1.
         21    1    1    2  506  505 -0.37422908250E+02  0.11811511092E+03 -0.10068707957E+04  0.10144655996E+04  0.00000000000E+00 0. -1.
<scales pt_clust_3="117.08704" pt_clust_4="40.52075" pt_clust_5="36.20927" pt_clust_6="14000.00000"></scales>
<clustering>
<clus scale="   40.521">  1  4  2 -1</clus>
<clus scale="   36.209">  1  5  2 -1</clus>
<clus scale="  117.087">  1  3  2 -1</clus>
<clus scale="   40.521">  1  3  2 -1</clus>
</clustering>
</event>
<event>
 6    0  0.1344929E+003  0.9035796E+02  0.7546771E-02  0.1301987E+00
         21   -1    0    0  504  501  0.00000000000E+00  0.00000000000E+00  0.91681644896E+03  0.91681644896E+03  0.00000000000E+00 0.  1.
         21   -1    0    0  503  502 -0.00000000000E+00 -0.00000000000E+00 -0.14380781240E+03  0.14380781240E+03  0.00000000000E+00 0.  1.
         21    1    1    2  503  506 -0.16267406326E+02 -0.80476118096E+02 -0.91660777824E+02  0.12305580963E+03  0.00000000000E+00 0.  1.
         21    1    1    2  504  505  0.57782023483E+02  0.28325150275E+02  0.16250967814E+03  0.17478693277E+03  0.00000000000E+00 0.  1.
         21    1    1    2  505  502 -0.64889759239E+02  0.13898037392E+02  0.76210722808E+01  0.66797582592E+02  0.00000000000E+00 0.  1.
         21    1    1    2  506  501  0.23375142081E+02  0.38252930429E+02  0.69453866396E+03  0.69598393637E+03  0.00000000000E+00 0.  1.
<scales pt_clust_3="90.35796" pt_clust_4="14000.00000" pt_clust_5="64.26205" pt_clust_6="44.82950"></scales>
<clustering>
<clus scale="   44.829">  1  6  2 -1</clus>
<clus scale="   64.262">  2  5  1 -1</clus>
<clus scale="   90.358">  2  3  1 -1</clus>
<clus scale="   44.829">  1  3  2 -1</clus>
</clustering>
</event>
<event>
 6    0  0.1344929E+003  0.1181091E+03  0.7546771E-02  0.1246249E+00
         21   -1    0    0  506  501  0.00000000000E+00  0.00000000000E+00  0.25785799454E+04  0.25785799454E+04  0.00000000000E+00 0.  1.
         21   -1    0    0  504  502 -0.00000000000E+00 -0.00000000000E+00 -0.27634211887E+03  0.27634211887E+03  0.00000000000E+00 0.  1.
         21    1    1    2  503  502  0.80965720178E+02 -0.13976949072E+03  0.16816736662E+03  0.23317637440E+03  0.00000000000E+00 0. -1.
         21    1    1    2  504  505 -0.29099373793E+02  0.34086418065E+02 -0.23982987419E+03  0.24398160998E+03  0.00000000000E+00 0.  1.
         21    1    1    2  505  501  0.68383008703E+01  0.30914061773E+02  0.10394696226E+04  0.10399516998E+04  0.00000000000E+00 0.  1.
         21    1    1    2  506  503 -0.58704647255E+02  0.74769010884E+02  0.13344307114E+04  0.13378123801E+04  0.00000000000E+00 0. -1.
<scales pt_clust_3="118.10909" pt_clust_4="44.84379" pt_clust_5="31.66136" pt_clust_6="14000.00000"></scales>
<clustering>
<clus scale="   31.661">  1  5  2 -1</clus>
<clus scale="   44.844">  2  4  1 -1</clus>
<clus scale="  118.109">  2  3  1 -1</clus>
<clus scale="   31.661">  1  3  2 -1</clus>
</clustering>
</event>
<event>
 6    0  0.1344929E+003  0.1002504E+03  0.7546771E-02  0.1279770E+00
         21   -1    0    0  504  501  0.00000000000E+00  0.00000000000E+00  0.22093659734E+03  0.22093659734E+03  0.00000000000E+00 0.  1.
         21   -1    0    0  506  502 -0.00000000000E+00 -0.00000000000E+00 -0.31771067555E+03  0.31771067555E+03  0.00000000000E+00 0.  1.
         21    1    1    2  503  505 -0.71645500502E+02 -0.55772484136E+02  0.12909725094E+03  0.15782822285E+03  0.00000000000E+00 0.  1.
         21    1    1    2  504  502 -0.32135408491E+02 -0.38420517554E+02 -0.28752842305E+02  0.57754191092E+02  0.00000000000E+00 0. -1.
         21    1    1    2  505  501 -0.24644470273E+02  0.33013896172E+02  0.32825293817E+02  0.52676058790E+02  0.00000000000E+00 0.  1.
         21    1    1    2  506  503  0.12842537927E+03  0.61179105518E+02 -0.22994378066E+03  0.27038880016E+03  0.00000000000E+00 0.  1.
<scales pt_clust_3="100.25037" pt_clust_4="49.42180" pt_clust_5="41.19790" pt_clust_6="14000.00000"></scales>
<clustering>
<clus scale="   41.198">  1  5  2 -1</clus>
<clus scale="   49.422">  2  4  1 -1</clus>
<clus scale="  100.250">  1  3  2 -1</clus>
<clus scale="   41.198">  1  3  2 -1</clus>
</clustering>
</event>
<event>
 6    0  0.1344929E+003  0.7700442E+02  0.7546771E-02  0.1337774E+00
         21   -1    0    0  506  501  0.00000000000E+00  0.00000000000E+00  0.33591534948E+02  0.33591534948E+02  0.00000000000E+00 0. -1.
         21   -1    0    0  504  502 -0.00000000000E+00 -0.00000000000E+00 -0.67465932964E+03  0.67465932964E+03  0.00000000000E+00 0. -1.
         21    1    1    2  503  502 -0.36191037838E+02 -0.56868893203E+01 -0.27502088712E+03  0.27745021226E+03  0.00000000000E+00 0. -1.
         21    1    1    2  504  505  0.95711556129E+02  0.23422956912E+02 -0.21736857788E+03  0.23865966466E+03  0.00000000000E+00 0. -1.
         21    1    1    2  505  501 -0.49638104175E+02 -0.59040412750E+02 -0.78097227720E+02  0.10976743006E+03  0.00000000000E+00 0. -1.
         21    1    1    2  506  503 -0.98824141158E+01  0.41304345158E+02 -0.70581101971E+02  0.82373557609E+02  0.00000000000E+00 0. -1.
<scales pt_clust_3="36.63512" pt_clust_4="14000.00000" pt_clust_5="77.00442" pt_clust_6="43.59231"></scales>
<clustering>
<clus scale="   36.635">  2  3  1 -1</clus>
<clus scale="   43.592">  1  6  2 -1</clus>
<clus scale="   77.004">  1  5  2 -1</clus>
<clus scale="   43.592">  1  3  2 -1</clus>
</clustering>
</event>
<event>
 6    0  0.1344929E+003  0.3058253E+03  0.7546771E-02  0.1082364E+00
         21   -1    0    0  504  501  0.00000000000E+00  0.00000000000E+00  0.18805261530E+03  0.18805261530E+03  0.00000000000E+00 0. -1.
         21   -1    0    0  503  502 -0.00000000000E+00 -0.00000000000E+00 -0.69416488672E+03  0.69416488672E+03  0.00000000000E+00 0. -1.
         21    1    1    2  503  501 -0.22183771421E+03 -0.20078371174E+03 -0.15192587540E+03  0.33557047242E+03  0.00000000000E+00 0. -1.
         21    1    1    2  504  505 -0.19201969441E+02  0.40852139125E+02 -0.28730966446E+02  0.53507768916E+02  0.00000000000E+00 0.  1.
         21    1    1    2  505  506 -0.40291573468E+02  0.18156018435E+02 -0.62147727366E+01  0.44628189501E+02  0.00000000000E+00 0.  1.
         21    1    1    2  506  502  0.28133125712E+03  0.14177555418E+03 -0.31924065684E+03  0.44851107119E+03  0.00000000000E+00 0. -1.
<scales pt_clust_3="305.82529" pt_clust_4="91.70312" pt_clust_5="36.86341" pt_clust_6="14000.00000"></scales>
<clustering>
<clus scale="   36.863">  4  5 -1 -1</clus>
<clus scale="   91.703">  1  4  2 -1</clus>
<clus scale="  305.825">  1  3  2 -1</clus>
<clus scale="   91.703">  1  3  2 -1</clus>
</clustering>
</event>
<event>
 6    0  0.1344929E+003  0.9742427E+02  0.7546771E-02  0.1285808E+00
         21   -1    0    0  504  501  0.00000000000E+00  0.00000000000E+00  0.95250147399E+03  0.95250147399E+03  0.00000000000E+00 0.  1.
         21   -1    0    0  506  502 -0.00000000000E+00 -0.00000000000E+00 -0.18039980459E+03  0.18039980459E+03  0.00000000000E+00 0. -1.
         21    1    1    2  503  501  0.73725956393E+02  0.93061505462E+02  0.84409177093E+03  0.85240065591E+03  0.00000000000E+00 0.  1.
         21    1    1    2  504  505 -0.34097398999E+02 -0.48046180406E+01  0.42401322949E+02  0.54622240533E+02  0.00000000000E+00 0.  1.
         21    1    1    2  505  502 -0.99422056054E+02 -0.50794567138E+02 -0.10749239132E+03  0.15498208758E+03  0.00000000000E+00 0. -1.
         21    1    1    2  506  503  0.59793498660E+02 -0.37462320282E+02 -0.68990331610E+01  0.70896294554E+02  0.00000000000E+00 0. -1.
<scales pt_clust_3="14000.00000" pt_clust_4="34.43424" pt_clust_5="97.42427" pt_clust_6="69.63175"></scales>
<clustering>
<clus scale="   34.434">  1  4  2 -1</clus>
<clus scale="   69.632">  2  6  1 -1</clus>
<clus scale="   97.424">  2  5  1 -1</clus>
<clus scale="   34.434">  1  3  2 -1</clus>
</clustering>
</event>
<event>
 6    0  0.1344929E+003  0.1041996E+03  0.7546771E-02  0.1271705E+00
         21   -1    0    0  506  501  0.00000000000E+00  0.00000000000E+00  0.73600981093E+03  0.73600981093E+03  0.00000000000E+00 0. -1.
         21   -1    0    0  504  502 -0.00000000000E+00 -0.00000000000E+00 -0.35482135329E+03  0.35482135329E+03  0.00000000000E+00 0. -1.
         21    1    1    2  503  502 -0.37076334394E+02  0.63010481493E+02  0.12204064442E+03  0.14226346769E+03  0.00000000000E+00 0. -1.
         21    1    1    2  504  505 -0.54292773495E+02 -0.19179066476E+02 -0.90333111030E+02  0.10712428666E+03  0.00000000000E+00 0. -1.
         21    1    1    2  505  501  0.97029625983E+02 -0.81430201207E+02 -0.22900788194E+03  0.26170639269E+03  0.00000000000E+00 0. -1.
         21    1    1    2  506  503 -0.56605180949E+01  0.37598786190E+02  0.57848880619E+03  0.57973701716E+03  0.00000000000E+00 0. -1.
<scales pt_clust_3="14000.00000" pt_clust_4="57.23109" pt_clust_5="104.19956" pt_clust_6="38.02250"></scales>
<clustering>
<clus scale="   38.022">  1  6  2 -1</clus>
<clus scale="   57.231">  2  4  1 -1</clus>
<clus scale="  104.200">  2  5  1 -1</clus>
<clus scale="   38.022">  1  3  2 -1</clus>
</clustering>
</event>
<event>
 6    0  0.1344929E+003  0.3405600E+03  0.7546771E-02  0.1066558E+00
         21   -1    0    0  506  501  0.00000000000E+00  0.00000000000E+00  0.36040650870E+03  0.36040650870E+03  0.00000000000E+00 0.  1.
         21   -1    0    0  505  502 -0.00000000000E+00 -0.00000000000E+00 -0.69471034809E+03  0.69471034809E+03  0.00000000000E+00 0. -1.
         21    1    1    2  503  502 -0.10025982268E+03  0.20928915077E+03  0.12514203780E+03  0.26365604544E+03  0.00000000000E+00 0.  1.
         21    1    1    2  504  501  0.14341095816E+03 -0.27422805966E+03 -0.52146556876E+03  0.60637782861E+03  0.00000000000E+00 0. -1.
         21    1    1    2  505  504  0.35248793452E+02 -0.14469444126E+02 -0.23256620321E+02  0.44639810057E+02  0.00000000000E+00 0. -1.
         21    1    1    2  506  503 -0.78399928933E+02  0.79408353016E+02  0.85276311885E+02  0.14044317269E+03  0.00000000000E+00 0. -1.
<scales pt_clust_3="42.48252" pt_clust_4="335.00207" pt_clust_5="38.10305" pt_clust_6="42.48252"></scales>
<clustering>
<clus scale="   38.103">  2  5  1 -1</clus>
<clus scale="   42.483">  3  6 -1 -1</clus>
<clus scale="  335.002">  2  4  1 -1</clus>
<clus scale="  340.560">  1  3  2 -1</clus>
</clustering>
</event>
<event>
 6    0  0.1344929E+003  0.7540482E+02  0.7546771E-02  0.1342622E+00
         21   -1    0    0  506  501  0.00000000000E+00  0.00000000000E+00  0.21221653511E+04  0.21221653511E+04  0.00000000000E+00 0. -1.
         21   -1    0    0  503  502 -0.00000000000E+00 -0.00000000000E+00 -0.31166804345E+04  0.31166804345E+04  0.00000000000E+00 0.  1.
         21    1    1    2  503  504  0.56382833871E+02  0.40673492309E+02 -0.17646564050E+04  0.17660253636E+04  0.00000000000E+00 0.  1.
         21    1    1    2  504  505 -0.37722273384E+00 -0.55303368943E+02  0.23048438971E+02  0.59915235562E+02  0.00000000000E+00 0.  1.
         21    1    1    2  505  501  0.33616192250E+02 -0.14431018984E+02  0.20781729543E+04  0.20784949195E+04  0.00000000000E+00 0. -1.
         21    1    1    2  506  502 -0.89621803386E+02  0.29060895619E+02 -0.13310800716E+04  0.13344102669E+04  0.00000000000E+00 0.  1.
<scales pt_clust_3="69.81796" pt_clust_4="14000.00000" pt_clust_5="36.58282" pt_clust_6="75.40482"></scales>
<clustering>
<clus scale="   36.583">  1  5  2 -1</clus>
<clus scale="   69.818">  2  3  1 -1</clus>
<clus scale="   75.405">  2  6  1 -1</clus>
<clus scale="   36.583">  1  3  2 -1</clus>
</clustering>
</event>
<event>
 6    0  0.1344929E+003  0.1039352E+03  0.7546771E-02  0.1272232E+00
         21   -1    0    0  505  501  0.00000000000E+00  0.00000000000E+00  0.38281201259E+03  0.38281201259E+03  0.00000000000E+00 0.  1.
         21   -1    0    0  504  502 -0.00000000000E+00 -0.00000000000E+00 -0.38966726973E+03  0.38966726973E+03  0.00000000000E+00 0. -1.
         21    1    1    2  503  502 -0.10084585415E+03  0.18338522934E+02 -0.32403362625E+03  0.33985876282E+03  0.00000000000E+00 0. -1.
         21    1    1    2  504  506 -0.27717457379E+02 -0.46609145153E+02  0.39295635962E+01  0.54370132660E+02  0.00000000000E+00 0.  1.
         21    1    1    2  505  503  0.16177211043E+03  0.51233635800E+02  0.23102888615E+03  0.28665213654E+03  0.00000000000E+00 0.  1.
         21    1    1    2  506  501 -0.33208798900E+02 -0.22963013581E+02  0.82219919367E+02  0.91598250299E+02  0.00000000000E+00 0.  1.
<scales pt_clust_3="14000.00000" pt_clust_4="57.86807" pt_clust_5="103.93520" pt_clust_6="40.37480"></scales>
<clustering>
<clus scale="   40.375">  1  6  2 -1</clus>
<clus scale="   57.868">  1  4  2 -1</clus>
<clus scale="  103.935">  1  5  2 -1</clus>
<clus scale="   40.375">  1  3  2 -1</clus>
</clustering>
</event>
<event>
 6    0  0.1344929E+003  0.1065010E+03  0.7546771E-02  0.1267190E+00
         21   -1    0    0  505  501  0.00000000000E+00  0.00000000000E+00  0.12757372242E+04  0.12757372242E+04  0.00000000000E+00 0.  1.
         21   -1    0    0  503  502 -0.00000000000E+00 -0.00000000000E+00 -0.31097731859E+03  0.31097731859E+03  0.00000000000E+00 0.  1.
         21    1    1    2  503  506 -0.70948518130E+02 -0.15241886355E+02 -0.12253810780E+03  0.14241346561E+03  0.00000000000E+00 0.  1.
         21    1    1    2  504  501 -0.36477375101E+02 -0.89435847112E+01  0.11228904528E+04  0.11235183824E+04  0.00000000000E+00 0.  1.
         21    1    1    2  505  502  0.78663966600E+02 -0.91171681241E+02 -0.12383125661E+03  0.17272659094E+03  0.00000000000E+00 0.  1.
         21    1    1    2  506  504  0.28761926631E+02  0.11535715231E+03  0.88238817174E+02  0.14805610379E+03  0.00000000000E+00 0. -1.
<scales pt_clust_3="75.01321" pt_clust_4="37.55778" pt_clust_5="106.50101" pt_clust_6="14000.00000"></scales>
<clustering>
<clus scale="   37.558">  1  4  2 -1</clus>
<clus scale="   75.013">  2  3  1 -1</clus>
<clus scale="  106.501">  2  5  1 -1</clus>
<clus scale="   37.558">  1  3  2 -1</clus>
</clustering>
</event>
<event>
 6    0  0.1344929E+003  0.1073225E+03  0.7546771E-02  0.1265610E+00
         21   -1    0    0  506  501  0.00000000000E+00  0.00000000000E+00  0.72407488203E+03  0.72407488203E+03  0.00000000000E+00 0.  1.
         21   -1    0    0  504  502 -0.00000000000E+00 -0.00000000000E+00 -0.76569855446E+02  0.76569855446E+02  0.00000000000E+00 0.  1.
         21    1    1    2  503  505  0.79233807135E+02  0.54573863258E+02  0.66309862152E+02  0.11684733871E+03  0.00000000000E+00 0.  1.
         21    1    1    2  504  501 -0.12214952829E+03  0.30100716122E+02  0.24715923869E+03  0.27733418405E+03  0.00000000000E+00 0.  1.
         21    1    1    2  505  502  0.48065033931E+02 -0.39358844515E+02 -0.68859584188E+01  0.62504260268E+02  0.00000000000E+00 0. -1.
         21    1    1    2  506  503 -0.51493127793E+01 -0.45315734865E+02  0.34092188416E+03  0.34395895445E+03  0.00000000000E+00 0.  1.
<scales pt_clust_3="14000.00000" pt_clust_4="107.32255" pt_clust_5="63.98651" pt_clust_6="45.60736"></scales>
<clustering>
<clus scale="   45.607">  1  6  2 -1</clus>
<clus scale="   63.987">  2  5  1 -1</clus>
<clus scale="  107.323">  1  4  2 -1</clus>
<clus scale="   45.607">  1  3  2 -1</clus>
</clustering>
</event>
<event>
 6    0  0.1344929E+003  0.8244455E+02  0.7546771E-02  0.1322254E+00
         21   -1    0    0  504  501  0.00000000000E+00  0.00000000000E+00  0.15642165319E+02  0.15642165319E+02  0.00000000000E+00 0.  1.
         21   -1    0    0  505  502 -0.00000000000E+00 -0.00000000000E+00 -0.19366083061E+04  0.19366083061E+04  0.00000000000E+00 0. -1.
         21    1    1    2  503  501  0.17283446458E+02  0.10018550571E+03 -0.34007319071E+03  0.35494454231E+03  0.00000000000E+00 0.  1.
         21    1    1    2  504  506  0.21225309655E+02 -0.29047924012E+02 -0.54584443691E+02  0.65373979170E+02  0.00000000000E+00 0. -1.
         21    1    1    2  505  503 -0.65866857229E+02 -0.43172187947E+02 -0.12904460874E+04  0.12928470077E+04  0.00000000000E+00 0. -1.
         21    1    1    2  506  502  0.27358101116E+02 -0.27965393749E+02 -0.23586241896E+03  0.23908494227E+03  0.00000000000E+00 0. -1.
<scales pt_clust_3="14000.00000" pt_clust_4="35.97632" pt_clust_5="82.44455" pt_clust_6="44.72801"></scales>
<clustering>
<clus scale="   35.976">  1  4  2 -1</clus>
<clus scale="   44.728">  2  6  1 -1</clus>
<clus scale="   82.445">  2  5  1 -1</clus>
<clus scale="   35.976">  1  3  2 -1</clus>
</clustering>
</event>
<event>
 6    0  0.1344929E+003  0.8392498E+02  0.7546771E-02  0.1318268E+00
         21   -1    0    0  504  501  0.00000000000E+00  0.00000000000E+00  0.12117217473E+04  0.12117217473E+04  0.00000000000E+00 0.  1.
         21   -1    0    0  503  502 -0.00000000000E+00 -0.00000000000E+00 -0.28503296439E+03  0.28503296439E+03  0.00000000000E+00 0. -1.
         21    1    1    2  503  506  0.40097620632E+02  0.10259781742E+03 -0.24421490981E+03  0.26790866633E+03  0.00000000000E+00 0. -1.
         21    1    1    2  504  505 -0.54354976101E+02 -0.63087339753E+01  0.10690488453E+04  0.10704483627E+04  0.00000000000E+00 0.  1.
         21    1    1    2  505  502  0.27045224909E+02 -0.50047532493E+02  0.14454946435E+02  0.58695359062E+02  0.00000000000E+00 0. -1.
         21    1    1    2  506  501 -0.12787869440E+02 -0.46241550951E+02  0.87399900959E+02  0.99702323578E+02  0.00000000000E+00 0. -1.
<scales pt_clust_3="83.92498" pt_clust_4="14000.00000" pt_clust_5="58.02961" pt_clust_6="47.97719"></scales>
<clustering>
<clus scale="   47.977">  1  6  2 -1</clus>
<clus scale="   58.030">  2  5  1 -1</clus>
<clus scale="   83.925">  2  3  1 -1</clus>
<clus scale="   47.977">  1  3  2 -1</clus>
</clustering>
</event>
<event>
 6    0  0.1344929E+003  0.1249144E+03  0.7546771E-02  0.1235203E+00
         21   -1    0    0  504  501  0.00000000000E+00  0.00000000000E+00  0.48959640517E+02  0.48959640517E+02  0.00000000000E+00 0. -1.
         21   -1    0    0  503  502 -0.00000000000E+00 -0.00000000000E+00 -0.39191368015E+04  0.39191368015E+04  0.00000000000E+00 0. -1.
         21    1    1    2  503  501  0.16497848315E+02 -0.25211951860E+02 -0.12705059605E+03  0.13057440589E+03  0.00000000000E+00 0.  1.
         21    1    1    2  504  506  0.48144839706E+02 -0.10507262113E+03 -0.47416544224E+02  0.12492601797E+03  0.00000000000E+00 0. -1.
         21    1    1    2  505  502  0.13489371918E+02  0.53402397952E+02 -0.33383053613E+04  0.33387597195E+04  0.00000000000E+00 0. -1.
         21    1    1    2  506  505 -0.78132059939E+02  0.76882175035E+02 -0.35740465942E+03  0.37383629867E+03  0.00000000000E+00 0. -1.
<scales pt_clust_3="30.13008" pt_clust_4="14000.00000" pt_clust_5="54.98165" pt_clust_6="124.91444"></scales>
<clustering>
<clus scale="   30.130">  1  3  2 -1</clus>
<clus scale="   54.982">  2  5  1 -1</clus>
<clus scale="  124.914">  2  6  1 -1</clus>
<clus scale="   30.130">  1  3  2 -1</clus>
</clustering>
</event>
<event>
 6    0  0.1344929E+003  0.1022935E+03  0.7546771E-02  0.1275546E+00
         21   -1    0    0  503  501  0.00000000000E+00  0.00000000000E+00  0.63257545658E+03  0.63257545658E+03  0.00000000000E+00 0. -1.
         21   -1    0    0  505  502 -0.00000000000E+00 -0.00000000000E+00 -0.12489115038E+03  0.12489115038E+03  0.00000000000E+00 0. -1.
         21    1    1    2  503  504 -0.26883120161E+02  0.31310885837E+02  0.21201815034E+03  0.21599715228E+03  0.00000000000E+00 0.  1.
         21    1    1    2  504  506 -0.98185123213E+02  0.72267940002E+01  0.27947150976E+02  0.10234055022E+03  0.00000000000E+00 0. -1.
         21    1    1    2  505  501  0.11595938171E+03  0.22745644520E+02  0.33046001470E+03  0.35095265189E+03  0.00000000000E+00 0. -1.
         21    1    1    2  506  502  0.91088616694E+01 -0.61283324357E+02 -0.62741009808E+02  0.88176252568E+02  0.00000000000E+00 0. -1.
<scales pt_clust_3="41.26831" pt_clust_4="14000.00000" pt_clust_5="102.29348" pt_clust_6="60.89915"></scales>
<clustering>
<clus scale="   41.268">  1  3  2 -1</clus>
<clus scale="   60.899">  2  6  1 -1</clus>
<clus scale="  102.293">  1  5  2 -1</clus>
<clus scale="   41.268">  1  3  2 -1</clus>
</clustering>
</event>
<event>
 6    0  0.1344929E+003  0.8069583E+02  0.7546771E-02  0.1327088E+00
         21   -1    0    0  506  501  0.00000000000E+00  0.00000000000E+00  0.36228813153E+02  0.36228813153E+02  0.00000000000E+00 0.  1.
         21   -1    0    0  505  502 -0.00000000000E+00 -0.00000000000E+00 -0.16770043976E+04  0.16770043976E+04  0.00000000000E+00 0. -1.
         21    1    1    2  503  504 -0.10869296466E+02 -0.55478409546E+02 -0.33137222949E+03  0.33616000656E+03  0.00000000000E+00 0. -1.
         21    1    1    2  504  501  0.67692038073E+02  0.13597480682E+02 -0.10068807717E+03  0.12208682314E+03  0.00000000000E+00 0.  1.
         21    1    1    2  505  503  0.24884225816E+00 -0.44134618512E+02 -0.11140515503E+04  0.11149254608E+04  0.00000000000E+00 0. -1.
         21    1    1    2  506  502 -0.57071583865E+02  0.86015547376E+02 -0.94663727494E+02  0.14006092024E+03  0.00000000000E+00 0.  1.
<scales pt_clust_3="14000.00000" pt_clust_4="67.91529" pt_clust_5="44.13532" pt_clust_6="80.69583"></scales>
<clustering>
<clus scale="   44.135">  2  5  1 -1</clus>
<clus scale="   67.915">  1  4  2 -1</clus>
<clus scale="   80.696">  1  6  2 -1</clus>
<clus scale="   67.915">  1  3  2 -1</clus>
</clustering>
</event>
<event>
 6    0  0.1344929E+003  0.1185711E+03  0.7546771E-02  0.1245473E+00
         21   -1    0    0  506  501  0.00000000000E+00  0.00000000000E+00  0.11420958055E+03  0.11420958055E+03  0.00000000000E+00 0. -1.
         21   -1    0    0  504  502 -0.00000000000E+00 -0.00000000000E+00 -0.18344066569E+03  0.18344066569E+03  0.00000000000E+00 0. -1.
         21    1    1    2  503  501  0.28052189714E+02  0.18946192293E+02  0.92719324653E+01  0.35097753230E+02  0.00000000000E+00 0.  1.
         21    1    1    2  504  505  0.49894091934E+02 -0.64226758611E+01 -0.71500730527E+02  0.87424399575E+02  0.00000000000E+00 0. -1.
         21    1    1    2  505  503  0.46331162662E+02 -0.18380371051E+02 -0.92373848973E+01  0.50692642004E+02  0.00000000000E+00 0. -1.
         21    1    1    2  506  502 -0.12427744431E+03  0.58568546190E+01  0.22350978180E+01  0.12443545143E+03  0.00000000000E+00 0. -1.
<scales pt_clust_3="33.85090" pt_clust_4="50.85527" pt_clust_5="50.85527" pt_clust_6="106.65802"></scales>
<clustering>
<clus scale="   33.851">  1  3  2 -1</clus>
<clus scale="   50.855">  4  5 -1 -1</clus>
<clus scale="  106.658">  1  6  2 -1</clus>
<clus scale="   33.851">  1  3  2 -1</clus>
</clustering>
</event>
<event>
 6    0  0.1344929E+003  0.1934093E+03  0.7546771E-02  0.1155422E+00
         21   -1    0    0  503  501  0.00000000000E+00  0.00000000000E+00  0.16263426862E+03  0.16263426862E+03  0.00000000000E+00 0. -1.
         21   -1    0    0  501  502 -0.00000000000E+00 -0.00000000000E+00 -0.16796831694E+04  0.16796831694E+04  0.00000000000E+00 0. -1.
         21    1    1    2  503  505  0.38538902401E+02 -0.27603228718E+02  0.40427566007E+02  0.62302273853E+02  0.00000000000E+00 0. -1.
         21    1    1    2  504  502  0.21413040371E+02  0.41196235626E+02 -0.13208988715E+04  0.13217145974E+04  0.00000000000E+00 0. -1.
         21    1    1    2  505  506 -0.20954757959E+03 -0.83728425308E+02 -0.11573996876E+03  0.25360673825E+03  0.00000000000E+00 0. -1.
         21    1    1    2  506  504  0.14959563681E+03  0.70135418401E+02 -0.12083762653E+03  0.20469382856E+03  0.00000000000E+00 0. -1.
<scales pt_clust_3="47.22451" pt_clust_4="46.42896" pt_clust_5="14000.00000" pt_clust_6="193.40934"></scales>
<clustering>
<clus scale="   46.429">  2  4  1 -1</clus>
<clus scale="   47.225">  1  3  2 -1</clus>
<clus scale="  193.409">  2  6  1 -1</clus>
<clus scale="   47.225">  1  3  2 -1</clus>
</clustering>
</event>
<event>
 6    0  0.1344929E+003  0.6863111E+02  0.7546771E-02  0.1364811E+00
         21   -1    0    0  504  501  0.00000000000E+00  0.00000000000E+00  0.21470359617E+04  0.21470359617E+04  0.00000000000E+00 0. -1.
         21   -1    0    0  503  502 -0.00000000000E+00 -0.00000000000E+00 -0.24349481547E+03  0.24349481547E+03  0.00000000000E+00 0. -1.
         21    1    1    2  503  505  0.46329898797E+02  0.63745938106E+01 -0.10736724489E+03  0.11711029094E+03  0.00000000000E+00 0. -1.
         21    1    1    2  504  502  0.18459898526E+02  0.49793633958E+02  0.14376365739E+03  0.15325848434E+03  0.00000000000E+00 0.  1.
         21    1    1    2  505  506 -0.11255941910E+03 -0.16595575981E+02 -0.10033925825E+03  0.15170037151E+03  0.00000000000E+00 0. -1.
         21    1    1    2  506  501  0.47769621778E+02 -0.39572651787E+02  0.19674839920E+04  0.19684616304E+04  0.00000000000E+00 0. -1.
<scales pt_clust_3="46.76639" pt_clust_4="53.92461" pt_clust_5="68.63111" pt_clust_6="14000.00000"></scales>
<clustering>
<clus scale="   46.766">  2  3  1 -1</clus>
<clus scale="   53.925">  1  4  2 -1</clus>
<clus scale="   68.631">  2  5  1 -1</clus>
<clus scale="   53.925">  1  3  2 -1</clus>
</clustering>
</event>
<event>
 6    0  0.1344929E+003  0.8143822E+02  0.7546771E-02  0.1325019E+00
         21   -1    0    0  504  501  0.00000000000E+00  0.00000000000E+00  0.75272276616E+02  0.75272276616E+02  0.00000000000E+00 0. -1.
         21   -1    0    0  505  502 -0.00000000000E+00 -0.00000000000E+00 -0.48596266938E+03  0.48596266938E+03  0.00000000000E+00 0. -1.
         21    1    1    2  503  501  0.84305132925E+02 -0.41457878503E+02  0.48157878950E+01  0.94070733709E+02  0.00000000000E+00 0. -1.
         21    1    1    2  504  502 -0.53275592320E+02  0.17589983993E+02 -0.27324809065E+03  0.27894840978E+03  0.00000000000E+00 0. -1.
         21    1    1    2  505  506  0.36882002498E+02  0.21430364983E+02 -0.98635649367E+02  0.10746410553E+03  0.00000000000E+00 0.  1.
         21    1    1    2  506  503 -0.67911543102E+02  0.24375295262E+01 -0.43622440636E+02  0.80751696971E+02  0.00000000000E+00 0. -1.
<scales pt_clust_3="81.43822" pt_clust_4="42.47020" pt_clust_5="42.65610" pt_clust_6="14000.00000"></scales>
<clustering>
<clus scale="   42.656">  2  5  1 -1</clus>
<clus scale="   42.470">  2  4  1 -1</clus>
<clus scale="   81.438">  1  3  2 -1</clus>
<clus scale="   81.438">  1  3  2 -1</clus>
</clustering>
</event>
<event>
 6    0  0.1344929E+003  0.1796131E+03  0.7546771E-02  0.1168178E+00
         21   -1    0    0  505  501  0.00000000000E+00  0.00000000000E+00  0.21048692071E+04  0.21048692071E+04  0.00000000000E+00 0. -1.
         21   -1    0    0  506  502 -0.00000000000E+00 -0.00000000000E+00 -0.77821765216E+02  0.77821765216E+02  0.00000000000E+00 0. -1.
         21    1    1    2  503  501 -0.14355406673E+03 -0.37472321391E+02  0.45798355889E+03  0.48141550158E+03  0.00000000000E+00 0. -1.
         21    1    1    2  504  503 -0.44989009490E+02  0.27915204452E+02  0.33385867420E+02  0.62593016846E+02  0.00000000000E+00 0. -1.
         21    1    1    2  505  502  0.19917027568E+03 -0.23153408570E+02  0.15742703308E+04  0.15869883281E+04  0.00000000000E+00 0. -1.
         21    1    1    2  506  504 -0.10627199457E+02  0.32710525508E+02 -0.38592315233E+02  0.51694125801E+02  0.00000000000E+00 0. -1.
<scales pt_clust_3="14000.00000" pt_clust_4="65.44422" pt_clust_5="179.61307" pt_clust_6="34.39354"></scales>
<clustering>
<clus scale="   34.394">  2  6  1 -1</clus>
<clus scale="   65.444">  2  4  1 -1</clus>
<clus scale="  179.613">  1  5  2 -1</clus>
<clus scale="  179.613">  1  3  2 -1</clus>
</clustering>
</event>
<event>
 6    0  0.1344929E+003  0.7639858E+02  0.7546771E-02  0.1339594E+00
         21   -1    0    0  506  501  0.00000000000E+00  0.00000000000E+00  0.47651007745E+02  0.47651007745E+02  0.00000000000E+00 0.  1.
         21   -1    0    0  504  502 -0.00000000000E+00 -0.00000000000E+00 -0.72685885466E+03  0.72685885466E+03  0.00000000000E+00 0.  1.
         21    1    1    2  503  505 -0.17595220909E+02 -0.44452952970E+02 -0.50564563534E+02  0.69587584468E+02  0.00000000000E+00 0.  1.
         21    1    1    2  504  501 -0.41384903447E+02 -0.13439110473E+02 -0.14055456157E+03  0.14713566767E+03  0.00000000000E+00 0.  1.
         21    1    1    2  505  502  0.54571901259E+02  0.10249481275E+03 -0.49843997594E+03  0.51178676093E+03  0.00000000000E+00 0.  1.
         21    1    1    2  506  503  0.44082230976E+01 -0.44602749308E+02  0.10351254129E+02  0.45999849334E+02  0.00000000000E+00 0.  1.
<scales pt_clust_3="76.39858" pt_clust_4="43.51230" pt_clust_5="14000.00000" pt_clust_6="45.12321"></scales>
<clustering>
<clus scale="   43.512">  2  4  1 -1</clus>
<clus scale="   45.123">  1  6  2 -1</clus>
<clus scale="   76.399">  1  3  2 -1</clus>
<clus scale="   45.123">  1  3  2 -1</clus>
</clustering>
</event>
<event>
 6    0  0.1344929E+003  0.7582845E+02  0.7546771E-02  0.1341325E+00
         21   -1    0    0  503  501  0.00000000000E+00  0.00000000000E+00  0.17914026716E+03  0.17914026716E+03  0.00000000000E+00 0.  1.
         21   -1    0    0  505  502 -0.00000000000E+00 -0.00000000000E+00 -0.24901336067E+03  0.24901336067E+03  0.00000000000E+00 0. -1.
         21    1    1    2  503  502  0.24327063026E+02  0.43756317018E+02  0.39546124368E+02  0.63799037822E+02  0.00000000000E+00 0. -1.
         21    1    1    2  504  506 -0.23508356451E+02 -0.70507799913E+02 -0.30591826161E+02  0.80373207597E+02  0.00000000000E+00 0. -1.
         21    1    1    2  505  504  0.51507375664E+02  0.58489762327E+02 -0.16255464326E+03  0.18027222218E+03  0.00000000000E+00 0. -1.
         21    1    1    2  506  501 -0.52326082238E+02 -0.31738279432E+02  0.83727251549E+02  0.10370916023E+03  0.00000000000E+00 0.  1.
<scales pt_clust_3="50.06417" pt_clust_4="14000.00000" pt_clust_5="75.82845" pt_clust_6="34.44279"></scales>
<clustering>
<clus scale="   50.064">  1  3  2 -1</clus>
<clus scale="   34.443">  1  6  2 -1</clus>
<clus scale="   75.828">  2  5  1 -1</clus>
<clus scale="   50.064">  1  3  2 -1</clus>
</clustering>
</event>
<event>
 6    0  0.1344929E+003  0.1052778E+03  0.7546771E-02  0.1269573E+00
         21   -1    0    0  504  501  0.00000000000E+00  0.00000000000E+00  0.35110508462E+02  0.35110508462E+02  0.00000000000E+00 0.  1.
         21   -1    0    0  503  502 -0.00000000000E+00 -0.00000000000E+00 -0.30620345553E+04  0.30620345553E+04  0.00000000000E+00 0. -1.
         21    1    1    2  503  506 -0.34141639410E+02 -0.12002283559E+02 -0.14828780667E+04  0.14833196105E+04  0.00000000000E+00 0. -1.
         21    1    1    2  504  502  0.43961726506E+02  0.10522495748E+03 -0.93220023104E+03  0.93914971960E+03  0.00000000000E+00 0. -1.
         21    1    1    2  505  501  0.33261040132E+02  0.29324275233E+01  0.16718412846E+02  0.37341682473E+02  0.00000000000E+00 0.  1.
         21    1    1    2  506  505 -0.43081127228E+02 -0.96155101444E+02 -0.62856416199E+03  0.63733405118E+03  0.00000000000E+00 0. -1.
<scales pt_clust_3="35.30670" pt_clust_4="105.27783" pt_clust_5="33.39006" pt_clust_6="14000.00000"></scales>
<clustering>
<clus scale="   33.390">  1  5  2 -1</clus>
<clus scale="   35.307">  2  3  1 -1</clus>
<clus scale="  105.278">  2  4  1 -1</clus>
<clus scale="   33.390">  1  3  2 -1</clus>
</clustering>
</event>
<event>
 6    0  0.1344929E+003  0.6442710E+02  0.7546771E-02  0.1380140E+00
         21   -1    0    0  504  501  0.00000000000E+00  0.00000000000E+00  0.61245219954E+03  0.61245219954E+03  0.00000000000E+00 0. -1.
         21   -1    0    0  506  502 -0.00000000000E+00 -0.00000000000E+00 -0.30973882277E+03  0.30973882277E+03  0.00000000000E+00 0. -1.
         21    1    1    2  503  501  0.51856865447E+02  0.18594395071E+02  0.22426485171E+03  0.23093204570E+03  0.00000000000E+00 0. -1.
         21    1    1    2  504  502 -0.89784083539E+02 -0.71410264354E+02  0.36717159434E+03  0.38467595091E+03  0.00000000000E+00 0. -1.
         21    1    1    2  505  503  0.48558360980E+02  0.18071034702E+02 -0.84250231091E+02  0.98906916619E+02  0.00000000000E+00 0. -1.
         21    1    1    2  506  505 -0.10631142888E+02  0.34744834582E+02 -0.20447283818E+03  0.20767610908E+03  0.00000000000E+00 0. -1.
<scales pt_clust_3="55.15746" pt_clust_4="14000.00000" pt_clust_5="64.42710" pt_clust_6="36.33490"></scales>
<clustering>
<clus scale="   36.335">  2  6  1 -1</clus>
<clus scale="   55.157">  1  3  2 -1</clus>
<clus scale="   64.427">  2  5  1 -1</clus>
<clus scale="   55.157">  1  3  2 -1</clus>
</clustering>
</event>
<event>
 6    0  0.1344929E+003  0.1261383E+03  0.7546771E-02  0.1233301E+00
         21   -1    0    0  504  501  0.00000000000E+00  0.00000000000E+00  0.49628048729E+02  0.49628048729E+02  0.00000000000E+00 0.  1.
         21   -1    0    0  505  502 -0.00000000000E+00 -0.00000000000E+00 -0.12263655496E+04  0.12263655496E+04  0.00000000000E+00 0.  1.
         21    1    1    2  503  501 -0.38390869939E+02 -0.83358668436E+01 -0.33606395176E+01  0.39428916656E+02  0.00000000000E+00 0.  1.
         21    1    1    2  504  506 -0.11315891889E+03 -0.29908108478E+02 -0.38077095178E+03  0.39835405558E+03  0.00000000000E+00 0.  1.
         21    1    1    2  505  503  0.13720036235E+03  0.68502179411E+02 -0.24141248266E+03  0.28600083007E+03  0.00000000000E+00 0.  1.
         21    1    1    2  506  502  0.14349426478E+02 -0.30258204089E+02 -0.55119342696E+03  0.55220979607E+03  0.00000000000E+00 0.  1.
<scales pt_clust_3="39.05805" pt_clust_4="126.13832" pt_clust_5="14000.00000" pt_clust_6="33.48828"></scales>
<clustering>
<clus scale="   33.488">  2  6  1 -1</clus>
<clus scale="   39.058">  1  3  2 -1</clus>
<clus scale="  126.138">  2  4  1 -1</clus>
<clus scale="   39.058">  1  3  2 -1</clus>
</clustering>
</event>
<event>
 6    0  0.1344929E+003  0.2720560E+03  0.7546771E-02  0.1100109E+00
         21   -1    0    0  503  501  0.00000000000E+00  0.00000000000E+00  0.26605740784E+04  0.26605740784E+04  0.00000000000E+00 0. -1.
         21   -1    0    0  504  502 -0.00000000000E+00 -0.00000000000E+00 -0.16985980190E+03  0.16985980190E+03  0.00000000000E+00 0.  1.
         21    1    1    2  503  505  0.20904669047E+02 -0.36258113214E+02  0.52505935885E+03  0.52672477280E+03  0.00000000000E+00 0. -1.
         21    1    1    2  504  506 -0.10622088779E+03 -0.96896865378E+01 -0.64258962643E+02  0.12452301518E+03  0.00000000000E+00 0.  1.
         21    1    1    2  505  502  0.23330871120E+03  0.76685531070E+02  0.20120506430E+04  0.20269833289E+04  0.00000000000E+00 0. -1.
         21    1    1    2  506  501 -0.14799249245E+03 -0.30737731318E+02  0.17863237228E+02  0.15220276342E+03  0.00000000000E+00 0.  1.
<scales pt_clust_3="41.85279" pt_clust_4="75.95132" pt_clust_5="256.60997" pt_clust_6="75.95132"></scales>
<clustering>
<clus scale="   41.853">  1  3  2 -1</clus>
<clus scale="   75.951">  4  6 -1 -1</clus>
<clus scale="  256.610">  1  5  2 -1</clus>
<clus scale="   41.853">  1  3  2 -1</clus>
</clustering>
</event>
<event>
 6    0  0.1344929E+003  0.1026019E+03  0.7546771E-02  0.1274918E+00
         21   -1    0    0  505  501  0.00000000000E+00  0.00000000000E+00  0.94857989090E+03  0.94857989090E+03  0.00000000000E+00 0. -1.
         21   -1    0    0  504  502 -0.00000000000E+00 -0.00000000000E+00 -0.37335648769E+03  0.37335648769E+03  0.00000000000E+00 0.  1.
         21    1    1    2  503  501 -0.38485117227E+01  0.84773828433E+02  0.60036370177E+03  0.60633158208E+03  0.00000000000E+00 0. -1.
         21    1    1    2  504  503 -0.58307918177E+01 -0.13215411174E+03 -0.77362758951E+02  0.15324393578E+03  0.00000000000E+00 0. -1.
         21    1    1    2  505  506  0.42307844305E+02  0.10713306719E+02  0.30335422016E+03  0.30647758731E+03  0.00000000000E+00 0. -1.
         21    1    1    2  506  502 -0.32628540764E+02  0.36666976583E+02 -0.25113175978E+03  0.25588327341E+03  0.00000000000E+00 0.  1.
<scales pt_clust_3="14000.00000" pt_clust_4="102.60195" pt_clust_5="43.64320" pt_clust_6="49.00841"></scales>
<clustering>
<clus scale="   43.643">  1  5  2 -1</clus>
<clus scale="   49.008">  2  6  1 -1</clus>
<clus scale="  102.602">  2  4  1 -1</clus>
<clus scale="   43.643">  1  3  2 -1</clus>
</clustering>
</event>
<event>
 6    0  0.1344929E+003  0.8200572E+02  0.7546771E-02  0.1323454E+00
         21   -1    0    0  506  501  0.00000000000E+00  0.00000000000E+00  0.32296566315E+03  0.32296566315E+03  0.00000000000E+00 0. -1.
         21   -1    0    0  505  502 -0.00000000000E+00 -0.00000000000E+00 -0.22793571246E+03  0.22793571246E+03  0.00000000000E+00 0.  1.
         21    1    1    2  503  501  0.12520581244E+03 -0.69201709443E+01  0.20053415645E+03  0.23651285829E+03  0.00000000000E+00 0. -1.
         21    1    1    2  504  502 -0.71977288806E+02 -0.79586634627E+02 -0.14967274633E+03  0.18416485417E+03  0.00000000000E+00 0.  1.
         21    1    1    2  505  503  0.94575826461E+01  0.42747407999E+02  0.42681728593E+01  0.43988681040E+02  0.00000000000E+00 0. -1.
         21    1    1    2  506  504 -0.62686106283E+02  0.43759397573E+02  0.39900367708E+02  0.86234982113E+02  0.00000000000E+00 0. -1.
<scales pt_clust_3="14000.00000" pt_clust_4="82.00572" pt_clust_5="43.78112" pt_clust_6="78.43931"></scales>
<clustering>
<clus scale="   43.781">  2  5  1 -1</clus>
<clus scale="   78.439">  1  6  2 -1</clus>
<clus scale="   82.006">  2  4  1 -1</clus>
<clus scale="   78.439">  1  3  2 -1</clus>
</clustering>
</event>
<event>
 6    0  0.1344929E+003  0.1219496E+03  0.7546771E-02  0.1239915E+00
         21   -1    0    0  504  501  0.00000000000E+00  0.00000000000E+00  0.46712864688E+03  0.46712864688E+03  0.00000000000E+00 0. -1.
         21   -1    0    0  505  502 -0.00000000000E+00 -0.00000000000E+00 -0.28245135037E+03  0.28245135037E+03  0.00000000000E+00 0. -1.
         21    1    1    2  503  502 -0.48186681333E+02  0.11740323157E+02  0.14386748884E+02  0.51640778355E+02  0.00000000000E+00 0. -1.
         21    1    1    2  504  503 -0.67514332433E+01  0.42974931589E+02  0.14796834509E+02  0.45949677990E+02  0.00000000000E+00 0. -1.
         21    1    1    2  505  506  0.69270688330E+01 -0.12400078074E+03 -0.22784366226E+03  0.25949356897E+03  0.00000000000E+00 0. -1.
         21    1    1    2  506  501  0.48011045743E+02  0.69285525996E+02  0.38333737538E+03  0.39249597194E+03  0.00000000000E+00 0. -1.
<scales pt_clust_3="50.95156" pt_clust_4="43.50203" pt_clust_5="14000.00000" pt_clust_6="121.94965"></scales>
<clustering>
<clus scale="   43.502">  1  4  2 -1</clus>
<clus scale="   50.952">  1  3  2 -1</clus>
<clus scale="  121.950">  1  6  2 -1</clus>
<clus scale="   43.502">  1  3  2 -1</clus>
</clustering>
</event>
<event>
 6    0  0.1344929E+003  0.1110678E+03  0.7546771E-02  0.1258605E+00
         21   -1    0    0  505  501  0.00000000000E+00  0.00000000000E+00  0.23887655583E+03  0.23887655583E+03  0.00000000000E+00 0. -1.
         21   -1    0    0  504  502 -0.00000000000E+00 -0.00000000000E+00 -0.19456330543E+03  0.19456330543E+03  0.00000000000E+00 0. -1.
         21    1    1    2  503  501  0.98470796918E+02  0.26357029929E+01  0.10749466993E+03  0.14580311670E+03  0.00000000000E+00 0. -1.
         21    1    1    2  504  503  0.53113414393E+02  0.26876117599E+02 -0.74967298262E+02  0.95725943685E+02  0.00000000000E+00 0. -1.
         21    1    1    2  505  506 -0.15065944513E+03  0.81158337700E+00  0.33826241712E+02  0.15441224596E+03  0.00000000000E+00 0. -1.
         21    1    1    2  506  502 -0.92476618393E+00 -0.30323403969E+02 -0.22040362971E+02  0.37498554914E+02  0.00000000000E+00 0.  1.
<scales pt_clust_3="111.06781" pt_clust_4="53.80701" pt_clust_5="14000.00000" pt_clust_6="30.33750"></scales>
<clustering>
<clus scale="   30.338">  2  6  1 -1</clus>
<clus scale="   53.807">  2  4  1 -1</clus>
<clus scale="  111.068">  1  3  2 -1</clus>
<clus scale="  111.068">  1  3  2 -1</clus>
</clustering>
</event>
<event>
 6    0  0.1344929E+003  0.9790946E+02  0.7546771E-02  0.1284754E+00
         21   -1    0    0  505  501  0.00000000000E+00  0.00000000000E+00  0.16843816863E+03  0.16843816863E+03  0.00000000000E+00 0. -1.
         21   -1    0    0  504  502 -0.00000000000E+00 -0.00000000000E+00 -0.15164238689E+03  0.15164238689E+03  0.00000000000E+00 0. -1.
         21    1    1    2  503  502  0.37620733298E+02 -0.10329844342E+03 -0.49135500268E+01  0.11004558583E+03  0.00000000000E+00 0. -1.
         21    1    1    2  504  506 -0.12490240174E+02  0.31559374025E+02 -0.31492480102E+02  0.46300934023E+02  0.00000000000E+00 0.  1.
         21    1    1    2  505  503  0.48322955017E+02  0.21229621681E+01  0.37755197544E+02  0.61360165348E+02  0.00000000000E+00 0. -1.
         21    1    1    2  506  501 -0.73453448141E+02  0.69616107228E+02  0.15446614321E+02  0.10237387032E+03  0.00000000000E+00 0. -1.
<scales pt_clust_3="97.90946" pt_clust_4="33.94113" pt_clust_5="47.32759" pt_clust_6="14000.00000"></scales>
<clustering>
<clus scale="   33.941">  2  4  1 -1</clus>
<clus scale="   47.328">  1  5  2 -1</clus>
<clus scale="   97.909">  2  3  1 -1</clus>
<clus scale="   47.328">  1  3  2 -1</clus>
</clustering>
</event>
<event>
 6    0  0.1344929E+003  0.1578504E+03  0.7546771E-02  0.1191145E+00
         21   -1    0    0  504  501  0.00000000000E+00  0.00000000000E+00  0.11192542902E+04  0.11192542902E+04  0.00000000000E+00 0.  1.
         21   -1    0    0  503  502 -0.00000000000E+00 -0.00000000000E+00 -0.11596444419E+03  0.11596444419E+03  0.00000000000E+00 0. -1.
         21    1    1    2  503  505  0.19889466200E+02  0.11628573513E+03  0.34059509282E+02  0.12279256180E+03  0.00000000000E+00 0. -1.
         21    1    1    2  504  502 -0.21265971943E+02 -0.27011782536E+02 -0.12072884040E+02  0.36436691500E+02  0.00000000000E+00 0. -1.
         21    1    1    2  505  506 -0.12706516501E+03  0.16937268677E+02  0.63275686540E+02  0.14295537673E+03  0.00000000000E+00 0. -1.
         21    1    1    2  506  501  0.12844167075E+03 -0.10621122127E+03  0.91802753426E+03  0.93303410439E+03  0.00000000000E+00 0.  1.
<scales pt_clust_3="103.66382" pt_clust_4="34.37845" pt_clust_5="14000.00000" pt_clust_6="157.85044"></scales>
<clustering>
<clus scale="   34.378">  2  4  1 -1</clus>
<clus scale="  103.664">  2  3  1 -1</clus>
<clus scale="  157.850">  1  6  2 -1</clus>
<clus scale="  157.850">  1  3  2 -1</clus>
</clustering>
</event>
<event>
 6    0  0.1344929E+003  0.1492430E+03  0.7546771E-02  0.1201406E+00
         21   -1    0    0  503  501  0.00000000000E+00  0.00000000000E+00  0.20867536310E+03  0.20867536310E+03  0.00000000000E+00 0. -1.
         21   -1    0    0  505  502 -0.00000000000E+00 -0.00000000000E+00 -0.44674409192E+03  0.44674409192E+03  0.00000000000E+00 0. -1.
         21    1    1    2  503  502 -0.34105036002E+02 -0.64884508419E+01 -0.10442493088E+03  0.11004462578E+03  0.00000000000E+00 0.  1.
         21    1    1    2  504  501 -0.46751102125E+02 -0.54694546383E+02  0.14521533785E+02  0.73403228113E+02  0.00000000000E+00 0. -1.
         21    1    1    2  505  506  0.10588714211E+03  0.14657466573E+03 -0.26764163914E+03  0.32299886455E+03  0.00000000000E+00 0. -1.
         21    1    1    2  506  504 -0.25031003979E+02 -0.85391668504E+02  0.11947630741E+03  0.14897273658E+03  0.00000000000E+00 0. -1.
<scales pt_clust_3="34.71676" pt_clust_4="74.32562" pt_clust_5="14000.00000" pt_clust_6="149.24298"></scales>
<clustering>
<clus scale="   34.717">  2  3  1 -1</clus>
<clus scale="   74.326">  1  4  2 -1</clus>
<clus scale="  149.243">  1  6  2 -1</clus>
<clus scale="   74.326">  1  3  2 -1</clus>
</clustering>
</event>
<event>
 6    0  0.1344929E+003  0.8344102E+02  0.7546771E-02  0.1319561E+00
         21   -1    0    0  506  501  0.00000000000E+00  0.00000000000E+00  0.29886067914E+03  0.29886067914E+03  0.00000000000E+00 0.  1.
         21   -1    0    0  504  502 -0.00000000000E+00 -0.00000000000E+00 -0.12133609668E+03  0.12133609668E+03  0.00000000000E+00 0.  1.
         21    1    1    2  503  505  0.75904766840E+02  0.23238828686E+02  0.15970382640E+01  0.79398534741E+02  0.00000000000E+00 0.  1.
         21    1    1    2  504  501  0.51409161099E+02  0.53263597541E+01  0.16562176423E+03  0.17349882057E+03  0.00000000000E+00 0.  1.
         21    1    1    2  505  502 -0.31264427124E+02  0.22451467522E+02 -0.32544172617E+02  0.50404920083E+02  0.00000000000E+00 0.  1.
         21    1    1    2  506  503 -0.96049500815E+02 -0.51016655962E+02  0.42849952580E+02  0.11689450042E+03  0.00000000000E+00 0.  1.
<scales pt_clust_3="83.44102" pt_clust_4="50.28060" pt_clust_5="38.49068" pt_clust_6="14000.00000"></scales>
<clustering>
<clus scale="   38.491">  2  5  1 -1</clus>
<clus scale="   50.281">  1  4  2 -1</clus>
<clus scale="   83.441">  2  3  1 -1</clus>
<clus scale="   50.281">  1  3  2 -1</clus>
</clustering>
</event>
<event>
 6    0  0.1344929E+003  0.1259806E+03  0.7546771E-02  0.1233545E+00
         21   -1    0    0  505  501  0.00000000000E+00  0.00000000000E+00  0.40113123579E+04  0.40113123579E+04  0.00000000000E+00 0. -1.
         21   -1    0    0  506  502 -0.00000000000E+00 -0.00000000000E+00 -0.55845066426E+02  0.55845066426E+02  0.00000000000E+00 0. -1.
         21    1    1    2  503  501  0.16307515219E+03  0.17571378155E+02  0.28375461267E+04  0.28422825827E+04  0.00000000000E+00 0. -1.
         21    1    1    2  504  502 -0.15995426167E+03 -0.12227482681E+03  0.20851716615E+03  0.28985497698E+03  0.00000000000E+00 0. -1.
         21    1    1    2  505  504 -0.64686383542E+02  0.41832794082E+02  0.74117191174E+03  0.74516448763E+03  0.00000000000E+00 0. -1.
         21    1    1    2  506  503  0.61565493018E+02  0.62870654576E+02  0.16823208689E+03  0.18985537705E+03  0.00000000000E+00 0.  1.
<scales pt_clust_3="125.98059" pt_clust_4="14000.00000" pt_clust_5="77.03448" pt_clust_6="87.25056"></scales>
<clustering>
<clus scale="   77.034">  1  5  2 -1</clus>
<clus scale="   87.251">  2  6  1 -1</clus>
<clus scale="  125.981">  1  3  2 -1</clus>
<clus scale="   77.034">  1  3  2 -1</clus>
</clustering>
</event>
<event>
 6    0  0.1344929E+003  0.1612364E+03  0.7546771E-02  0.1187308E+00
         21   -1    0    0  506  501  0.00000000000E+00  0.00000000000E+00  0.26137897481E+02  0.26137897481E+02  0.00000000000E+00 0. -1.
         21   -1    0    0  504  502 -0.00000000000E+00 -0.00000000000E+00 -0.17285477207E+04  0.17285477207E+04  0.00000000000E+00 0. -1.
         21    1    1    2  503  501  0.47708919376E+02 -0.37338695565E+02 -0.43653821434E+03  0.44072205726E+03  0.00000000000E+00 0. -1.
         21    1    1    2  504  503  0.53542305706E+02 -0.10085000329E+03 -0.60331345371E+03  0.61402330989E+03  0.00000000000E+00 0. -1.
         21    1    1    2  505  502 -0.10719387291E+03  0.91202125613E+02 -0.62157241303E+03  0.63730731891E+03  0.00000000000E+00 0. -1.
         21    1    1    2  506  505  0.59426478283E+01  0.46986573242E+02 -0.40985742184E+02  0.62632932157E+02  0.00000000000E+00 0. -1.
<scales pt_clust_3="31.31641" pt_clust_4="31.31641" pt_clust_5="155.39885" pt_clust_6="47.36088"></scales>
<clustering>
<clus scale="   31.316">  3  4 -1 -1</clus>
<clus scale="   47.361">  1  6  2 -1</clus>
<clus scale="  155.399">  1  5  2 -1</clus>
<clus scale="   47.361">  1  3  2 -1</clus>
</clustering>
</event>
<event>
 6    0  0.1344929E+003  0.1424138E+03  0.7546771E-02  0.1210117E+00
         21   -1    0    0  503  501  0.00000000000E+00  0.00000000000E+00  0.24778171807E+03  0.24778171807E+03  0.00000000000E+00 0.  1.
         21   -1    0    0  506  502 -0.00000000000E+00 -0.00000000000E+00 -0.24273243883E+03  0.24273243883E+03  0.00000000000E+00 0.  1.
         21    1    1    2  503  502 -0.95623372833E+02  0.13130006986E+03  0.10270346571E+01  0.16243334810E+03  0.00000000000E+00 0.  1.
         21    1    1    2  504  505  0.20599245093E+02 -0.32878218932E+02 -0.50083167511E+02  0.63353214965E+02  0.00000000000E+00 0.  1.
         21    1    1    2  505  501  0.53130422023E+02 -0.12530999972E+03  0.12564025990E+03  0.18523205090E+03  0.00000000000E+00 0.  1.
         21    1    1    2  506  504  0.21893705716E+02  0.26888148793E+02 -0.71534847807E+02  0.79495542933E+02  0.00000000000E+00 0.  1.
<scales pt_clust_3="142.41381" pt_clust_4="36.74051" pt_clust_5="14000.00000" pt_clust_6="34.67430"></scales>
<clustering>
<clus scale="   34.674">  2  6  1 -1</clus>
<clus scale="   36.741">  2  4  1 -1</clus>
<clus scale="  142.414">  2  3  1 -1</clus>
<clus scale="  142.414">  1  3  2 -1</clus>
</clustering>
</event>
<event>
 6    0  0.1344929E+003  0.9561091E+02  0.7546771E-02  0.1289806E+00
         21   -1    0    0  503  501  0.00000000000E+00  0.00000000000E+00  0.36230089734E+03  0.36230089734E+03  0.00000000000E+00 0. -1.
         21   -1    0    0  506  502 -0.00000000000E+00 -0.00000000000E+00 -0.26699142684E+03  0.26699142684E+03  0.00000000000E+00 0. -1.
         21    1    1    2  503  505 -0.11446353292E+03 -0.25752861992E+02  0.14190427474E+03  0.18412477687E+03  0.00000000000E+00 0. -1.
         21    1    1    2  504  501  0.31471468829E+02 -0.11918294896E+02  0.16756580767E+03  0.17091167018E+03  0.00000000000E+00 0. -1.
         21    1    1    2  505  502 -0.25987414450E+02  0.32006364557E+02 -0.94835010052E+01  0.42304726370E+02  0.00000000000E+00 0. -1.
         21    1    1    2  506  504  0.10897947854E+03  0.56647923312E+01 -0.20467711090E+03  0.23195115077E+03  0.00000000000E+00 0. -1.
<scales pt_clust_3="95.61091" pt_clust_4="33.65262" pt_clust_5="38.78204" pt_clust_6="14000.00000"></scales>
<clustering>
<clus scale="   33.653">  1  4  2 -1</clus>
<clus scale="   38.782">  2  5  1 -1</clus>
<clus scale="   95.611">  1  3  2 -1</clus>
<clus scale="   33.653">  1  3  2 -1</clus>
</clustering>
</event>
<event>
 6    0  0.1537521E+003  0.8894297E+02  0.7546771E-02  0.1305432E+00
         21   -1    0    0  504  501  0.00000000000E+00  0.00000000000E+00  0.41542794912E+03  0.41542794912E+03  0.00000000000E+00 0.  1.
         21   -1    0    0  503  502 -0.00000000000E+00 -0.00000000000E+00 -0.10389171707E+04  0.10389171707E+04  0.00000000000E+00 0. -1.
         21    1    1    2  503  501  0.25814396401E+02 -0.35090458017E+02  0.25687712176E+03  0.26054477349E+03  0.00000000000E+00 0.  1.
         21    1    1    2  504  506  0.26201339872E+02  0.11243642469E+03  0.12743272954E+03  0.17195220373E+03  0.00000000000E+00 0.  1.
         21    1    1    2  505  502 -0.30215104258E+02 -0.25307510376E+02 -0.89363092424E+03  0.89449966538E+03  0.00000000000E+00 0. -1.
         21    1    1    2  506  505 -0.21800632015E+02 -0.52038456297E+02 -0.11416814867E+03  0.12734847726E+03  0.00000000000E+00 0.  1.
<scales pt_clust_3="43.59712" pt_clust_4="14000.00000" pt_clust_5="39.41348" pt_clust_6="88.94297"></scales>
<clustering>
<clus scale="   39.413">  2  5  1 -1</clus>
<clus scale="   43.597">  1  3  2 -1</clus>
<clus scale="   88.943">  2  6  1 -1</clus>
<clus scale="   43.597">  1  3  2 -1</clus>
</clustering>
</event>
<event>
 6    0  0.1344929E+003  0.8068698E+02  0.7546771E-02  0.1327113E+00
         21   -1    0    0  504  501  0.00000000000E+00  0.00000000000E+00  0.29926634428E+03  0.29926634428E+03  0.00000000000E+00 0. -1.
         21   -1    0    0  503  502 -0.00000000000E+00 -0.00000000000E+00 -0.23417046079E+03  0.23417046079E+03  0.00000000000E+00 0. -1.
         21    1    1    2  503  505 -0.67881582983E+02 -0.29939047079E+02 -0.12357615062E+03  0.14413646607E+03  0.00000000000E+00 0. -1.
         21    1    1    2  504  502  0.89683189673E+02 -0.51260170274E+01  0.16621174718E+03  0.18893304492E+03  0.00000000000E+00 0. -1.
         21    1    1    2  505  506  0.36791606456E+02  0.91572006939E+02 -0.30454391094E+02  0.10327886859E+03  0.00000000000E+00 0. -1.
         21    1    1    2  506  501 -0.58593213147E+02 -0.56506942832E+02  0.52914678024E+02  0.97088425497E+02  0.00000000000E+00 0. -1.
<scales pt_clust_3="74.19067" pt_clust_4="80.68698" pt_clust_5="72.11301" pt_clust_6="14000.00000"></scales>
<clustering>
<clus scale="   74.191">  2  3  1 -1</clus>
<clus scale="   72.113">  2  5  1 -1</clus>
<clus scale="   80.687">  1  4  2 -1</clus>
<clus scale="   80.687">  1  3  2 -1</clus>
</clustering>
</event>
<event>
 6    0  0.1344929E+003  0.7021352E+02  0.7546771E-02  0.1359368E+00
         21   -1    0    0  504  501  0.00000000000E+00  0.00000000000E+00  0.12314752768E+03  0.12314752768E+03  0.00000000000E+00 0.  1.
         21   -1    0    0  505  502 -0.00000000000E+00 -0.00000000000E+00 -0.90010873983E+03  0.90010873983E+03  0.00000000000E+00 0.  1.
         21    1    1    2  503  502  0.39725733964E+02 -0.38590490146E+02 -0.72993933818E+03  0.73203742888E+03  0.00000000000E+00 0.  1.
         21    1    1    2  504  503  0.55770935662E+02 -0.68372639086E+01  0.79502886254E+02  0.97354272454E+02  0.00000000000E+00 0.  1.
         21    1    1    2  505  506 -0.26594627494E+02 -0.28259062507E+02 -0.64997121766E+02  0.75699898700E+02  0.00000000000E+00 0.  1.
         21    1    1    2  506  501 -0.68902042131E+02  0.73686816561E+02 -0.61527638459E+02  0.11816466747E+03  0.00000000000E+00 0.  1.
<scales pt_clust_3="14000.00000" pt_clust_4="55.94253" pt_clust_5="38.80527" pt_clust_6="70.21352"></scales>
<clustering>
<clus scale="   38.805">  2  5  1 -1</clus>
<clus scale="   55.943">  1  4  2 -1</clus>
<clus scale="   70.214">  1  6  2 -1</clus>
<clus scale="   55.943">  1  3  2 -1</clus>
</clustering>
</event>
<event>
 6    0  0.1344929E+003  0.9009344E+02  0.7546771E-02  0.1302626E+00
         21   -1    0    0  506  501  0.00000000000E+00  0.00000000000E+00  0.21621553854E+03  0.21621553854E+03  0.00000000000E+00 0.  1.
         21   -1    0    0  505  502 -0.00000000000E+00 -0.00000000000E+00 -0.25533318124E+03  0.25533318124E+03  0.00000000000E+00 0.  1.
         21    1    1    2  503  504  0.22175052579E+02 -0.85616732345E+02  0.32492841759E+02  0.94221773385E+02  0.00000000000E+00 0.  1.
         21    1    1    2  504  501 -0.64461427848E+02  0.69969971770E+02  0.10475913737E+03  0.14151165850E+03  0.00000000000E+00 0.  1.
         21    1    1    2  505  503 -0.46021885501E+02 -0.29632294020E+02 -0.43175172448E+02  0.69715007780E+02  0.00000000000E+00 0.  1.
         21    1    1    2  506  502  0.88308260770E+02  0.45279054595E+02 -0.13319444938E+03  0.16610028011E+03  0.00000000000E+00 0.  1.
<scales pt_clust_3="14000.00000" pt_clust_4="90.09344" pt_clust_5="54.73652" pt_clust_6="58.39364"></scales>
<clustering>
<clus scale="   54.737">  2  5  1 -1</clus>
<clus scale="   58.394">  2  6  1 -1</clus>
<clus scale="   90.093">  1  4  2 -1</clus>
<clus scale="   90.093">  1  3  2 -1</clus>
</clustering>
</event>
<event>
 6    0  0.1344929E+003  0.7292904E+02  0.7546771E-02  0.1350407E+00
         21   -1    0    0  503  501  0.00000000000E+00  0.00000000000E+00  0.32796478266E+03  0.32796478266E+03  0.00000000000E+00 0.  1.
         21   -1    0    0  506  502 -0.00000000000E+00 -0.00000000000E+00 -0.20253354750E+03  0.20253354750E+03  0.00000000000E+00 0. -1.
         21    1    1    2  503  505  0.88916028999E+02  0.63529955634E+02  0.88668461880E+02  0.14072743730E+03  0.00000000000E+00 0.  1.
         21    1    1    2  504  501 -0.58718903432E+02 -0.25934172941E+02  0.16012426399E+03  0.17251165429E+03  0.00000000000E+00 0.  1.
         21    1    1    2  505  502  0.29262912469E+02  0.95066807368E+01 -0.13680397569E+03  0.14022133500E+03  0.00000000000E+00 0. -1.
         21    1    1    2  506  504 -0.59460038036E+02 -0.47102463430E+02  0.13442484978E+02  0.77037903573E+02  0.00000000000E+00 0.  1.
<scales pt_clust_3="14000.00000" pt_clust_4="61.23052" pt_clust_5="30.76841" pt_clust_6="72.92904"></scales>
<clustering>
<clus scale="   30.768">  2  5  1 -1</clus>
<clus scale="   61.231">  1  4  2 -1</clus>
<clus scale="   72.929">  2  6  1 -1</clus>
<clus scale="   61.231">  1  3  2 -1</clus>
</clustering>
</event>
<event>
 6    0  0.1344929E+003  0.1501208E+03  0.7546771E-02  0.1200325E+00
         21   -1    0    0  503  501  0.00000000000E+00  0.00000000000E+00  0.46114829900E+03  0.46114829900E+03  0.00000000000E+00 0.  1.
         21   -1    0    0  505  502 -0.00000000000E+00 -0.00000000000E+00 -0.18380055802E+03  0.18380055802E+03  0.00000000000E+00 0. -1.
         21    1    1    2  503  502 -0.40991189602E+02  0.62288038986E+02  0.29290724399E+02  0.80112570559E+02  0.00000000000E+00 0.  1.
         21    1    1    2  504  501 -0.11907551607E+03  0.18954317332E+02  0.32909938509E+03  0.35049201123E+03  0.00000000000E+00 0.  1.
         21    1    1    2  505  506  0.10493475574E+03 -0.31965127957E+02 -0.87217218912E+02  0.14014248336E+03  0.00000000000E+00 0. -1.
         21    1    1    2  506  504  0.55131949930E+02 -0.49277228361E+02  0.61748504130E+01  0.74201791863E+02  0.00000000000E+00 0. -1.
<scales pt_clust_3="74.56593" pt_clust_4="124.02545" pt_clust_5="69.44340" pt_clust_6="69.44340"></scales>
<clustering>
<clus scale="   69.443">  5  6 -1 -1</clus>
<clus scale="   74.566">  2  3  1 -1</clus>
<clus scale="  124.025">  1  4  2 -1</clus>
<clus scale="  124.025">  1  3  2 -1</clus>
</clustering>
</event>
<event>
 6    0  0.1344929E+003  0.2024083E+03  0.7546771E-02  0.1147723E+00
         21   -1    0    0  504  501  0.00000000000E+00  0.00000000000E+00  0.23023522125E+03  0.23023522125E+03  0.00000000000E+00 0.  1.
         21   -1    0    0  503  502 -0.00000000000E+00 -0.00000000000E+00 -0.46218548527E+03  0.46218548527E+03  0.00000000000E+00 0.  1.
         21    1    1    2  503  505  0.20087605604E+03 -0.26024309733E+02 -0.18952307862E+03  0.27739403728E+03  0.00000000000E+00 0.  1.
         21    1    1    2  504  506 -0.32525075981E+02  0.54877292107E+02  0.85498559159E+02  0.10667427701E+03  0.00000000000E+00 0.  1.
         21    1    1    2  505  501  0.34446205550E+02 -0.33468072180E+02  0.25161178449E+02  0.54219349251E+02  0.00000000000E+00 0.  1.
         21    1    1    2  506  502 -0.20279718561E+03  0.46150898063E+01 -0.15308692301E+03  0.25413304299E+03  0.00000000000E+00 0.  1.
<scales pt_clust_3="14000.00000" pt_clust_4="40.91077" pt_clust_5="48.02763" pt_clust_6="202.40827"></scales>
<clustering>
<clus scale="   48.028">  1  5  2 -1</clus>
<clus scale="   40.911">  1  4  2 -1</clus>
<clus scale="  202.408">  1  6  2 -1</clus>
<clus scale="   48.028">  1  3  2 -1</clus>
</clustering>
</event>
<event>
 6    0  0.1344929E+003  0.8816782E+02  0.7546771E-02  0.1307350E+00
         21   -1    0    0  506  501  0.00000000000E+00  0.00000000000E+00  0.57361272638E+02  0.57361272638E+02  0.00000000000E+00 0. -1.
         21   -1    0    0  501  502 -0.00000000000E+00 -0.00000000000E+00 -0.49746739013E+03  0.49746739013E+03  0.00000000000E+00 0. -1.
         21    1    1    2  503  504  0.45295848018E+02  0.87904152958E+02 -0.21483227617E+03  0.23649896583E+03  0.00000000000E+00 0. -1.
         21    1    1    2  504  502  0.26697908559E+02 -0.32166570645E+02 -0.18853994913E+03  0.19311856205E+03  0.00000000000E+00 0.  1.
         21    1    1    2  505  503 -0.44201631464E+02 -0.67723432372E+02 -0.46649477349E+02  0.93361776189E+02  0.00000000000E+00 0. -1.
         21    1    1    2  506  505 -0.27792125113E+02  0.11985850059E+02  0.99155851671E+01  0.31849358692E+02  0.00000000000E+00 0. -1.
<scales pt_clust_3="14000.00000" pt_clust_4="40.11923" pt_clust_5="88.16782" pt_clust_6="30.26653"></scales>
<clustering>
<clus scale="   30.267">  1  6  2 -1</clus>
<clus scale="   40.119">  2  4  1 -1</clus>
<clus scale="   88.168">  1  5  2 -1</clus>
<clus scale="   30.267">  1  3  2 -1</clus>
</clustering>
</event>
<event>
 6    0  0.1344929E+003  0.8848899E+02  0.7546771E-02  0.1306553E+00
         21   -1    0    0  503  501  0.00000000000E+00  0.00000000000E+00  0.91530704583E+03  0.91530704583E+03  0.00000000000E+00 0. -1.
         21   -1    0    0  506  502 -0.00000000000E+00 -0.00000000000E+00 -0.33566759956E+03  0.33566759956E+03  0.00000000000E+00 0. -1.
         21    1    1    2  503  504  0.25505862019E+02  0.50559104417E+02  0.82281448853E+03  0.82476084690E+03  0.00000000000E+00 0. -1.
         21    1    1    2  504  502 -0.56094340613E+02  0.23965972688E+02 -0.23348566713E+03  0.24132239773E+03  0.00000000000E+00 0. -1.
         21    1    1    2  505  501 -0.31040414305E+02  0.35107458716E+02  0.26740032364E+02  0.53954335401E+02  0.00000000000E+00 0. -1.
         21    1    1    2  506  505  0.61628892899E+02 -0.10963253582E+03 -0.36429407502E+02  0.13093706535E+03  0.00000000000E+00 0. -1.
<scales pt_clust_3="14000.00000" pt_clust_4="61.18920" pt_clust_5="46.86194" pt_clust_6="88.48899"></scales>
<clustering>
<clus scale="   46.862">  1  5  2 -1</clus>
<clus scale="   61.189">  2  4  1 -1</clus>
<clus scale="   88.489">  2  6  1 -1</clus>
<clus scale="   46.862">  1  3  2 -1</clus>
</clustering>
</event>
<event>
 6    0  0.1344929E+003  0.2224400E+03  0.7546771E-02  0.1132077E+00
         21   -1    0    0  504  501  0.00000000000E+00  0.00000000000E+00  0.28574350476E+04  0.28574350476E+04  0.00000000000E+00 0. -1.
         21   -1    0    0  506  502 -0.00000000000E+00 -0.00000000000E+00 -0.71332431282E+03  0.71332431282E+03  0.00000000000E+00 0. -1.
         21    1    1    2  503  501 -0.57761901361E+02  0.44580384901E+01  0.24379240938E+04  0.24386123510E+04  0.00000000000E+00 0. -1.
         21    1    1    2  504  502  0.94367017378E+02 -0.22041972646E+03  0.34276593598E+03  0.41830428715E+03  0.00000000000E+00 0. -1.
         21    1    1    2  505  503 -0.97145455285E+02  0.23752637487E+03 -0.47376277046E+03  0.53880161554E+03  0.00000000000E+00 0. -1.
         21    1    1    2  506  505  0.60540339269E+02 -0.21564686903E+02 -0.16281652451E+03  0.17504110676E+03  0.00000000000E+00 0. -1.
<scales pt_clust_3="57.93368" pt_clust_4="14000.00000" pt_clust_5="222.44001" pt_clust_6="63.45151"></scales>
<clustering>
<clus scale="   57.934">  1  3  2 -1</clus>
<clus scale="   63.452">  2  6  1 -1</clus>
<clus scale="  222.440">  2  5  1 -1</clus>
<clus scale="   57.934">  1  3  2 -1</clus>
</clustering>
</event>
<event>
 6    0  0.1344929E+003  0.2127077E+03  0.7546771E-02  0.1139440E+00
         21   -1    0    0  506  501  0.00000000000E+00  0.00000000000E+00  0.64387750211E+02  0.64387750211E+02  0.00000000000E+00 0. -1.
         21   -1    0    0  504  502 -0.00000000000E+00 -0.00000000000E+00 -0.11924801556E+04  0.11924801556E+04  0.00000000000E+00 0. -1.
         21    1    1    2  503  501  0.20790901158E+03 -0.14615835320E+02 -0.56377932056E+03  0.60107146166E+03  0.00000000000E+00 0. -1.
         21    1    1    2  504  503 -0.19452983275E+02  0.25133354108E+02 -0.36982620395E+03  0.37118933871E+03  0.00000000000E+00 0.  1.
         21    1    1    2  505  502 -0.75831906518E+02 -0.77616665619E+01 -0.14012934765E+03  0.15952101927E+03  0.00000000000E+00 0. -1.
         21    1    1    2  506  505 -0.11262412179E+03 -0.27558522261E+01 -0.54357533196E+02  0.12508608614E+03  0.00000000000E+00 0. -1.
<scales pt_clust_3="194.15146" pt_clust_4="31.78213" pt_clust_5="72.29671" pt_clust_6="72.29671"></scales>
<clustering>
<clus scale="   31.782">  2  4  1 -1</clus>
<clus scale="   72.297">  5  6 -1 -1</clus>
<clus scale="  194.151">  2  3  1 -1</clus>
<clus scale="  212.708">  1  3  2 -1</clus>
</clustering>
</event>
<event>
 6    0  0.1344929E+003  0.7876155E+02  0.7546771E-02  0.1332603E+00
         21   -1    0    0  504  501  0.00000000000E+00  0.00000000000E+00  0.27839667956E+03  0.27839667956E+03  0.00000000000E+00 0. -1.
         21   -1    0    0  506  502 -0.00000000000E+00 -0.00000000000E+00 -0.29866221177E+03  0.29866221177E+03  0.00000000000E+00 0. -1.
         21    1    1    2  503  502 -0.11040873544E+03  0.60850108906E+02 -0.20465876407E+03  0.24037061868E+03  0.00000000000E+00 0. -1.
         21    1    1    2  504  503  0.35487688902E+02 -0.72861459185E+02  0.17805417431E+03  0.19563092109E+03  0.00000000000E+00 0. -1.
         21    1    1    2  505  501  0.40507844046E+02  0.65236079935E+02  0.10676555756E+02  0.77528190985E+02  0.00000000000E+00 0.  1.
         21    1    1    2  506  505  0.34413202490E+02 -0.53224729655E+02 -0.43374982076E+01  0.63529160574E+02  0.00000000000E+00 0.  1.
<scales pt_clust_3="78.76155" pt_clust_4="14000.00000" pt_clust_5="73.72841" pt_clust_6="63.38091"></scales>
<clustering>
<clus scale="   63.381">  2  6  1 -1</clus>
<clus scale="   73.728">  1  5  2 -1</clus>
<clus scale="   78.762">  2  3  1 -1</clus>
<clus scale="   73.728">  1  3  2 -1</clus>
</clustering>
</event>
<event>
 6    0  0.1344929E+003  0.1003868E+03  0.7546771E-02  0.1279485E+00
         21   -1    0    0  505  501  0.00000000000E+00  0.00000000000E+00  0.16281688854E+03  0.16281688854E+03  0.00000000000E+00 0. -1.
         21   -1    0    0  504  502 -0.00000000000E+00 -0.00000000000E+00 -0.33228639748E+03  0.33228639748E+03  0.00000000000E+00 0. -1.
         21    1    1    2  503  501 -0.27943244152E+02  0.13519294781E+02  0.33641330975E+02  0.45774833423E+02  0.00000000000E+00 0. -1.
         21    1    1    2  504  503  0.74418920103E+01 -0.40233165694E+02 -0.16250229370E+03  0.16757411745E+03  0.00000000000E+00 0. -1.
         21    1    1    2  505  506 -0.66735691026E+02 -0.52739659762E+02  0.77305601031E+02  0.11494033287E+03  0.00000000000E+00 0. -1.
         21    1    1    2  506  502  0.87237043168E+02  0.79453530675E+02 -0.11791414725E+03  0.16681400228E+03  0.00000000000E+00 0. -1.
<scales pt_clust_3="31.04185" pt_clust_4="40.54038" pt_clust_5="100.38679" pt_clust_6="14000.00000"></scales>
<clustering>
<clus scale="   31.042">  1  3  2 -1</clus>
<clus scale="   40.540">  2  4  1 -1</clus>
<clus scale="  100.387">  1  5  2 -1</clus>
<clus scale="   31.042">  1  3  2 -1</clus>
</clustering>
</event>
<event>
 6    0  0.1344929E+003  0.8728295E+02  0.7546771E-02  0.1309568E+00
         21   -1    0    0  506  501  0.00000000000E+00  0.00000000000E+00  0.68846724808E+03  0.68846724808E+03  0.00000000000E+00 0. -1.
         21   -1    0    0  505  502 -0.00000000000E+00 -0.00000000000E+00 -0.79440831395E+03  0.79440831395E+03  0.00000000000E+00 0.  1.
         21    1    1    2  503  501  0.25932835460E+02  0.58529012327E+02  0.31038741002E+03  0.31692033942E+03  0.00000000000E+00 0. -1.
         21    1    1    2  504  502 -0.86528843558E+02  0.12329141989E+02 -0.76372343413E+03  0.76870848334E+03  0.00000000000E+00 0.  1.
         21    1    1    2  505  503  0.84710713144E+02  0.98138162594E+01  0.80073435875E+02  0.11697850676E+03  0.00000000000E+00 0. -1.
         21    1    1    2  506  504 -0.24114705046E+02 -0.80671970575E+02  0.26732152236E+03  0.28026823251E+03  0.00000000000E+00 0. -1.
<scales pt_clust_3="64.01685" pt_clust_4="14000.00000" pt_clust_5="87.28295" pt_clust_6="38.26851"></scales>
<clustering>
<clus scale="   64.017">  1  3  2 -1</clus>
<clus scale="   38.269">  1  6  2 -1</clus>
<clus scale="   87.283">  1  5  2 -1</clus>
<clus scale="   64.017">  1  3  2 -1</clus>
</clustering>
</event>
<event>
 6    0  0.1344929E+003  0.1095359E+03  0.7546771E-02  0.1261432E+00
         21   -1    0    0  506  501  0.00000000000E+00  0.00000000000E+00  0.29228403871E+03  0.29228403871E+03  0.00000000000E+00 0. -1.
         21   -1    0    0  505  502 -0.00000000000E+00 -0.00000000000E+00 -0.41632797063E+03  0.41632797063E+03  0.00000000000E+00 0.  1.
         21    1    1    2  503  502  0.29296698162E+01  0.10973338605E+03 -0.26027770430E+03  0.28247917151E+03  0.00000000000E+00 0.  1.
         21    1    1    2  504  501 -0.62956148270E+01 -0.68164330434E+02  0.10454099076E+03  0.12495931121E+03  0.00000000000E+00 0. -1.
         21    1    1    2  505  504 -0.45313781295E+02  0.19294162518E-01 -0.12443430856E+03  0.13242823073E+03  0.00000000000E+00 0.  1.
         21    1    1    2  506  503  0.48679726306E+02 -0.41588349776E+02  0.15612709019E+03  0.16874529588E+03  0.00000000000E+00 0. -1.
<scales pt_clust_3="14000.00000" pt_clust_4="109.53595" pt_clust_5="45.31379" pt_clust_6="63.27382"></scales>
<clustering>
<clus scale="   45.314">  2  5  1 -1</clus>
<clus scale="   63.274">  1  6  2 -1</clus>
<clus scale="  109.536">  1  4  2 -1</clus>
<clus scale="   63.274">  1  3  2 -1</clus>
</clustering>
</event>
<event>
 6    0  0.1344929E+003  0.1070489E+03  0.7546771E-02  0.1266135E+00
         21   -1    0    0  504  501  0.00000000000E+00  0.00000000000E+00  0.32066573263E+03  0.32066573263E+03  0.00000000000E+00 0. -1.
         21   -1    0    0  506  502 -0.00000000000E+00 -0.00000000000E+00 -0.90348490095E+02  0.90348490095E+02  0.00000000000E+00 0.  1.
         21    1    1    2  503  505  0.34307978860E+02  0.28802956776E+02  0.63778619651E+02  0.77938180997E+02  0.00000000000E+00 0.  1.
         21    1    1    2  504  503  0.52283095814E+02  0.49772387258E+01  0.16234542880E+03  0.17062922747E+03  0.00000000000E+00 0. -1.
         21    1    1    2  505  502  0.34985611157E+02 -0.10661986365E+02  0.11874365358E+02  0.38453497812E+02  0.00000000000E+00 0.  1.
         21    1    1    2  506  501 -0.12157668583E+03 -0.23118209136E+02 -0.76811712783E+01  0.12399331645E+03  0.00000000000E+00 0.  1.
<scales pt_clust_3="41.61379" pt_clust_4="41.61379" pt_clust_5="36.57418" pt_clust_6="97.18492"></scales>
<clustering>
<clus scale="   36.574">  2  5  1 -1</clus>
<clus scale="   41.614">  3  4 -1 -1</clus>
<clus scale="   97.185">  2  6  1 -1</clus>
<clus scale="  107.049">  1  3  2 -1</clus>
</clustering>
</event>
<event>
 6    0  0.1344929E+003  0.9194967E+02  0.7546771E-02  0.1298198E+00
         21   -1    0    0  504  501  0.00000000000E+00  0.00000000000E+00  0.13906675385E+03  0.13906675385E+03  0.00000000000E+00 0. -1.
         21   -1    0    0  506  502 -0.00000000000E+00 -0.00000000000E+00 -0.15269982515E+04  0.15269982515E+04  0.00000000000E+00 0.  1.
         21    1    1    2  503  501 -0.62939495191E+02  0.12031946202E+02 -0.48453366749E+02  0.80336022640E+02  0.00000000000E+00 0.  1.
         21    1    1    2  504  505 -0.33912614299E+02  0.17739241775E+01  0.11268108145E+03  0.11768703554E+03  0.00000000000E+00 0. -1.
         21    1    1    2  505  502 -0.15635239788E+02  0.41766671549E+02 -0.92817952427E+03  0.92925031335E+03  0.00000000000E+00 0.  1.
         21    1    1    2  506  503  0.11248734928E+03 -0.55572541928E+02 -0.52397968809E+03  0.53879163384E+03  0.00000000000E+00 0.  1.
<scales pt_clust_3="91.94967" pt_clust_4="33.95898" pt_clust_5="44.90646" pt_clust_6="14000.00000"></scales>
<clustering>
<clus scale="   33.959">  1  4  2 -1</clus>
<clus scale="   44.906">  2  5  1 -1</clus>
<clus scale="   91.950">  1  3  2 -1</clus>
<clus scale="   33.959">  1  3  2 -1</clus>
</clustering>
</event>
<event>
 6    0  0.1344929E+003  0.9577288E+02  0.7546771E-02  0.1289445E+00
         21   -1    0    0  505  501  0.00000000000E+00  0.00000000000E+00  0.25740390829E+03  0.25740390829E+03  0.00000000000E+00 0. -1.
         21   -1    0    0  506  502 -0.00000000000E+00 -0.00000000000E+00 -0.15063269732E+04  0.15063269732E+04  0.00000000000E+00 0. -1.
         21    1    1    2  503  501 -0.29042524151E+02 -0.85336762574E+02  0.21894708796E+03  0.23677765642E+03  0.00000000000E+00 0. -1.
         21    1    1    2  504  502 -0.34776965940E+02  0.42566890590E+02 -0.12257589154E+04  0.12269907482E+04  0.00000000000E+00 0. -1.
         21    1    1    2  505  504  0.83694622953E+02  0.26033318468E+01 -0.39736764017E+02  0.92685369193E+02  0.00000000000E+00 0. -1.
         21    1    1    2  506  503 -0.19875132861E+02  0.40166540136E+02 -0.20237447347E+03  0.20727710768E+03  0.00000000000E+00 0. -1.
<scales pt_clust_3="95.77288" pt_clust_4="14000.00000" pt_clust_5="82.81399" pt_clust_6="44.81486"></scales>
<clustering>
<clus scale="   44.815">  2  6  1 -1</clus>
<clus scale="   82.814">  1  5  2 -1</clus>
<clus scale="   95.773">  1  3  2 -1</clus>
<clus scale="   82.814">  1  3  2 -1</clus>
</clustering>
</event>
<event>
 6    0  0.1344929E+003  0.8792631E+02  0.7546771E-02  0.1307953E+00
         21   -1    0    0  504  501  0.00000000000E+00  0.00000000000E+00  0.10045788439E+04  0.10045788439E+04  0.00000000000E+00 0. -1.
         21   -1    0    0  506  502 -0.00000000000E+00 -0.00000000000E+00 -0.37344409644E+02  0.37344409644E+02  0.00000000000E+00 0. -1.
         21    1    1    2  503  505 -0.10157495678E+02 -0.88109884927E+02  0.20335558601E+03  0.22185585614E+03  0.00000000000E+00 0. -1.
         21    1    1    2  504  503 -0.48016089425E+02  0.35559741691E+02  0.59961214545E+03  0.60258174968E+03  0.00000000000E+00 0. -1.
         21    1    1    2  505  502 -0.42152407296E+01 -0.31745371720E+02  0.15784844786E+02  0.35702915916E+02  0.00000000000E+00 0.  1.
         21    1    1    2  506  501  0.62388825832E+02  0.84295514956E+02  0.14848185805E+03  0.18178273185E+03  0.00000000000E+00 0. -1.
<scales pt_clust_3="87.92631" pt_clust_4="58.92870" pt_clust_5="32.02400" pt_clust_6="14000.00000"></scales>
<clustering>
<clus scale="   32.024">  2  5  1 -1</clus>
<clus scale="   58.929">  1  4  2 -1</clus>
<clus scale="   87.926">  1  3  2 -1</clus>
<clus scale="   58.929">  1  3  2 -1</clus>
</clustering>
</event>
<event>
 6    0  0.1344929E+003  0.5944684E+02  0.7546771E-02  0.1400168E+00
         21   -1    0    0  505  501  0.00000000000E+00  0.00000000000E+00  0.66588035560E+03  0.66588035560E+03  0.00000000000E+00 0. -1.
         21   -1    0    0  506  502 -0.00000000000E+00 -0.00000000000E+00 -0.70141670160E+02  0.70141670160E+02  0.00000000000E+00 0. -1.
         21    1    1    2  503  502 -0.73872319106E+02 -0.36898730462E+02  0.10477716292E+03  0.13340498383E+03  0.00000000000E+00 0. -1.
         21    1    1    2  504  501  0.61659882895E+02  0.48380489286E+02  0.37893375121E+03  0.38695400335E+03  0.00000000000E+00 0. -1.
         21    1    1    2  505  503 -0.19212104748E+02 -0.43835109821E+02  0.14953202939E+03  0.15700461661E+03  0.00000000000E+00 0. -1.
         21    1    1    2  506  504  0.31424540959E+02  0.32353350997E+02 -0.37504258080E+02  0.58658421981E+02  0.00000000000E+00 0. -1.
<scales pt_clust_3="14000.00000" pt_clust_4="59.44684" pt_clust_5="40.79305" pt_clust_6="45.10256"></scales>
<clustering>
<clus scale="   45.103">  2  6  1 -1</clus>
<clus scale="   40.793">  1  5  2 -1</clus>
<clus scale="   59.447">  1  4  2 -1</clus>
<clus scale="   40.793">  1  3  2 -1</clus>
</clustering>
</event>
<event>
 6    0  0.1344929E+003  0.6682832E+02  0.7546771E-02  0.1371223E+00
         21   -1    0    0  505  501  0.00000000000E+00  0.00000000000E+00  0.88198008341E+03  0.88198008341E+03  0.00000000000E+00 0.  1.
         21   -1    0    0  504  502 -0.00000000000E+00 -0.00000000000E+00 -0.20494511646E+03  0.20494511646E+03  0.00000000000E+00 0. -1.
         21    1    1    2  503  501 -0.73535040436E+02 -0.22464359162E+02  0.73029352750E+03  0.73433009329E+03  0.00000000000E+00 0.  1.
         21    1    1    2  504  503 -0.29228865786E+02 -0.35967327646E+02 -0.12861156041E+03  0.13670738358E+03  0.00000000000E+00 0.  1.
         21    1    1    2  505  506  0.95686274509E+01  0.34799131082E+02  0.10837773031E+03  0.11422902688E+03  0.00000000000E+00 0.  1.
         21    1    1    2  506  502  0.93195278771E+02  0.23632555726E+02 -0.33024730444E+02  0.10165869612E+03  0.00000000000E+00 0. -1.
<scales pt_clust_3="14000.00000" pt_clust_4="46.17277" pt_clust_5="36.09069" pt_clust_6="66.82832"></scales>
<clustering>
<clus scale="   36.091">  1  5  2 -1</clus>
<clus scale="   46.173">  2  4  1 -1</clus>
<clus scale="   66.828">  2  6  1 -1</clus>
<clus scale="   36.091">  1  3  2 -1</clus>
</clustering>
</event>
<event>
 6    0  0.1344929E+003  0.9831061E+02  0.7546771E-02  0.1283889E+00
         21   -1    0    0  502  501  0.00000000000E+00  0.00000000000E+00  0.28555487356E+03  0.28555487356E+03  0.00000000000E+00 0. -1.
         21   -1    0    0  504  502 -0.00000000000E+00 -0.00000000000E+00 -0.10882662204E+04  0.10882662204E+04  0.00000000000E+00 0. -1.
         21    1    1    2  503  505  0.20957874929E+02  0.12217311339E+03 -0.94143158930E+02  0.15565486350E+03  0.00000000000E+00 0.  1.
         21    1    1    2  504  506 -0.25616239591E+02 -0.39738389309E+02 -0.46768780939E+03  0.47007150346E+03  0.00000000000E+00 0. -1.
         21    1    1    2  505  501  0.53968992593E+02 -0.69117726911E+02  0.24464675638E+03  0.25988833707E+03  0.00000000000E+00 0. -1.
         21    1    1    2  506  503 -0.49310627932E+02 -0.13316997171E+02 -0.48552713486E+03  0.48820638989E+03  0.00000000000E+00 0. -1.
<scales pt_clust_3="91.73928" pt_clust_4="34.00028" pt_clust_5="87.69215" pt_clust_6="34.00028"></scales>
<clustering>
<clus scale="   34.000">  4  6 -1 -1</clus>
<clus scale="   87.692">  1  5  2 -1</clus>
<clus scale="   91.739">  1  3  2 -1</clus>
<clus scale="   87.692">  1  3  2 -1</clus>
</clustering>
</event>
<event>
 6    0  0.1344929E+003  0.7430331E+02  0.7546771E-02  0.1346042E+00
         21   -1    0    0  506  501  0.00000000000E+00  0.00000000000E+00  0.16069961220E+03  0.16069961220E+03  0.00000000000E+00 0. -1.
         21   -1    0    0  505  502 -0.00000000000E+00 -0.00000000000E+00 -0.19065713114E+03  0.19065713114E+03  0.00000000000E+00 0.  1.
         21    1    1    2  503  501  0.70317126386E+02 -0.69164442041E+02 -0.29837824921E+01  0.98676852727E+02  0.00000000000E+00 0. -1.
         21    1    1    2  504  502 -0.25564560146E+02  0.60020479655E+02  0.23868403314E+02  0.69467297272E+02  0.00000000000E+00 0.  1.
         21    1    1    2  505  503 -0.25062265367E+01  0.52786420595E+02 -0.94594373245E+02  0.10835489292E+03  0.00000000000E+00 0.  1.
         21    1    1    2  506  504 -0.42246339704E+02 -0.43642458210E+02  0.43752233483E+02  0.74857700417E+02  0.00000000000E+00 0. -1.
<scales pt_clust_3="14000.00000" pt_clust_4="74.30331" pt_clust_5="52.84588" pt_clust_6="54.84318"></scales>
<clustering>
<clus scale="   52.846">  2  5  1 -1</clus>
<clus scale="   54.843">  1  6  2 -1</clus>
<clus scale="   74.303">  1  4  2 -1</clus>
<clus scale="   54.843">  1  3  2 -1</clus>
</clustering>
</event>
<event>
 6    0  0.1344929E+003  0.7153552E+02  0.7546771E-02  0.1354948E+00
         21   -1    0    0  503  501  0.00000000000E+00  0.00000000000E+00  0.34185510211E+03  0.34185510211E+03  0.00000000000E+00 0. -1.
         21   -1    0    0  506  502 -0.00000000000E+00 -0.00000000000E+00 -0.84826059397E+02  0.84826059397E+02  0.00000000000E+00 0. -1.
         21    1    1    2  503  505  0.47232601145E+02 -0.53632393078E+02  0.14920306508E+03  0.16543550655E+03  0.00000000000E+00 0. -1.
         21    1    1    2  504  501 -0.65586904901E+02  0.36152211409E+02  0.44571835020E+02  0.87150863228E+02  0.00000000000E+00 0. -1.
         21    1    1    2  505  502  0.12262092131E+02 -0.67557555172E+02  0.12436397827E+01  0.68672620484E+02  0.00000000000E+00 0. -1.
         21    1    1    2  506  504  0.60922116248E+01  0.85037736841E+02  0.62010502835E+02  0.10542217125E+03  0.00000000000E+00 0. -1.
<scales pt_clust_3="14000.00000" pt_clust_4="71.53552" pt_clust_5="68.66136" pt_clust_6="57.46951"></scales>
<clustering>
<clus scale="   68.661">  2  5  1 -1</clus>
<clus scale="   57.470">  2  6  1 -1</clus>
<clus scale="   71.536">  2  4  1 -1</clus>
<clus scale="   71.536">  1  3  2 -1</clus>
</clustering>
</event>
<event>
 6    0  0.1344929E+003  0.1683424E+03  0.7546771E-02  0.1179588E+00
         21   -1    0    0  504  501  0.00000000000E+00  0.00000000000E+00  0.12229896627E+04  0.12229896627E+04  0.00000000000E+00 0. -1.
         21   -1    0    0  505  502 -0.00000000000E+00 -0.00000000000E+00 -0.69085196188E+02  0.69085196188E+02  0.00000000000E+00 0.  1.
         21    1    1    2  503  502  0.12724386545E+02 -0.14827304249E+03  0.13984968108E+03  0.20421738036E+03  0.00000000000E+00 0.  1.
         21    1    1    2  504  503  0.63368642309E+02 -0.50278385268E+01  0.39299617757E+03  0.39810408133E+03  0.00000000000E+00 0. -1.
         21    1    1    2  505  506  0.77157521749E+02  0.46450849606E+01  0.98123072750E+02  0.12491195853E+03  0.00000000000E+00 0. -1.
         21    1    1    2  506  501 -0.15325055060E+03  0.14865579605E+03  0.52293553508E+03  0.56484143864E+03  0.00000000000E+00 0. -1.
<scales pt_clust_3="168.34235" pt_clust_4="63.56779" pt_clust_5="85.78977" pt_clust_6="14000.00000"></scales>
<clustering>
<clus scale="   63.568">  1  4  2 -1</clus>
<clus scale="   85.790">  2  5  1 -1</clus>
<clus scale="  168.342">  2  3  1 -1</clus>
<clus scale="   63.568">  1  3  2 -1</clus>
</clustering>
</event>
<event>
 6    0  0.1344929E+003  0.9166529E+02  0.7546771E-02  0.1298868E+00
         21   -1    0    0  505  501  0.00000000000E+00  0.00000000000E+00  0.14887153260E+04  0.14887153260E+04  0.00000000000E+00 0. -1.
         21   -1    0    0  501  502 -0.00000000000E+00 -0.00000000000E+00 -0.16887169402E+03  0.16887169402E+03  0.00000000000E+00 0.  1.
         21    1    1    2  503  504 -0.59581413338E+02  0.55308181321E+02  0.87776360224E+01  0.81767882634E+02  0.00000000000E+00 0.  1.
         21    1    1    2  504  506  0.28371599763E+02  0.42219930705E+02 -0.86129656859E+01  0.51591214366E+02  0.00000000000E+00 0. -1.
         21    1    1    2  505  503 -0.18739660544E+01 -0.93187824751E+02  0.14176602064E+04  0.14207209238E+04  0.00000000000E+00 0. -1.
         21    1    1    2  506  502  0.33083779630E+02 -0.43402872749E+01 -0.97981244761E+02  0.10350699925E+03  0.00000000000E+00 0.  1.
<scales pt_clust_3="91.66529" pt_clust_4="58.92685" pt_clust_5="14000.00000" pt_clust_6="33.36727"></scales>
<clustering>
<clus scale="   33.367">  2  6  1 -1</clus>
<clus scale="   58.927">  2  4  1 -1</clus>
<clus scale="   91.665">  2  3  1 -1</clus>
<clus scale="   91.665">  1  3  2 -1</clus>
</clustering>
</event>
<event>
 6    0  0.1344929E+003  0.1106601E+03  0.7546771E-02  0.1259352E+00
         21   -1    0    0  505  501  0.00000000000E+00  0.00000000000E+00  0.38291400397E+03  0.38291400397E+03  0.00000000000E+00 0.  1.
         21   -1    0    0  506  502 -0.00000000000E+00 -0.00000000000E+00 -0.80613240371E+03  0.80613240371E+03  0.00000000000E+00 0. -1.
         21    1    1    2  503  501 -0.50061050079E+01 -0.74503577865E+02  0.24069611908E+02  0.78455021633E+02  0.00000000000E+00 0.  1.
         21    1    1    2  504  502  0.31682502196E+02  0.80948048271E+01 -0.23095353283E+03  0.23325702805E+03  0.00000000000E+00 0. -1.
         21    1    1    2  505  504 -0.15289522195E+02 -0.40571169633E+02  0.32374925829E+03  0.32663951313E+03  0.00000000000E+00 0.  1.
         21    1    1    2  506  503 -0.11386874993E+02  0.10697994267E+03 -0.54008373711E+03  0.55069484485E+03  0.00000000000E+00 0. -1.
<scales pt_clust_3="110.66013" pt_clust_4="32.70026" pt_clust_5="43.30939" pt_clust_6="14000.00000"></scales>
<clustering>
<clus scale="   32.700">  2  4  1 -1</clus>
<clus scale="   43.309">  1  5  2 -1</clus>
<clus scale="  110.660">  1  3  2 -1</clus>
<clus scale="   43.309">  1  3  2 -1</clus>
</clustering>
</event>
<event>
 6    0  0.1344929E+003  0.8323750E+02  0.7546771E-02  0.1320107E+00
         21   -1    0    0  505  501  0.00000000000E+00  0.00000000000E+00  0.60220813388E+03  0.60220813388E+03  0.00000000000E+00 0.  1.
         21   -1    0    0  506  502 -0.00000000000E+00 -0.00000000000E+00 -0.16897621763E+03  0.16897621763E+03  0.00000000000E+00 0. -1.
         21    1    1    2  503  501 -0.13618505880E+02 -0.30477116842E+02  0.46153071071E+03  0.46273633451E+03  0.00000000000E+00 0.  1.
         21    1    1    2  504  503 -0.10356919176E+03  0.44726411148E+02  0.41623955097E+02  0.12024800611E+03  0.00000000000E+00 0. -1.
         21    1    1    2  505  502  0.38597411252E+02 -0.50588332732E+01  0.37985711013E+02  0.54389945676E+02  0.00000000000E+00 0. -1.
         21    1    1    2  506  504  0.78590286387E+02 -0.91904610334E+01 -0.10790846057E+03  0.13381006521E+03  0.00000000000E+00 0. -1.
<scales pt_clust_3="33.38141" pt_clust_4="83.23750" pt_clust_5="37.30334" pt_clust_6="14000.00000"></scales>
<clustering>
<clus scale="   33.381">  1  3  2 -1</clus>
<clus scale="   37.303">  1  5  2 -1</clus>
<clus scale="   83.237">  1  4  2 -1</clus>
<clus scale="   33.381">  1  3  2 -1</clus>
</clustering>
</event>
<event>
 6    0  0.1344929E+003  0.8485753E+02  0.7546771E-02  0.1315806E+00
         21   -1    0    0  504  501  0.00000000000E+00  0.00000000000E+00  0.12130790641E+04  0.12130790641E+04  0.00000000000E+00 0. -1.
         21   -1    0    0  503  502 -0.00000000000E+00 -0.00000000000E+00 -0.13577973961E+03  0.13577973961E+03  0.00000000000E+00 0.  1.
         21    1    1    2  503  505  0.10231039665E+02 -0.13233478031E+03  0.67356181459E+02  0.14884227704E+03  0.00000000000E+00 0.  1.
         21    1    1    2  504  506 -0.41525020008E+01  0.47969985631E+02  0.68734478963E+03  0.68902918851E+03  0.00000000000E+00 0. -1.
         21    1    1    2  505  501 -0.49638661088E+02  0.25639105918E+02  0.40036560915E+03  0.40424495224E+03  0.00000000000E+00 0. -1.
         21    1    1    2  506  502  0.43560123424E+02  0.58725688763E+02 -0.77767255771E+02  0.10674238588E+03  0.00000000000E+00 0.  1.
<scales pt_clust_3="14000.00000" pt_clust_4="48.14938" pt_clust_5="84.85753" pt_clust_6="74.11801"></scales>
<clustering>
<clus scale="   48.149">  1  4  2 -1</clus>
<clus scale="   74.118">  2  6  1 -1</clus>
<clus scale="   84.858">  1  5  2 -1</clus>
<clus scale="   48.149">  1  3  2 -1</clus>
</clustering>
</event>
<event>
 6    0  0.1344929E+003  0.1157874E+03  0.7546771E-02  0.1250213E+00
         21   -1    0    0  504  501  0.00000000000E+00  0.00000000000E+00  0.30465774198E+03  0.30465774198E+03  0.00000000000E+00 0. -1.
         21   -1    0    0  501  502 -0.00000000000E+00 -0.00000000000E+00 -0.36219389910E+03  0.36219389910E+03  0.00000000000E+00 0. -1.
         21    1    1    2  503  506 -0.75839034176E+02  0.57511278540E+02  0.36455990986E+02  0.10192225244E+03  0.00000000000E+00 0. -1.
         21    1    1    2  504  503  0.21378036423E+02  0.39869238668E+02  0.16172977093E+03  0.16793777252E+03  0.00000000000E+00 0. -1.
         21    1    1    2  505  502  0.19717212314E+02  0.78124586920E+02 -0.19002137798E+03  0.20639850685E+03  0.00000000000E+00 0. -1.
         21    1    1    2  506  505  0.34743785438E+02 -0.17550510413E+03 -0.65700541062E+02  0.19059310926E+03  0.00000000000E+00 0. -1.
<scales pt_clust_3="115.78743" pt_clust_4="45.23911" pt_clust_5="83.14705" pt_clust_6="14000.00000"></scales>
<clustering>
<clus scale="   45.239">  1  4  2 -1</clus>
<clus scale="   83.147">  2  5  1 -1</clus>
<clus scale="  115.787">  1  3  2 -1</clus>
<clus scale="   45.239">  1  3  2 -1</clus>
</clustering>
</event>
<event>
 6    0  0.1344929E+003  0.8481822E+02  0.7546771E-02  0.1315909E+00
         21   -1    0    0  506  501  0.00000000000E+00  0.00000000000E+00  0.31120376656E+03  0.31120376656E+03  0.00000000000E+00 0.  1.
         21   -1    0    0  504  502 -0.00000000000E+00 -0.00000000000E+00 -0.63039244403E+03  0.63039244403E+03  0.00000000000E+00 0.  1.
         21    1    1    2  503  501  0.95703816696E+02 -0.37203762795E+02  0.21518833558E+03  0.23843103880E+03  0.00000000000E+00 0.  1.
         21    1    1    2  504  503 -0.82775406982E+02  0.36966871571E+01 -0.50473239770E+03  0.51148824696E+03  0.00000000000E+00 0.  1.
         21    1    1    2  505  502  0.25307041460E+02 -0.24666879272E+02 -0.91790688180E+02  0.98358689077E+02  0.00000000000E+00 0.  1.
         21    1    1    2  506  505 -0.38235451173E+02  0.58173954909E+02  0.62146072830E+02  0.93318235755E+02  0.00000000000E+00 0.  1.
<scales pt_clust_3="14000.00000" pt_clust_4="61.97453" pt_clust_5="35.33980" pt_clust_6="84.81822"></scales>
<clustering>
<clus scale="   35.340">  2  5  1 -1</clus>
<clus scale="   61.975">  2  4  1 -1</clus>
<clus scale="   84.818">  2  6  1 -1</clus>
<clus scale="   84.818">  1  3  2 -1</clus>
</clustering>
</event>
<event>
 6    0  0.1344929E+003  0.9623069E+02  0.7546771E-02  0.1288428E+00
         21   -1    0    0  503  501  0.00000000000E+00  0.00000000000E+00  0.49214014126E+03  0.49214014126E+03  0.00000000000E+00 0.  1.
         21   -1    0    0  504  502 -0.00000000000E+00 -0.00000000000E+00 -0.29268549954E+03  0.29268549954E+03  0.00000000000E+00 0.  1.
         21    1    1    2  503  505  0.10281396348E+02 -0.35933772598E+02  0.33131565161E+03  0.33341716232E+03  0.00000000000E+00 0.  1.
         21    1    1    2  504  506 -0.74446968421E+02 -0.20553473111E+02  0.79826685391E+02  0.11107248113E+03  0.00000000000E+00 0.  1.
         21    1    1    2  505  502  0.96361189289E+02  0.18184602677E+02 -0.25559857530E+03  0.27376411429E+03  0.00000000000E+00 0.  1.
         21    1    1    2  506  501 -0.32195617216E+02  0.38302643032E+02  0.43910880015E+02  0.66571883065E+02  0.00000000000E+00 0.  1.
<scales pt_clust_3="37.37570" pt_clust_4="96.23069" pt_clust_5="14000.00000" pt_clust_6="38.60054"></scales>
<clustering>
<clus scale="   37.376">  1  3  2 -1</clus>
<clus scale="   38.601">  1  6  2 -1</clus>
<clus scale="   96.231">  1  4  2 -1</clus>
<clus scale="   37.376">  1  3  2 -1</clus>
</clustering>
</event>
<event>
 6    0  0.1344929E+003  0.7027109E+02  0.7546771E-02  0.1359174E+00
         21   -1    0    0  505  501  0.00000000000E+00  0.00000000000E+00  0.79856507067E+03  0.79856507067E+03  0.00000000000E+00 0.  1.
         21   -1    0    0  503  502 -0.00000000000E+00 -0.00000000000E+00 -0.10509474688E+03  0.10509474688E+03  0.00000000000E+00 0.  1.
         21    1    1    2  503  504  0.93492873366E+02 -0.51595923375E+02 -0.46128783534E+02  0.11632248858E+03  0.00000000000E+00 0.  1.
         21    1    1    2  504  501 -0.17161540600E+02  0.56030257690E+02  0.33518169154E+03  0.34026559420E+03  0.00000000000E+00 0.  1.
         21    1    1    2  505  506 -0.46093211911E+02 -0.23295416384E+02  0.40799831537E+03  0.41125404065E+03  0.00000000000E+00 0.  1.
         21    1    1    2  506  502 -0.30238120855E+02  0.18861082069E+02 -0.35808995984E+01  0.35817694113E+02  0.00000000000E+00 0.  1.
<scales pt_clust_3="14000.00000" pt_clust_4="70.27109" pt_clust_5="52.00105" pt_clust_6="35.63824"></scales>
<clustering>
<clus scale="   35.638">  2  6  1 -1</clus>
<clus scale="   52.001">  1  5  2 -1</clus>
<clus scale="   70.271">  1  4  2 -1</clus>
<clus scale="   52.001">  1  3  2 -1</clus>
</clustering>
</event>
<event>
 6    0  0.1344929E+003  0.1549079E+03  0.7546771E-02  0.1194569E+00
         21   -1    0    0  506  501  0.00000000000E+00  0.00000000000E+00  0.64100268271E+03  0.64100268271E+03  0.00000000000E+00 0. -1.
         21   -1    0    0  504  502 -0.00000000000E+00 -0.00000000000E+00 -0.15319794771E+03  0.15319794771E+03  0.00000000000E+00 0.  1.
         21    1    1    2  503  505  0.26367068031E+02  0.31835304176E+02  0.21950984593E+03  0.22336804008E+03  0.00000000000E+00 0. -1.
         21    1    1    2  504  503 -0.23455742031E+01 -0.11693301519E+03 -0.10627552108E+03  0.15802948504E+03  0.00000000000E+00 0.  1.
         21    1    1    2  505  501 -0.33351967721E+01  0.11185778752E+03  0.35810804465E+03  0.37518616687E+03  0.00000000000E+00 0. -1.
         21    1    1    2  506  502 -0.20686297055E+02 -0.26760076499E+02  0.16462365496E+02  0.37616938443E+02  0.00000000000E+00 0.  1.
<scales pt_clust_3="35.73192" pt_clust_4="143.35245" pt_clust_5="35.73192" pt_clust_6="33.82343"></scales>
<clustering>
<clus scale="   33.823">  2  6  1 -1</clus>
<clus scale="   35.732">  3  5 -1 -1</clus>
<clus scale="  143.352">  2  4  1 -1</clus>
<clus scale="  154.908">  1  3  2 -1</clus>
</clustering>
</event>
<event>
 6    0  0.1344929E+003  0.7610973E+02  0.7546771E-02  0.1340469E+00
         21   -1    0    0  503  501  0.00000000000E+00  0.00000000000E+00  0.53051163453E+03  0.53051163453E+03  0.00000000000E+00 0.  1.
         21   -1    0    0  506  502 -0.00000000000E+00 -0.00000000000E+00 -0.72913578326E+02  0.72913578326E+02  0.00000000000E+00 0.  1.
         21    1    1    2  503  504 -0.94706970052E+02  0.42659290622E+02  0.22864129206E+02  0.10635785658E+03  0.00000000000E+00 0.  1.
         21    1    1    2  504  502  0.32989484948E+02 -0.18266100745E+02  0.66810068312E+00  0.37714757219E+02  0.00000000000E+00 0.  1.
         21    1    1    2  505  501  0.15804624190E+02  0.55662420525E+02  0.17754626430E+03  0.18673716066E+03  0.00000000000E+00 0.  1.
         21    1    1    2  506  505  0.45912860914E+02 -0.80055610402E+02  0.25651956202E+03  0.27261543840E+03  0.00000000000E+00 0.  1.
<scales pt_clust_3="14000.00000" pt_clust_4="37.70884" pt_clust_5="57.22358" pt_clust_6="76.10973"></scales>
<clustering>
<clus scale="   37.709">  2  4  1 -1</clus>
<clus scale="   57.224">  1  5  2 -1</clus>
<clus scale="   76.110">  1  6  2 -1</clus>
<clus scale="   57.224">  1  3  2 -1</clus>
</clustering>
</event>
<event>
 6    0  0.1344929E+003  0.1080892E+03  0.7546771E-02  0.1264150E+00
         21   -1    0    0  504  501  0.00000000000E+00  0.00000000000E+00  0.85463766334E+02  0.85463766334E+02  0.00000000000E+00 0.  1.
         21   -1    0    0  506  502 -0.00000000000E+00 -0.00000000000E+00 -0.26500795942E+03  0.26500795942E+03  0.00000000000E+00 0.  1.
         21    1    1    2  503  505 -0.50054558993E+02 -0.13513295420E+02 -0.19746292807E+02  0.55479582809E+02  0.00000000000E+00 0.  1.
         21    1    1    2  504  503  0.57255980212E+02 -0.88075633918E+02 -0.40908743001E+02  0.11273459901E+03  0.00000000000E+00 0.  1.
         21    1    1    2  505  502 -0.47884217087E+02  0.35379028987E+02 -0.41405017909E+02  0.72518614480E+02  0.00000000000E+00 0.  1.
         21    1    1    2  506  501  0.40682795868E+02  0.66209900351E+02 -0.77484139373E+02  0.10973892946E+03  0.00000000000E+00 0.  1.
<scales pt_clust_3="47.34438" pt_clust_4="95.44279" pt_clust_5="47.34438" pt_clust_6="77.70998"></scales>
<clustering>
<clus scale="   47.344">  3  5 -1 -1</clus>
<clus scale="   77.710">  2  6  1 -1</clus>
<clus scale="   95.443">  1  4  2 -1</clus>
<clus scale="   95.443">  1  3  2 -1</clus>
</clustering>
</event>
<event>
 6    0  0.1344929E+003  0.5963394E+02  0.7546771E-02  0.1399374E+00
         21   -1    0    0  506  501  0.00000000000E+00  0.00000000000E+00  0.28401400728E+02  0.28401400728E+02  0.00000000000E+00 0.  1.
         21   -1    0    0  503  502 -0.00000000000E+00 -0.00000000000E+00 -0.11459075974E+04  0.11459075974E+04  0.00000000000E+00 0.  1.
         21    1    1    2  503  504  0.59013740312E+02  0.14583548002E+02 -0.70345822904E+03  0.70607986901E+03  0.00000000000E+00 0.  1.
         21    1    1    2  504  501  0.59603097940E+02  0.19178052172E+01 -0.88004388084E+02  0.10630606560E+03  0.00000000000E+00 0.  1.
         21    1    1    2  505  502 -0.57676360509E+02  0.27711451007E+02 -0.23614822746E+03  0.24466399901E+03  0.00000000000E+00 0.  1.
         21    1    1    2  506  505 -0.60940477742E+02 -0.44212804226E+02 -0.89895352128E+02  0.11725906455E+03  0.00000000000E+00 0.  1.
<scales pt_clust_3="14000.00000" pt_clust_4="59.63394" pt_clust_5="58.88107" pt_clust_6="46.70422"></scales>
<clustering>
<clus scale="   59.634">  1  4  2 -1</clus>
<clus scale="   46.704">  1  6  2 -1</clus>
<clus scale="   58.881">  1  5  2 -1</clus>
<clus scale="   59.634">  1  3  2 -1</clus>
</clustering>
</event>
<event>
 6    0  0.1344929E+003  0.1159383E+03  0.7546771E-02  0.1249952E+00
         21   -1    0    0  503  501  0.00000000000E+00  0.00000000000E+00  0.84523066326E+03  0.84523066326E+03  0.00000000000E+00 0.  1.
         21   -1    0    0  506  502 -0.00000000000E+00 -0.00000000000E+00 -0.11021638057E+03  0.11021638057E+03  0.00000000000E+00 0. -1.
         21    1    1    2  503  504 -0.60639983455E+02  0.20492933155E+02  0.53791015351E+03  0.54170517918E+03  0.00000000000E+00 0.  1.
         21    1    1    2  504  502 -0.30987436407E+02 -0.79717138005E+02  0.68234095492E+02  0.10941176854E+03  0.00000000000E+00 0.  1.
         21    1    1    2  505  501  0.29106756349E+01 -0.45298293177E+02  0.15781290527E+03  0.16421120689E+03  0.00000000000E+00 0.  1.
         21    1    1    2  506  505  0.88716744227E+02  0.10452249803E+03 -0.28942871583E+02  0.14011888922E+03  0.00000000000E+00 0. -1.
<scales pt_clust_3="60.30241" pt_clust_4="14000.00000" pt_clust_5="45.39171" pt_clust_6="115.93829"></scales>
<clustering>
<clus scale="   45.392">  1  5  2 -1</clus>
<clus scale="   60.302">  1  3  2 -1</clus>
<clus scale="  115.938">  2  6  1 -1</clus>
<clus scale="   45.392">  1  3  2 -1</clus>
</clustering>
</event>
<event>
 6    0  0.1344929E+003  0.1584347E+03  0.7546771E-02  0.1190475E+00
         21   -1    0    0  506  501  0.00000000000E+00  0.00000000000E+00  0.33528411610E+03  0.33528411610E+03  0.00000000000E+00 0. -1.
         21   -1    0    0  501  502 -0.00000000000E+00 -0.00000000000E+00 -0.15249317802E+04  0.15249317802E+04  0.00000000000E+00 0. -1.
         21    1    1    2  503  504  0.25405355941E+02 -0.47595759661E+02 -0.29060442661E+03  0.29557016293E+03  0.00000000000E+00 0. -1.
         21    1    1    2  504  502 -0.13046408327E+02 -0.30191309339E+02 -0.10043839714E+04  0.10049223283E+04  0.00000000000E+00 0. -1.
         21    1    1    2  505  503 -0.89536325517E+01 -0.71789353761E+02 -0.20381147565E+03  0.21627065556E+03  0.00000000000E+00 0. -1.
         21    1    1    2  506  505 -0.34053150619E+01  0.14957642276E+03  0.30915220959E+03  0.34345274946E+03  0.00000000000E+00 0. -1.
<scales pt_clust_3="48.69219" pt_clust_4="32.88957" pt_clust_5="48.69219" pt_clust_6="148.63070"></scales>
<clustering>
<clus scale="   32.890">  2  4  1 -1</clus>
<clus scale="   48.692">  3  5 -1 -1</clus>
<clus scale="  148.631">  1  6  2 -1</clus>
<clus scale="  148.631">  1  3  2 -1</clus>
</clustering>
</event>
<event>
 6    0  0.1344929E+003  0.1027991E+03  0.7546771E-02  0.1274517E+00
         21   -1    0    0  505  501  0.00000000000E+00  0.00000000000E+00  0.51156126285E+03  0.51156126285E+03  0.00000000000E+00 0. -1.
         21   -1    0    0  504  502 -0.00000000000E+00 -0.00000000000E+00 -0.19714887228E+03  0.19714887228E+03  0.00000000000E+00 0. -1.
         21    1    1    2  503  502  0.50541104537E+02  0.91537259161E+01 -0.16154533028E+03  0.16951426984E+03  0.00000000000E+00 0. -1.
         21    1    1    2  504  501  0.78595685792E+02 -0.16932402577E+02  0.31886004041E+03  0.32883995112E+03  0.00000000000E+00 0. -1.
         21    1    1    2  505  506 -0.10245878077E+03 -0.15256634793E+02  0.12789375495E+03  0.16458243897E+03  0.00000000000E+00 0. -1.
         21    1    1    2  506  503 -0.26678009562E+02  0.23035311454E+02  0.29203925492E+02  0.45773475202E+02  0.00000000000E+00 0. -1.
<scales pt_clust_3="51.36335" pt_clust_4="87.94630" pt_clust_5="31.04820" pt_clust_6="31.04820"></scales>
<clustering>
<clus scale="   31.048">  5  6 -1 -1</clus>
<clus scale="   51.363">  2  3  1 -1</clus>
<clus scale="   87.946">  1  4  2 -1</clus>
<clus scale="   87.946">  1  3  2 -1</clus>
</clustering>
</event>
<event>
 6    0  0.1344929E+003  0.6203446E+02  0.7546771E-02  0.1389487E+00
         21   -1    0    0  504  501  0.00000000000E+00  0.00000000000E+00  0.89225298412E+02  0.89225298412E+02  0.00000000000E+00 0. -1.
         21   -1    0    0  506  502 -0.00000000000E+00 -0.00000000000E+00 -0.26833112412E+03  0.26833112412E+03  0.00000000000E+00 0.  1.
         21    1    1    2  503  502 -0.25638661231E+02 -0.40284476124E+02 -0.48809820362E+02  0.68283076454E+02  0.00000000000E+00 0.  1.
         21    1    1    2  504  503  0.82290554996E+02  0.36957195808E+02 -0.11178004091E+03  0.14363964393E+03  0.00000000000E+00 0.  1.
         21    1    1    2  505  501 -0.10757697436E+02 -0.48620312143E+02  0.32590835074E+02  0.59513236661E+02  0.00000000000E+00 0. -1.
         21    1    1    2  506  505 -0.45894196329E+02  0.51947592459E+02 -0.51106799513E+02  0.86120465486E+02  0.00000000000E+00 0.  1.
<scales pt_clust_3="47.75123" pt_clust_4="14000.00000" pt_clust_5="52.68593" pt_clust_6="62.03446"></scales>
<clustering>
<clus scale="   47.751">  2  3  1 -1</clus>
<clus scale="   52.686">  1  5  2 -1</clus>
<clus scale="   62.034">  1  6  2 -1</clus>
<clus scale="   52.686">  1  3  2 -1</clus>
</clustering>
</event>
<event>
 6    0  0.1344929E+003  0.1124261E+03  0.7546771E-02  0.1256142E+00
         21   -1    0    0  506  501  0.00000000000E+00  0.00000000000E+00  0.88961750003E+02  0.88961750003E+02  0.00000000000E+00 0. -1.
         21   -1    0    0  504  502 -0.00000000000E+00 -0.00000000000E+00 -0.84885084718E+03  0.84885084718E+03  0.00000000000E+00 0.  1.
         21    1    1    2  503  502  0.42149259222E+02  0.95079674751E+01 -0.13871572230E+03  0.14528941156E+03  0.00000000000E+00 0. -1.
         21    1    1    2  504  501  0.36839763523E+02  0.69388699084E+02 -0.20250756263E+02  0.81129851881E+02  0.00000000000E+00 0. -1.
         21    1    1    2  505  503 -0.10957777696E+03 -0.10703740240E+03 -0.63773341755E+03  0.65587209620E+03  0.00000000000E+00 0.  1.
         21    1    1    2  506  505  0.30588754216E+02  0.28140735839E+02  0.36810798945E+02  0.55521237531E+02  0.00000000000E+00 0. -1.
<scales pt_clust_3="46.00320" pt_clust_4="112.42606" pt_clust_5="14000.00000" pt_clust_6="41.56408"></scales>
<clustering>
<clus scale="   41.564">  1  6  2 -1</clus>
<clus scale="   46.003">  2  3  1 -1</clus>
<clus scale="  112.426">  1  4  2 -1</clus>
<clus scale="   41.564">  1  3  2 -1</clus>
</clustering>
</event>
<event>
 6    0  0.1344929E+003  0.1056352E+03  0.7546771E-02  0.1268873E+00
         21   -1    0    0  505  501  0.00000000000E+00  0.00000000000E+00  0.57000956092E+03  0.57000956092E+03  0.00000000000E+00 0.  1.
         21   -1    0    0  504  502 -0.00000000000E+00 -0.00000000000E+00 -0.40600055903E+03  0.40600055903E+03  0.00000000000E+00 0.  1.
         21    1    1    2  503  501 -0.39790952183E+02  0.23861577514E+02 -0.86183664048E+01  0.47190793558E+02  0.00000000000E+00 0.  1.
         21    1    1    2  504  503  0.10688506968E+02  0.30938253615E+02 -0.54891572276E+02  0.63910127717E+02  0.00000000000E+00 0. -1.
         21    1    1    2  505  506  0.97551475236E+02  0.40759029378E+02  0.52997372721E+03  0.54041626578E+03  0.00000000000E+00 0.  1.
         21    1    1    2  506  502 -0.68449030020E+02 -0.95558860507E+02 -0.30245478664E+03  0.32449293289E+03  0.00000000000E+00 0.  1.
<scales pt_clust_3="47.01093" pt_clust_4="32.73255" pt_clust_5="105.63515" pt_clust_6="14000.00000"></scales>
<clustering>
<clus scale="   32.733">  2  4  1 -1</clus>
<clus scale="   47.011">  2  3  1 -1</clus>
<clus scale="  105.635">  1  5  2 -1</clus>
<clus scale="  105.635">  1  3  2 -1</clus>
</clustering>
</event>
<event>
 6    0  0.1344929E+003  0.1865514E+03  0.7546771E-02  0.1161609E+00
         21   -1    0    0  505  501  0.00000000000E+00  0.00000000000E+00  0.33629878374E+03  0.33629878374E+03  0.00000000000E+00 0.  1.
         21   -1    0    0  503  502 -0.00000000000E+00 -0.00000000000E+00 -0.50255148022E+03  0.50255148022E+03  0.00000000000E+00 0.  1.
         21    1    1    2  503  506 -0.29437441965E+02 -0.63463650979E+02 -0.35307556261E+03  0.35993964897E+03  0.00000000000E+00 0.  1.
         21    1    1    2  504  501  0.44088023013E+02  0.63952393241E+02  0.16622384797E+03  0.18347760084E+03  0.00000000000E+00 0.  1.
         21    1    1    2  505  502 -0.47257476598E+02 -0.10835688157E+03 -0.81326695970E+02  0.14348698322E+03  0.00000000000E+00 0.  1.
         21    1    1    2  506  504  0.32606895550E+02  0.10786813930E+03  0.10192571413E+03  0.15194603093E+03  0.00000000000E+00 0.  1.
<scales pt_clust_3="69.95854" pt_clust_4="59.87206" pt_clust_5="172.04948" pt_clust_6="59.87206"></scales>
<clustering>
<clus scale="   59.872">  4  6 -1 -1</clus>
<clus scale="   69.959">  2  3  1 -1</clus>
<clus scale="  172.049">  2  5  1 -1</clus>
<clus scale="  186.551">  1  3  2 -1</clus>
</clustering>
</event>
<event>
 6    0  0.1344929E+003  0.1266039E+03  0.7546771E-02  0.1232584E+00
         21   -1    0    0  505  501  0.00000000000E+00  0.00000000000E+00  0.33270259003E+03  0.33270259003E+03  0.00000000000E+00 0. -1.
         21   -1    0    0  503  502 -0.00000000000E+00 -0.00000000000E+00 -0.24989150937E+03  0.24989150937E+03  0.00000000000E+00 0. -1.
         21    1    1    2  503  506 -0.31679819461E+02 -0.21864186972E+02 -0.11228496414E+03  0.11869948106E+03  0.00000000000E+00 0. -1.
         21    1    1    2  504  502  0.26608422671E+02  0.13998525031E+03 -0.55240539770E+02  0.15282472213E+03  0.00000000000E+00 0. -1.
         21    1    1    2  505  504 -0.28647977390E+02  0.21080615278E+02  0.86074147357E+02  0.93133548157E+02  0.00000000000E+00 0. -1.
         21    1    1    2  506  501  0.33719374180E+02 -0.13920167861E+03  0.16426243721E+03  0.21793634805E+03  0.00000000000E+00 0. -1.
<scales pt_clust_3="38.64789" pt_clust_4="126.60390" pt_clust_5="35.56823" pt_clust_6="14000.00000"></scales>
<clustering>
<clus scale="   35.568">  1  5  2 -1</clus>
<clus scale="   38.648">  2  3  1 -1</clus>
<clus scale="  126.604">  2  4  1 -1</clus>
<clus scale="   35.568">  1  3  2 -1</clus>
</clustering>
</event>
<event>
 6    0  0.1344929E+003  0.1192308E+03  0.7546771E-02  0.1244371E+00
         21   -1    0    0  504  501  0.00000000000E+00  0.00000000000E+00  0.33211020606E+03  0.33211020606E+03  0.00000000000E+00 0.  1.
         21   -1    0    0  506  502 -0.00000000000E+00 -0.00000000000E+00 -0.28603384531E+03  0.28603384531E+03  0.00000000000E+00 0. -1.
         21    1    1    2  503  501 -0.75044192160E+02  0.98673210510E+02  0.12987412365E+03  0.17954197627E+03  0.00000000000E+00 0.  1.
         21    1    1    2  504  502  0.12003912164E+03 -0.38633830797E+02  0.93838710883E+02  0.15718672738E+03  0.00000000000E+00 0.  1.
         21    1    1    2  505  503 -0.14036791842E+02 -0.81632841441E+02  0.15805462203E+02  0.84325351837E+02  0.00000000000E+00 0.  1.
         21    1    1    2  506  505 -0.30958137635E+02  0.21593461728E+02 -0.19344193599E+03  0.19708999588E+03  0.00000000000E+00 0. -1.
<scales pt_clust_3="119.23081" pt_clust_4="14000.00000" pt_clust_5="77.85427" pt_clust_6="37.74498"></scales>
<clustering>
<clus scale="   37.745">  2  6  1 -1</clus>
<clus scale="   77.854">  2  5  1 -1</clus>
<clus scale="  119.231">  1  3  2 -1</clus>
<clus scale="  119.231">  1  3  2 -1</clus>
</clustering>
</event>
<event>
 6    0  0.1344929E+003  0.1392944E+03  0.7546771E-02  0.1214282E+00
         21   -1    0    0  503  501  0.00000000000E+00  0.00000000000E+00  0.14574990545E+04  0.14574990545E+04  0.00000000000E+00 0.  1.
         21   -1    0    0  506  502 -0.00000000000E+00 -0.00000000000E+00 -0.87059767220E+02  0.87059767220E+02  0.00000000000E+00 0.  1.
         21    1    1    2  503  504  0.11721423383E+03 -0.82043868878E+02  0.68549499835E+03  0.70026692467E+03  0.00000000000E+00 0.  1.
         21    1    1    2  504  502  0.89616152418E+01  0.37883493003E+02 -0.62694752042E+02  0.73797706763E+02  0.00000000000E+00 0.  1.
         21    1    1    2  505  501 -0.18837008241E+02 -0.33718527803E+02  0.33131986350E+03  0.33356352311E+03  0.00000000000E+00 0.  1.
         21    1    1    2  506  505 -0.10733884083E+03  0.77878903678E+02  0.41631917749E+03  0.43693066719E+03  0.00000000000E+00 0. -1.
<scales pt_clust_3="139.29437" pt_clust_4="38.74576" pt_clust_5="38.62346" pt_clust_6="14000.00000"></scales>
<clustering>
<clus scale="   38.623">  1  5  2 -1</clus>
<clus scale="   38.746">  2  4  1 -1</clus>
<clus scale="  139.294">  1  3  2 -1</clus>
<clus scale="   38.623">  1  3  2 -1</clus>
</clustering>
</event>
<event>
 6    0  0.1344929E+003  0.7907112E+02  0.7546771E-02  0.1331708E+00
         21   -1    0    0  505  501  0.00000000000E+00  0.00000000000E+00  0.20551677248E+04  0.20551677248E+04  0.00000000000E+00 0. -1.
         21   -1    0    0  506  502 -0.00000000000E+00 -0.00000000000E+00 -0.56657432358E+02  0.56657432358E+02  0.00000000000E+00 0.  1.
         21    1    1    2  503  501  0.12843810819E+02  0.11102886474E+03  0.17281841155E+04  0.17317946499E+04  0.00000000000E+00 0. -1.
         21    1    1    2  504  503 -0.49040152499E+02 -0.35273079386E+02 -0.14305093155E+02  0.62078678922E+02  0.00000000000E+00 0.  1.
         21    1    1    2  505  502  0.97003596371E+01 -0.34453188253E+02  0.26107989817E+03  0.26352197705E+03  0.00000000000E+00 0.  1.
         21    1    1    2  506  504  0.26495982043E+02 -0.41302597103E+02  0.23551371890E+02  0.54429851274E+02  0.00000000000E+00 0.  1.
<scales pt_clust_3="79.07112" pt_clust_4="14000.00000" pt_clust_5="35.79272" pt_clust_6="49.81587"></scales>
<clustering>
<clus scale="   35.793">  1  5  2 -1</clus>
<clus scale="   49.816">  2  6  1 -1</clus>
<clus scale="   79.071">  1  3  2 -1</clus>
<clus scale="   35.793">  1  3  2 -1</clus>
</clustering>
</event>
<event>
 6    0  0.1344929E+003  0.1583199E+03  0.7546771E-02  0.1190607E+00
         21   -1    0    0  503  501  0.00000000000E+00  0.00000000000E+00  0.49081973302E+03  0.49081973302E+03  0.00000000000E+00 0.  1.
         21   -1    0    0  505  502 -0.00000000000E+00 -0.00000000000E+00 -0.27428214699E+03  0.27428214699E+03  0.00000000000E+00 0. -1.
         21    1    1    2  503  506 -0.38195667533E+02 -0.16836982591E+02  0.15851003384E+03  0.16391407453E+03  0.00000000000E+00 0.  1.
         21    1    1    2  504  501  0.36379156100E+02 -0.97707443405E+02 -0.17800401615E+03  0.20629012885E+03  0.00000000000E+00 0. -1.
         21    1    1    2  505  504  0.39431691346E+02 -0.32388524574E+02 -0.49810312271E+02  0.71308779368E+02  0.00000000000E+00 0. -1.
         21    1    1    2  506  502 -0.37615179912E+02  0.14693295057E+03  0.28584188061E+03  0.32358889727E+03  0.00000000000E+00 0.  1.
<scales pt_clust_3="41.74198" pt_clust_4="34.90642" pt_clust_5="34.90642" pt_clust_6="150.25200"></scales>
<clustering>
<clus scale="   34.906">  4  5 -1 -1</clus>
<clus scale="   41.742">  1  3  2 -1</clus>
<clus scale="  150.252">  1  6  2 -1</clus>
<clus scale="   41.742">  1  3  2 -1</clus>
</clustering>
</event>
<event>
 6    0  0.1344929E+003  0.7156253E+02  0.7546771E-02  0.1354859E+00
         21   -1    0    0  503  501  0.00000000000E+00  0.00000000000E+00  0.50942869855E+03  0.50942869855E+03  0.00000000000E+00 0.  1.
         21   -1    0    0  505  502 -0.00000000000E+00 -0.00000000000E+00 -0.23969193470E+03  0.23969193470E+03  0.00000000000E+00 0.  1.
         21    1    1    2  503  504 -0.44300490138E+02 -0.12969590095E+02  0.11238492333E+03  0.12149532783E+03  0.00000000000E+00 0.  1.
         21    1    1    2  504  502 -0.16857433822E+02 -0.58597957318E+02  0.21833116699E+02  0.64765566945E+02  0.00000000000E+00 0. -1.
         21    1    1    2  505  506 -0.35506363976E+02  0.66879603913E+02 -0.19989888812E+03  0.21375955833E+03  0.00000000000E+00 0.  1.
         21    1    1    2  506  501  0.96664287936E+02  0.46879434995E+01  0.33541761194E+03  0.34910018015E+03  0.00000000000E+00 0.  1.
<scales pt_clust_3="46.15998" pt_clust_4="71.56253" pt_clust_5="14000.00000" pt_clust_6="58.40983"></scales>
<clustering>
<clus scale="   46.160">  1  3  2 -1</clus>
<clus scale="   58.410">  1  6  2 -1</clus>
<clus scale="   71.563">  1  4  2 -1</clus>
<clus scale="   46.160">  1  3  2 -1</clus>
</clustering>
</event>
<event>
 6    0  0.1344929E+003  0.7202240E+02  0.7546771E-02  0.1353348E+00
         21   -1    0    0  506  501  0.00000000000E+00  0.00000000000E+00  0.34615433686E+03  0.34615433686E+03  0.00000000000E+00 0.  1.
         21   -1    0    0  505  502 -0.00000000000E+00 -0.00000000000E+00 -0.72136218635E+02  0.72136218635E+02  0.00000000000E+00 0.  1.
         21    1    1    2  503  501 -0.95901435644E+02  0.49883802583E+02  0.21224246738E+03  0.23818552449E+03  0.00000000000E+00 0.  1.
         21    1    1    2  504  502  0.46466290966E+02  0.24452845625E+02 -0.47536236698E+01  0.52722431595E+02  0.00000000000E+00 0.  1.
         21    1    1    2  505  503  0.22022710038E+02 -0.52928086647E+02  0.60897674848E+01  0.57649521954E+02  0.00000000000E+00 0.  1.
         21    1    1    2  506  504  0.27412434641E+02 -0.21408561562E+02  0.60439507032E+02  0.69733077455E+02  0.00000000000E+00 0. -1.
<scales pt_clust_3="14000.00000" pt_clust_4="53.79507" pt_clust_5="72.02240" pt_clust_6="34.78172"></scales>
<clustering>
<clus scale="   34.782">  1  6  2 -1</clus>
<clus scale="   53.795">  2  4  1 -1</clus>
<clus scale="   72.022">  2  5  1 -1</clus>
<clus scale="   34.782">  1  3  2 -1</clus>
</clustering>
</event>
<event>
 6    0  0.1344929E+003  0.1124707E+03  0.7546771E-02  0.1256062E+00
         21   -1    0    0  503  501  0.00000000000E+00  0.00000000000E+00  0.28359215380E+03  0.28359215380E+03  0.00000000000E+00 0. -1.
         21   -1    0    0  504  502 -0.00000000000E+00 -0.00000000000E+00 -0.22876544736E+03  0.22876544736E+03  0.00000000000E+00 0. -1.
         21    1    1    2  503  505  0.27756426310E+02  0.16557915106E+02  0.16985600936E+03  0.17290357911E+03  0.00000000000E+00 0. -1.
         21    1    1    2  504  506  0.56953652091E+02 -0.15407656487E+02 -0.72828976642E+02  0.93729260125E+02  0.00000000000E+00 0. -1.
         21    1    1    2  505  502  0.52161095467E+02  0.67667550080E+02 -0.35085718964E+02  0.92361706834E+02  0.00000000000E+00 0. -1.
         21    1    1    2  506  501 -0.13687117387E+03 -0.68817808699E+02 -0.71146073105E+01  0.15336305509E+03  0.00000000000E+00 0. -1.
<scales pt_clust_3="32.32002" pt_clust_4="61.13179" pt_clust_5="14000.00000" pt_clust_6="112.47069"></scales>
<clustering>
<clus scale="   32.320">  1  3  2 -1</clus>
<clus scale="   61.132">  2  4  1 -1</clus>
<clus scale="  112.471">  1  6  2 -1</clus>
<clus scale="   32.320">  1  3  2 -1</clus>
</clustering>
</event>
<event>
 6    0  0.1344929E+003  0.2172810E+03  0.7546771E-02  0.1135927E+00
         21   -1    0    0  506  501  0.00000000000E+00  0.00000000000E+00  0.12032419114E+04  0.12032419114E+04  0.00000000000E+00 0.  1.
         21   -1    0    0  505  502 -0.00000000000E+00 -0.00000000000E+00 -0.17039028311E+03  0.17039028311E+03  0.00000000000E+00 0.  1.
         21    1    1    2  503  504  0.18874628605E+03  0.34961317900E+02  0.12098135954E+03  0.22690073513E+03  0.00000000000E+00 0.  1.
         21    1    1    2  504  501  0.30085596669E+02 -0.80776226290E+01  0.83209541220E+03  0.83267830890E+03  0.00000000000E+00 0.  1.
         21    1    1    2  505  503  0.29331398966E+02 -0.29518215771E+02 -0.20493794474E+02  0.46385899145E+02  0.00000000000E+00 0.  1.
         21    1    1    2  506  502 -0.24816328168E+03  0.26345204996E+01  0.10026865107E+03  0.26766725138E+03  0.00000000000E+00 0.  1.
<scales pt_clust_3="217.28096" pt_clust_4="31.15110" pt_clust_5="42.55697" pt_clust_6="14000.00000"></scales>
<clustering>
<clus scale="   31.151">  1  4  2 -1</clus>
<clus scale="   42.557">  2  5  1 -1</clus>
<clus scale="  217.281">  1  3  2 -1</clus>
<clus scale="   31.151">  1  3  2 -1</clus>
</clustering>
</event>
<event>
 6    0  0.1344929E+003  0.1082576E+03  0.7546771E-02  0.1263831E+00
         21   -1    0    0  503  501  0.00000000000E+00  0.00000000000E+00  0.10265455133E+04  0.10265455133E+04  0.00000000000E+00 0. -1.
         21   -1    0    0  505  502 -0.00000000000E+00 -0.00000000000E+00 -0.87866195376E+03  0.87866195376E+03  0.00000000000E+00 0.  1.
         21    1    1    2  503  504  0.42127254071E+02  0.51946677406E+02  0.71552877647E+03  0.71864775293E+03  0.00000000000E+00 0. -1.
         21    1    1    2  504  502 -0.87840070621E+02 -0.27193672042E+02 -0.37441040863E+03  0.38553667516E+03  0.00000000000E+00 0. -1.
         21    1    1    2  505  506  0.12043137611E+03  0.71367470263E+02 -0.47440418452E+03  0.49462749869E+03  0.00000000000E+00 0.  1.
         21    1    1    2  506  501 -0.74718559563E+02 -0.96120475626E+02  0.28116937621E+03  0.30639554026E+03  0.00000000000E+00 0. -1.
<scales pt_clust_3="66.88171" pt_clust_4="14000.00000" pt_clust_5="108.25763" pt_clust_6="58.27990"></scales>
<clustering>
<clus scale="   66.882">  1  3  2 -1</clus>
<clus scale="   58.280">  1  6  2 -1</clus>
<clus scale="  108.258">  1  5  2 -1</clus>
<clus scale="   66.882">  1  3  2 -1</clus>
</clustering>
</event>
<event>
 6    0  0.1344929E+003  0.1300055E+03  0.7546771E-02  0.1227448E+00
         21   -1    0    0  502  501  0.00000000000E+00  0.00000000000E+00  0.15335019596E+03  0.15335019596E+03  0.00000000000E+00 0.  1.
         21   -1    0    0  506  502 -0.00000000000E+00 -0.00000000000E+00 -0.68914376351E+03  0.68914376351E+03  0.00000000000E+00 0. -1.
         21    1    1    2  503  504  0.70961498817E+02  0.11067672004E+02 -0.11184141378E+03  0.13291549765E+03  0.00000000000E+00 0. -1.
         21    1    1    2  504  505 -0.70034150974E+02 -0.10072668432E+03 -0.11317565040E+03  0.16691127907E+03  0.00000000000E+00 0. -1.
         21    1    1    2  505  501  0.25187525716E+02  0.13209450952E+03  0.74804439246E+02  0.15388006703E+03  0.00000000000E+00 0.  1.
         21    1    1    2  506  503 -0.26114873559E+02 -0.42435497204E+02 -0.38558094261E+03  0.38878711572E+03  0.00000000000E+00 0. -1.
<scales pt_clust_3="60.68809" pt_clust_4="14000.00000" pt_clust_5="130.00545" pt_clust_6="49.82728"></scales>
<clustering>
<clus scale="   49.827">  2  6  1 -1</clus>
<clus scale="   60.688">  2  3  1 -1</clus>
<clus scale="  130.005">  1  5  2 -1</clus>
<clus scale="  130.005">  1  3  2 -1</clus>
</clustering>
</event>
<event>
 6    0  0.1344929E+003  0.8391398E+02  0.7546771E-02  0.1318297E+00
         21   -1    0    0  502  501  0.00000000000E+00  0.00000000000E+00  0.13482358090E+04  0.13482358090E+04  0.00000000000E+00 0.  1.
         21   -1    0    0  503  502 -0.00000000000E+00 -0.00000000000E+00 -0.23130671236E+03  0.23130671236E+03  0.00000000000E+00 0. -1.
         21    1    1    2  503  506  0.12227522650E+02 -0.47576004718E+02 -0.20602808734E+03  0.21180311921E+03  0.00000000000E+00 0. -1.
         21    1    1    2  504  501 -0.36782484506E+02 -0.27771932469E+02  0.34693782343E+03  0.34998583504E+03  0.00000000000E+00 0. -1.
         21    1    1    2  505  504  0.71896249942E+02  0.10902627076E+03  0.94078388380E+03  0.94980530347E+03  0.00000000000E+00 0.  1.
         21    1    1    2  506  505 -0.47341288086E+02 -0.33678333572E+02  0.35235476715E+02  0.67948263621E+02  0.00000000000E+00 0. -1.
<scales pt_clust_3="49.17357" pt_clust_4="46.08938" pt_clust_5="83.91398" pt_clust_6="14000.00000"></scales>
<clustering>
<clus scale="   46.089">  1  4  2 -1</clus>
<clus scale="   49.174">  2  3  1 -1</clus>
<clus scale="   83.914">  1  5  2 -1</clus>
<clus scale="   46.089">  1  3  2 -1</clus>
</clustering>
</event>
<event>
 6    0  0.1344929E+003  0.1231860E+03  0.7546771E-02  0.1237932E+00
         21   -1    0    0  504  501  0.00000000000E+00  0.00000000000E+00  0.16860336133E+04  0.16860336133E+04  0.00000000000E+00 0.  1.
         21   -1    0    0  503  502 -0.00000000000E+00 -0.00000000000E+00 -0.11952280606E+03  0.11952280606E+03  0.00000000000E+00 0. -1.
         21    1    1    2  503  506 -0.61490956524E+02 -0.98605972293E+02  0.13576983231E+03  0.17871128356E+03  0.00000000000E+00 0. -1.
         21    1    1    2  504  502  0.12850429641E+03  0.34043156517E+02 -0.46619332541E+02  0.14087459980E+03  0.00000000000E+00 0. -1.
         21    1    1    2  505  501  0.12676698339E+02  0.44897740701E+02  0.10355492315E+04  0.10365995932E+04  0.00000000000E+00 0.  1.
         21    1    1    2  506  505 -0.79690038225E+02  0.19665075075E+02  0.44181107605E+03  0.44937094286E+03  0.00000000000E+00 0.  1.
<scales pt_clust_3="123.18602" pt_clust_4="14000.00000" pt_clust_5="46.65304" pt_clust_6="87.09564"></scales>
<clustering>
<clus scale="   46.653">  1  5  2 -1</clus>
<clus scale="   87.096">  1  6  2 -1</clus>
<clus scale="  123.186">  1  3  2 -1</clus>
<clus scale="   46.653">  1  3  2 -1</clus>
</clustering>
</event>
<event>
 6    0  0.1344929E+003  0.8362041E+02  0.7546771E-02  0.1319080E+00
         21   -1    0    0  505  501  0.00000000000E+00  0.00000000000E+00  0.75014659993E+02  0.75014659993E+02  0.00000000000E+00 0. -1.
         21   -1    0    0  503  502 -0.00000000000E+00 -0.00000000000E+00 -0.38067542683E+03  0.38067542683E+03  0.00000000000E+00 0. -1.
         21    1    1    2  503  506  0.55748029873E+02 -0.92221132131E+02 -0.11398846294E+03  0.15686283731E+03  0.00000000000E+00 0. -1.
         21    1    1    2  504  502 -0.57300248369E+02  0.50367596530E+02 -0.18488688913E+03  0.20000843736E+03  0.00000000000E+00 0. -1.
         21    1    1    2  505  504 -0.42373508185E+02  0.95485756285E+01 -0.85267677617E+01  0.44265056884E+02  0.00000000000E+00 0. -1.
         21    1    1    2  506  501  0.43925726682E+02  0.32304959973E+02  0.17413529936E+01  0.54553755266E+02  0.00000000000E+00 0. -1.
<scales pt_clust_3="83.62041" pt_clust_4="14000.00000" pt_clust_5="43.43604" pt_clust_6="43.60167"></scales>
<clustering>
<clus scale="   43.436">  1  5  2 -1</clus>
<clus scale="   43.602">  1  6  2 -1</clus>
<clus scale="   83.620">  1  3  2 -1</clus>
<clus scale="   43.436">  1  3  2 -1</clus>
</clustering>
</event>
<event>
 6    0  0.1344929E+003  0.2403782E+03  0.7546771E-02  0.1119541E+00
         21   -1    0    0  504  501  0.00000000000E+00  0.00000000000E+00  0.50985160752E+03  0.50985160752E+03  0.00000000000E+00 0. -1.
         21   -1    0    0  506  502 -0.00000000000E+00 -0.00000000000E+00 -0.40749561908E+03  0.40749561908E+03  0.00000000000E+00 0. -1.
         21    1    1    2  503  501 -0.14601065695E+03  0.12960806135E+03  0.27104108026E+03  0.33403686727E+03  0.00000000000E+00 0. -1.
         21    1    1    2  504  505  0.19136021517E+03 -0.10303302947E+03 -0.97934896372E+01  0.21755562404E+03  0.00000000000E+00 0. -1.
         21    1    1    2  505  502  0.21228077129E+01 -0.32057325933E+02 -0.25574417374E+03  0.25775426449E+03  0.00000000000E+00 0. -1.
         21    1    1    2  506  503 -0.47472365939E+02  0.54822940553E+01  0.96852571562E+02  0.10800047081E+03  0.00000000000E+00 0.  1.
<scales pt_clust_3="33.02437" pt_clust_4="231.11793" pt_clust_5="32.12753" pt_clust_6="33.02437"></scales>
<clustering>
<clus scale="   32.128">  2  5  1 -1</clus>
<clus scale="   33.024">  3  6 -1 -1</clus>
<clus scale="  231.118">  2  4  1 -1</clus>
<clus scale="  240.378">  1  3  2 -1</clus>
</clustering>
</event>
<event>
 6    0  0.1344929E+003  0.9487286E+02  0.7546771E-02  0.1291463E+00
         21   -1    0    0  505  501  0.00000000000E+00  0.00000000000E+00  0.26383244343E+03  0.26383244343E+03  0.00000000000E+00 0.  1.
         21   -1    0    0  506  502 -0.00000000000E+00 -0.00000000000E+00 -0.15317967857E+04  0.15317967857E+04  0.00000000000E+00 0.  1.
         21    1    1    2  503  504 -0.75404148406E+02 -0.64678237968E+02 -0.12626159130E+04  0.12665180630E+04  0.00000000000E+00 0.  1.
         21    1    1    2  504  502  0.37597576230E+02 -0.21558077340E+02 -0.22530880082E+03  0.22943928209E+03  0.00000000000E+00 0.  1.
         21    1    1    2  505  503  0.61799190692E+02  0.12756852209E+03  0.20567738168E+03  0.24979201975E+03  0.00000000000E+00 0.  1.
         21    1    1    2  506  501 -0.23992618515E+02 -0.41332206782E+02  0.14282989913E+02  0.49879864290E+02  0.00000000000E+00 0.  1.
<scales pt_clust_3="14000.00000" pt_clust_4="43.33969" pt_clust_5="94.87286" pt_clust_6="47.79169"></scales>
<clustering>
<clus scale="   43.340">  2  4  1 -1</clus>
<clus scale="   47.792">  1  6  2 -1</clus>
<clus scale="   94.873">  1  5  2 -1</clus>
<clus scale="   47.792">  1  3  2 -1</clus>
</clustering>
</event>
<event>
 6    0  0.1344929E+003  0.6205829E+02  0.7546771E-02  0.1389392E+00
         21   -1    0    0  503  501  0.00000000000E+00  0.00000000000E+00  0.13036475906E+04  0.13036475906E+04  0.00000000000E+00 0. -1.
         21   -1    0    0  506  502 -0.00000000000E+00 -0.00000000000E+00 -0.19326368395E+03  0.19326368395E+03  0.00000000000E+00 0.  1.
         21    1    1    2  503  505 -0.83825784202E+02  0.78958845500E+02  0.53658246627E+03  0.54880051430E+03  0.00000000000E+00 0. -1.
         21    1    1    2  504  501  0.46025083277E+02 -0.33797243367E+02  0.73592855722E+03  0.73814050376E+03  0.00000000000E+00 0. -1.
         21    1    1    2  505  502  0.41774622765E+01  0.40752900551E+02 -0.44651483474E+02  0.60597071471E+02  0.00000000000E+00 0.  1.
         21    1    1    2  506  504  0.33623238648E+02 -0.85914502684E+02 -0.11747563341E+03  0.14937318499E+03  0.00000000000E+00 0.  1.
<scales pt_clust_3="62.05829" pt_clust_4="56.93880" pt_clust_5="40.96645" pt_clust_6="14000.00000"></scales>
<clustering>
<clus scale="   40.966">  2  5  1 -1</clus>
<clus scale="   56.939">  1  4  2 -1</clus>
<clus scale="   62.058">  1  3  2 -1</clus>
<clus scale="   56.939">  1  3  2 -1</clus>
</clustering>
</event>
<event>
 6    0  0.1344929E+003  0.1086103E+03  0.7546771E-02  0.1263165E+00
         21   -1    0    0  505  501  0.00000000000E+00  0.00000000000E+00  0.48579216073E+03  0.48579216073E+03  0.00000000000E+00 0.  1.
         21   -1    0    0  506  502 -0.00000000000E+00 -0.00000000000E+00 -0.24500828293E+04  0.24500828293E+04  0.00000000000E+00 0.  1.
         21    1    1    2  503  501  0.10254584577E+03 -0.35616901080E+02  0.44639359750E+03  0.45940337180E+03  0.00000000000E+00 0.  1.
         21    1    1    2  504  502  0.29181667032E+02 -0.30214419984E+02 -0.20844760564E+04  0.20848992567E+04  0.00000000000E+00 0.  1.
         21    1    1    2  505  504 -0.12423165090E+03 -0.23366614107E+02 -0.17551245682E+03  0.21629638054E+03  0.00000000000E+00 0.  1.
         21    1    1    2  506  503 -0.74958619042E+01  0.89197935171E+02 -0.15069575290E+03  0.17527598103E+03  0.00000000000E+00 0.  1.
<scales pt_clust_3="108.61030" pt_clust_4="42.00572" pt_clust_5="14000.00000" pt_clust_6="75.92167"></scales>
<clustering>
<clus scale="   42.006">  2  4  1 -1</clus>
<clus scale="   75.922">  2  6  1 -1</clus>
<clus scale="  108.610">  1  3  2 -1</clus>
<clus scale="  108.610">  1  3  2 -1</clus>
</clustering>
</event>
<event>
 6    0  0.1344929E+003  0.9960379E+02  0.7546771E-02  0.1281131E+00
         21   -1    0    0  506  501  0.00000000000E+00  0.00000000000E+00  0.11397187235E+04  0.11397187235E+04  0.00000000000E+00 0. -1.
         21   -1    0    0  503  502 -0.00000000000E+00 -0.00000000000E+00 -0.11557017667E+03  0.11557017667E+03  0.00000000000E+00 0. -1.
         21    1    1    2  503  505  0.47884556445E+02 -0.59854830112E+02  0.45346829305E+02  0.89061026053E+02  0.00000000000E+00 0. -1.
         21    1    1    2  504  502 -0.27058895149E+02 -0.55315063152E+02 -0.76837053466E+02  0.98467623124E+02  0.00000000000E+00 0. -1.
         21    1    1    2  505  501 -0.11643271464E+02  0.51398099349E+02  0.13579305417E+03  0.14566085249E+03  0.00000000000E+00 0. -1.
         21    1    1    2  506  504 -0.91823898318E+01  0.63771793915E+02  0.91984571680E+03  0.92209939849E+03  0.00000000000E+00 0. -1.
<scales pt_clust_3="99.60379" pt_clust_4="61.13532" pt_clust_5="52.70038" pt_clust_6="14000.00000"></scales>
<clustering>
<clus scale="   52.700">  1  5  2 -1</clus>
<clus scale="   61.135">  2  4  1 -1</clus>
<clus scale="   99.604">  2  3  1 -1</clus>
<clus scale="   52.700">  1  3  2 -1</clus>
</clustering>
</event>
<event>
 6    0  0.1344929E+003  0.1149299E+03  0.7546771E-02  0.1251703E+00
         21   -1    0    0  506  501  0.00000000000E+00  0.00000000000E+00  0.11387305859E+04  0.11387305859E+04  0.00000000000E+00 0. -1.
         21   -1    0    0  505  502 -0.00000000000E+00 -0.00000000000E+00 -0.50466291394E+03  0.50466291394E+03  0.00000000000E+00 0. -1.
         21    1    1    2  503  501  0.34778064276E+02 -0.24772366906E+02  0.85023094528E+03  0.85130243993E+03  0.00000000000E+00 0. -1.
         21    1    1    2  504  503  0.95579129138E+02 -0.11293746249E+02  0.54624711297E+02  0.11066516035E+03  0.00000000000E+00 0. -1.
         21    1    1    2  505  504  0.32182685960E+01  0.97501029515E+02 -0.44379113746E+03  0.45438681945E+03  0.00000000000E+00 0. -1.
         21    1    1    2  506  502 -0.13357546201E+03 -0.61434916360E+02  0.17300315281E+03  0.22703908007E+03  0.00000000000E+00 0. -1.
<scales pt_clust_3="42.69876" pt_clust_4="14000.00000" pt_clust_5="97.12194" pt_clust_6="114.92991"></scales>
<clustering>
<clus scale="   42.699">  1  3  2 -1</clus>
<clus scale="   97.122">  2  5  1 -1</clus>
<clus scale="  114.930">  1  6  2 -1</clus>
<clus scale="   42.699">  1  3  2 -1</clus>
</clustering>
</event>
<event>
 6    0  0.1344929E+003  0.1257251E+03  0.7546771E-02  0.1233940E+00
         21   -1    0    0  504  501  0.00000000000E+00  0.00000000000E+00  0.38309980937E+03  0.38309980937E+03  0.00000000000E+00 0.  1.
         21   -1    0    0  506  502 -0.00000000000E+00 -0.00000000000E+00 -0.65056233578E+03  0.65056233578E+03  0.00000000000E+00 0.  1.
         21    1    1    2  503  505 -0.69409054577E+02  0.61734959142E+02 -0.10055762320E+03  0.13689652158E+03  0.00000000000E+00 0.  1.
         21    1    1    2  504  502 -0.39318619404E+02 -0.52570302926E+01  0.27231159868E+03  0.27518574995E+03  0.00000000000E+00 0.  1.
         21    1    1    2  505  501 -0.33532629091E+02 -0.14296471386E+02  0.76607429041E+02  0.84838225418E+02  0.00000000000E+00 0.  1.
         21    1    1    2  506  503  0.14226030307E+03 -0.42181457464E+02 -0.51582393094E+03  0.53674164820E+03  0.00000000000E+00 0.  1.
<scales pt_clust_3="125.72511" pt_clust_4="72.01422" pt_clust_5="36.45307" pt_clust_6="14000.00000"></scales>
<clustering>
<clus scale="   36.453">  1  5  2 -1</clus>
<clus scale="   72.014">  1  4  2 -1</clus>
<clus scale="  125.725">  1  3  2 -1</clus>
<clus scale="   36.453">  1  3  2 -1</clus>
</clustering>
</event>
<event>
 6    0  0.1344929E+003  0.7827339E+02  0.7546771E-02  0.1334024E+00
         21   -1    0    0  505  501  0.00000000000E+00  0.00000000000E+00  0.96214734422E+03  0.96214734422E+03  0.00000000000E+00 0.  1.
         21   -1    0    0  504  502 -0.00000000000E+00 -0.00000000000E+00 -0.10747925283E+03  0.10747925283E+03  0.00000000000E+00 0.  1.
         21    1    1    2  503  502 -0.58600051125E+02  0.49243399536E+02 -0.74162573591E+02  0.10657844863E+03  0.00000000000E+00 0.  1.
         21    1    1    2  504  506  0.72789961573E+02 -0.91560731754E+02  0.33207845592E+03  0.35207647890E+03  0.00000000000E+00 0.  1.
         21    1    1    2  505  503 -0.37575735303E+02  0.17253834004E+02  0.58544946656E+02  0.71673854719E+02  0.00000000000E+00 0.  1.
         21    1    1    2  506  501  0.23385824855E+02  0.25063498214E+02  0.53820726240E+03  0.53929781480E+03  0.00000000000E+00 0.  1.
<scales pt_clust_3="14000.00000" pt_clust_4="78.27339" pt_clust_5="40.00195" pt_clust_6="34.27938"></scales>
<clustering>
<clus scale="   34.279">  1  6  2 -1</clus>
<clus scale="   40.002">  1  5  2 -1</clus>
<clus scale="   78.273">  1  4  2 -1</clus>
<clus scale="   34.279">  1  3  2 -1</clus>
</clustering>
</event>
<event>
 6    0  0.1344929E+003  0.7597807E+02  0.7546771E-02  0.1340869E+00
         21   -1    0    0  505  501  0.00000000000E+00  0.00000000000E+00  0.14161330842E+02  0.14161330842E+02  0.00000000000E+00 0.  1.
         21   -1    0    0  506  502 -0.00000000000E+00 -0.00000000000E+00 -0.27338394753E+04  0.27338394753E+04  0.00000000000E+00 0. -1.
         21    1    1    2  503  501  0.54682530597E+02  0.19335894909E+02 -0.10684413190E+03  0.12157189028E+03  0.00000000000E+00 0.  1.
         21    1    1    2  504  503  0.41425455063E+02 -0.75278938612E+02 -0.46048456195E+03  0.46843251245E+03  0.00000000000E+00 0.  1.
         21    1    1    2  505  502 -0.23188566494E+02  0.29649016659E+02 -0.16935237584E+03  0.17348487256E+03  0.00000000000E+00 0.  1.
         21    1    1    2  506  504 -0.72919419166E+02  0.26294027044E+02 -0.19829970748E+04  0.19845115309E+04  0.00000000000E+00 0. -1.
<scales pt_clust_3="55.16599" pt_clust_4="75.97807" pt_clust_5="37.64006" pt_clust_6="14000.00000"></scales>
<clustering>
<clus scale="   37.640">  1  5  2 -1</clus>
<clus scale="   55.166">  1  3  2 -1</clus>
<clus scale="   75.978">  1  4  2 -1</clus>
<clus scale="   37.640">  1  3  2 -1</clus>
</clustering>
</event>
<event>
 6    0  0.1344929E+003  0.8877034E+02  0.7546771E-02  0.1305857E+00
         21   -1    0    0  503  501  0.00000000000E+00  0.00000000000E+00  0.20022450922E+03  0.20022450922E+03  0.00000000000E+00 0.  1.
         21   -1    0    0  504  502 -0.00000000000E+00 -0.00000000000E+00 -0.24663287908E+03  0.24663287908E+03  0.00000000000E+00 0.  1.
         21    1    1    2  503  502 -0.77936261101E+02  0.19234905398E+02 -0.52853997094E+02  0.96112368553E+02  0.00000000000E+00 0.  1.
         21    1    1    2  504  505 -0.19622008906E+02  0.25685692672E+02 -0.11002212242E+03  0.11467190355E+03  0.00000000000E+00 0.  1.
         21    1    1    2  505  506  0.11643045848E+02 -0.82060385768E+02 -0.46393046716E+01  0.83011990561E+02  0.00000000000E+00 0.  1.
         21    1    1    2  506  501  0.85915224158E+02  0.37139787699E+02  0.12110705433E+03  0.15306112563E+03  0.00000000000E+00 0.  1.
<scales pt_clust_3="14000.00000" pt_clust_4="32.32303" pt_clust_5="73.86363" pt_clust_6="88.77034"></scales>
<clustering>
<clus scale="   32.323">  2  4  1 -1</clus>
<clus scale="   73.864">  2  5  1 -1</clus>
<clus scale="   88.770">  1  6  2 -1</clus>
<clus scale="   88.770">  1  3  2 -1</clus>
</clustering>
</event>
<event>
 6    0  0.1344929E+003  0.9243706E+02  0.7546771E-02  0.1297055E+00
         21   -1    0    0  505  501  0.00000000000E+00  0.00000000000E+00  0.22387137068E+02  0.22387137068E+02  0.00000000000E+00 0. -1.
         21   -1    0    0  504  502 -0.00000000000E+00 -0.00000000000E+00 -0.24797552702E+04  0.24797552702E+04  0.00000000000E+00 0. -1.
         21    1    1    2  503  506 -0.48748988084E+02 -0.83499245795E+02 -0.61354221928E+03  0.62111403360E+03  0.00000000000E+00 0. -1.
         21    1    1    2  504  503  0.23888089475E+02  0.87255128144E+02 -0.99992014406E+03  0.10040041796E+04  0.00000000000E+00 0. -1.
         21    1    1    2  505  502 -0.42939786378E+02  0.15676687308E+02 -0.78153830492E+03  0.78287400380E+03  0.00000000000E+00 0. -1.
         21    1    1    2  506  501  0.67800684987E+02 -0.19432569657E+02 -0.62367464867E+02  0.94150190239E+02  0.00000000000E+00 0. -1.
<scales pt_clust_3="92.43706" pt_clust_4="14000.00000" pt_clust_5="45.71197" pt_clust_6="68.42863"></scales>
<clustering>
<clus scale="   45.712">  2  5  1 -1</clus>
<clus scale="   68.429">  1  6  2 -1</clus>
<clus scale="   92.437">  1  3  2 -1</clus>
<clus scale="   68.429">  1  3  2 -1</clus>
</clustering>
</event>
<event>
 6    0  0.1344929E+003  0.8789213E+02  0.7546771E-02  0.1308038E+00
         21   -1    0    0  503  501  0.00000000000E+00  0.00000000000E+00  0.43286641485E+03  0.43286641485E+03  0.00000000000E+00 0.  1.
         21   -1    0    0  506  502 -0.00000000000E+00 -0.00000000000E+00 -0.30134645548E+03  0.30134645548E+03  0.00000000000E+00 0.  1.
         21    1    1    2  503  505 -0.11454543445E+02 -0.11710851988E+03  0.88056414175E+02  0.14696783346E+03  0.00000000000E+00 0.  1.
         21    1    1    2  504  501 -0.37881474678E+02  0.35301629315E+02  0.30047950578E+03  0.30490841994E+03  0.00000000000E+00 0.  1.
         21    1    1    2  505  502  0.22726971481E+01  0.44495363387E+02 -0.17560755635E+03  0.18117123492E+03  0.00000000000E+00 0.  1.
         21    1    1    2  506  504  0.47063320975E+02  0.37311527175E+02 -0.81408404225E+02  0.10116538202E+03  0.00000000000E+00 0.  1.
<scales pt_clust_3="14000.00000" pt_clust_4="52.30041" pt_clust_5="44.55337" pt_clust_6="87.89213"></scales>
<clustering>
<clus scale="   44.553">  2  5  1 -1</clus>
<clus scale="   52.300">  1  4  2 -1</clus>
<clus scale="   87.892">  2  6  1 -1</clus>
<clus scale="   52.300">  1  3  2 -1</clus>
</clustering>
</event>
<event>
 6    0  0.1344929E+003  0.1245666E+03  0.7546771E-02  0.1235748E+00
         21   -1    0    0  505  501  0.00000000000E+00  0.00000000000E+00  0.21184453110E+04  0.21184453110E+04  0.00000000000E+00 0. -1.
         21   -1    0    0  506  502 -0.00000000000E+00 -0.00000000000E+00 -0.45972763037E+02  0.45972763037E+02  0.00000000000E+00 0. -1.
         21    1    1    2  503  501  0.51427708483E+01 -0.10000972394E+03  0.11785362839E+04  0.11827832285E+04  0.00000000000E+00 0. -1.
         21    1    1    2  504  502 -0.91682035977E+01  0.16422612141E+03  0.37073182581E+03  0.40558151040E+03  0.00000000000E+00 0. -1.
         21    1    1    2  505  504  0.16237565921E+02  0.47225441189E+02  0.42223635431E+03  0.42517930305E+03  0.00000000000E+00 0.  1.
         21    1    1    2  506  503 -0.12212133171E+02 -0.11144183866E+03  0.10096808388E+03  0.15087403210E+03  0.00000000000E+00 0. -1.
<scales pt_clust_3="69.09742" pt_clust_4="14000.00000" pt_clust_5="49.93897" pt_clust_6="124.56655"></scales>
<clustering>
<clus scale="   49.939">  1  5  2 -1</clus>
<clus scale="   69.097">  1  3  2 -1</clus>
<clus scale="  124.567">  2  6  1 -1</clus>
<clus scale="   49.939">  1  3  2 -1</clus>
</clustering>
</event>
<event>
 6    0  0.1344929E+003  0.1361679E+03  0.7546771E-02  0.1218580E+00
         21   -1    0    0  503  501  0.00000000000E+00  0.00000000000E+00  0.12179357686E+03  0.12179357686E+03  0.00000000000E+00 0.  1.
         21   -1    0    0  504  502 -0.00000000000E+00 -0.00000000000E+00 -0.63776158387E+03  0.63776158387E+03  0.00000000000E+00 0.  1.
         21    1    1    2  503  506  0.60904360860E+02 -0.11595823616E+03  0.44173955040E+02  0.13822804349E+03  0.00000000000E+00 0.  1.
         21    1    1    2  504  505 -0.20200131505E+02 -0.46156265303E+02 -0.81876623998E+02  0.96136505536E+02  0.00000000000E+00 0.  1.
         21    1    1    2  505  501  0.27013570510E+02  0.14675366500E+02 -0.14746705141E+02  0.34096402833E+02  0.00000000000E+00 0. -1.
         21    1    1    2  506  502 -0.67717799865E+02  0.14743913496E+03 -0.46351863291E+03  0.49109420888E+03  0.00000000000E+00 0.  1.
<scales pt_clust_3="136.16791" pt_clust_4="48.85402" pt_clust_5="30.74247" pt_clust_6="14000.00000"></scales>
<clustering>
<clus scale="   30.742">  1  5  2 -1</clus>
<clus scale="   48.854">  2  4  1 -1</clus>
<clus scale="  136.168">  1  3  2 -1</clus>
<clus scale="   30.742">  1  3  2 -1</clus>
</clustering>
</event>
<event>
 6    0  0.1344929E+003  0.1448297E+03  0.7546771E-02  0.1206974E+00
         21   -1    0    0  506  501  0.00000000000E+00  0.00000000000E+00  0.71145824316E+03  0.71145824316E+03  0.00000000000E+00 0. -1.
         21   -1    0    0  503  502 -0.00000000000E+00 -0.00000000000E+00 -0.13093105269E+03  0.13093105269E+03  0.00000000000E+00 0. -1.
         21    1    1    2  503  505  0.22155496729E+02  0.33121479233E+02 -0.33058200026E+01  0.39985333158E+02  0.00000000000E+00 0. -1.
         21    1    1    2  504  502 -0.10496734459E+03  0.77333571253E+02 -0.25511328005E+02  0.13285124211E+03  0.00000000000E+00 0. -1.
         21    1    1    2  505  501 -0.60795779125E+02  0.35256117617E+02  0.19881055570E+03  0.21086668216E+03  0.00000000000E+00 0. -1.
         21    1    1    2  506  504  0.14360762699E+03 -0.14571116810E+03  0.41053378278E+03  0.45868603842E+03  0.00000000000E+00 0. -1.
<scales pt_clust_3="39.84844" pt_clust_4="144.82966" pt_clust_5="70.17250" pt_clust_6="14000.00000"></scales>
<clustering>
<clus scale="   39.848">  2  3  1 -1</clus>
<clus scale="   70.173">  1  5  2 -1</clus>
<clus scale="  144.830">  2  4  1 -1</clus>
<clus scale="   70.173">  1  3  2 -1</clus>
</clustering>
</event>
<event>
 6    0  0.1344929E+003  0.2060496E+03  0.7546771E-02  0.1144733E+00
         21   -1    0    0  506  501  0.00000000000E+00  0.00000000000E+00  0.49295575017E+03  0.49295575017E+03  0.00000000000E+00 0. -1.
         21   -1    0    0  504  502 -0.00000000000E+00 -0.00000000000E+00 -0.90518451374E+03  0.90518451374E+03  0.00000000000E+00 0. -1.
         21    1    1    2  503  502 -0.17439338375E+03 -0.24438804956E+02 -0.23428568824E+03  0.29308717338E+03  0.00000000000E+00 0. -1.
         21    1    1    2  504  505 -0.27241126195E+02 -0.49669703625E+02 -0.60507689045E+03  0.60772296466E+03  0.00000000000E+00 0. -1.
         21    1    1    2  505  501  0.15469934130E+03  0.83573367043E+02  0.41061985198E+03  0.44668227714E+03  0.00000000000E+00 0. -1.
         21    1    1    2  506  503  0.46935168644E+02 -0.94648584625E+01  0.16513963147E+02  0.50647848722E+02  0.00000000000E+00 0.  1.
<scales pt_clust_3="14000.00000" pt_clust_4="56.60849" pt_clust_5="206.04957" pt_clust_6="47.87999"></scales>
<clustering>
<clus scale="   47.880">  1  6  2 -1</clus>
<clus scale="   56.608">  2  4  1 -1</clus>
<clus scale="  206.050">  1  5  2 -1</clus>
<clus scale="   47.880">  1  3  2 -1</clus>
</clustering>
</event>
<event>
 6    0  0.1344929E+003  0.9937149E+02  0.7546771E-02  0.1281623E+00
         21   -1    0    0  505  501  0.00000000000E+00  0.00000000000E+00  0.75132887964E+03  0.75132887964E+03  0.00000000000E+00 0. -1.
         21   -1    0    0  504  502 -0.00000000000E+00 -0.00000000000E+00 -0.39464040700E+03  0.39464040700E+03  0.00000000000E+00 0.  1.
         21    1    1    2  503  506 -0.11654431050E+03 -0.81912171337E+01  0.97655155545E+02  0.15227016041E+03  0.00000000000E+00 0. -1.
         21    1    1    2  504  503  0.79925963521E+02  0.59022103439E+02 -0.35479596628E+03  0.36844530941E+03  0.00000000000E+00 0.  1.
         21    1    1    2  505  502  0.42454392667E+02  0.23915621145E+01  0.46762275689E+03  0.46955206079E+03  0.00000000000E+00 0. -1.
         21    1    1    2  506  501 -0.58360456899E+01 -0.53222448420E+02  0.14620652648E+03  0.15570175603E+03  0.00000000000E+00 0. -1.
<scales pt_clust_3="99.37149" pt_clust_4="14000.00000" pt_clust_5="42.52170" pt_clust_6="54.60402"></scales>
<clustering>
<clus scale="   42.522">  1  5  2 -1</clus>
<clus scale="   54.604">  1  6  2 -1</clus>
<clus scale="   99.371">  1  3  2 -1</clus>
<clus scale="   42.522">  1  3  2 -1</clus>
</clustering>
</event>
<event>
 6    0  0.1344929E+003  0.1540623E+03  0.7546771E-02  0.1195568E+00
         21   -1    0    0  504  501  0.00000000000E+00  0.00000000000E+00  0.26178366575E+03  0.26178366575E+03  0.00000000000E+00 0.  1.
         21   -1    0    0  503  502 -0.00000000000E+00 -0.00000000000E+00 -0.10050496948E+04  0.10050496948E+04  0.00000000000E+00 0. -1.
         21    1    1    2  503  506  0.20639076400E+02  0.31586383864E+02 -0.13034588138E+03  0.13569716251E+03  0.00000000000E+00 0. -1.
         21    1    1    2  504  505  0.15131393602E+03  0.39647668835E+01  0.20778103839E+03  0.25706922516E+03  0.00000000000E+00 0.  1.
         21    1    1    2  505  502  0.21431977227E+02 -0.30037522921E+02 -0.48658241772E+03  0.48797954021E+03  0.00000000000E+00 0.  1.
         21    1    1    2  506  501 -0.19338498964E+03 -0.55136278268E+01 -0.33411876837E+03  0.38608743270E+03  0.00000000000E+00 0. -1.
<scales pt_clust_3="35.40225" pt_clust_4="14000.00000" pt_clust_5="36.89963" pt_clust_6="154.06231"></scales>
<clustering>
<clus scale="   36.900">  2  5  1 -1</clus>
<clus scale="   35.402">  2  3  1 -1</clus>
<clus scale="  154.062">  2  6  1 -1</clus>
<clus scale="  154.062">  1  3  2 -1</clus>
</clustering>
</event>
<event>
 6    0  0.1344929E+003  0.8726963E+02  0.7546771E-02  0.1309602E+00
         21   -1    0    0  503  501  0.00000000000E+00  0.00000000000E+00  0.22499749711E+04  0.22499749711E+04  0.00000000000E+00 0. -1.
         21   -1    0    0  506  502 -0.00000000000E+00 -0.00000000000E+00 -0.26001641375E+03  0.26001641375E+03  0.00000000000E+00 0. -1.
         21    1    1    2  503  504 -0.32509854661E+02  0.19867775645E+02  0.21809831491E+04  0.21813159138E+04  0.00000000000E+00 0. -1.
         21    1    1    2  504  505 -0.11558967726E+02 -0.10203661763E+03 -0.43682668764E+02  0.11159416034E+03  0.00000000000E+00 0. -1.
         21    1    1    2  505  502  0.72354337095E+02  0.79244482549E+01 -0.10291566670E+03  0.12605388304E+03  0.00000000000E+00 0. -1.
         21    1    1    2  506  501 -0.28285514709E+02  0.74244393732E+02 -0.44426256271E+02  0.91027427676E+02  0.00000000000E+00 0. -1.
<scales pt_clust_3="38.10012" pt_clust_4="14000.00000" pt_clust_5="67.83144" pt_clust_6="87.26963"></scales>
<clustering>
<clus scale="   38.100">  1  3  2 -1</clus>
<clus scale="   67.831">  2  5  1 -1</clus>
<clus scale="   87.270">  2  6  1 -1</clus>
<clus scale="   38.100">  1  3  2 -1</clus>
</clustering>
</event>
<event>
 6    0  0.1344929E+003  0.1507416E+03  0.7546771E-02  0.1199565E+00
         21   -1    0    0  503  501  0.00000000000E+00  0.00000000000E+00  0.13527442648E+04  0.13527442648E+04  0.00000000000E+00 0.  1.
         21   -1    0    0  504  502 -0.00000000000E+00 -0.00000000000E+00 -0.63611330998E+02  0.63611330998E+02  0.00000000000E+00 0. -1.
         21    1    1    2  503  506 -0.10331634160E+03 -0.39488423747E+02  0.78115252681E+03  0.78894415024E+03  0.00000000000E+00 0.  1.
         21    1    1    2  504  501 -0.61300767325E+02  0.60559773030E+02  0.40876341851E+03  0.41774729502E+03  0.00000000000E+00 0.  1.
         21    1    1    2  505  502  0.17907954208E+02 -0.32937407462E+02  0.18805444440E+02  0.41942965737E+02  0.00000000000E+00 0.  1.
         21    1    1    2  506  505  0.14670915472E+03  0.11866058179E+02  0.80411544026E+02  0.16772118479E+03  0.00000000000E+00 0. -1.
<scales pt_clust_3="150.74158" pt_clust_4="83.07771" pt_clust_5="37.49090" pt_clust_6="14000.00000"></scales>
<clustering>
<clus scale="   37.491">  2  5  1 -1</clus>
<clus scale="   83.078">  1  4  2 -1</clus>
<clus scale="  150.742">  1  3  2 -1</clus>
<clus scale="   83.078">  1  3  2 -1</clus>
</clustering>
</event>
<event>
 6    0  0.1344929E+003  0.4501537E+03  0.7546771E-02  0.1027676E+00
         21   -1    0    0  503  501  0.00000000000E+00  0.00000000000E+00  0.56365116615E+03  0.56365116615E+03  0.00000000000E+00 0.  1.
         21   -1    0    0  505  502 -0.00000000000E+00 -0.00000000000E+00 -0.85594110655E+03  0.85594110655E+03  0.00000000000E+00 0.  1.
         21    1    1    2  503  504  0.11337215142E+03  0.44477559463E+02  0.18123196853E+03  0.21834954644E+03  0.00000000000E+00 0.  1.
         21    1    1    2  504  506 -0.51455486132E+03 -0.16933303866E+03  0.25083132751E+01  0.54170718560E+03  0.00000000000E+00 0.  1.
         21    1    1    2  505  501  0.86762824156E+01 -0.29271433404E+02 -0.12762269529E+02  0.33090334141E+02  0.00000000000E+00 0. -1.
         21    1    1    2  506  502  0.39250642748E+03  0.15412691260E+03 -0.46326795267E+03  0.62644520652E+03  0.00000000000E+00 0.  1.
<scales pt_clust_3="121.72830" pt_clust_4="14000.00000" pt_clust_5="30.53023" pt_clust_6="450.15366"></scales>
<clustering>
<clus scale="   30.530">  2  5  1 -1</clus>
<clus scale="  121.728">  1  3  2 -1</clus>
<clus scale="  450.154">  2  6  1 -1</clus>
<clus scale="  121.728">  1  3  2 -1</clus>
</clustering>
</event>
<event>
 6    0  0.1344929E+003  0.1536720E+03  0.7546771E-02  0.1196032E+00
         21   -1    0    0  505  501  0.00000000000E+00  0.00000000000E+00  0.71024447357E+02  0.71024447357E+02  0.00000000000E+00 0.  1.
         21   -1    0    0  501  502 -0.00000000000E+00 -0.00000000000E+00 -0.16722690798E+04  0.16722690798E+04  0.00000000000E+00 0.  1.
         21    1    1    2  503  506  0.30071843523E+02 -0.23321460647E+02 -0.13664824266E+03  0.14184832929E+03  0.00000000000E+00 0.  1.
         21    1    1    2  504  503  0.59710911365E+02 -0.79070029737E+02 -0.12612705926E+03  0.16039170059E+03  0.00000000000E+00 0. -1.
         21    1    1    2  505  504 -0.28866767491E+02 -0.26601439020E+02  0.39518546699E+02  0.55701367636E+02  0.00000000000E+00 0.  1.
         21    1    1    2  506  502 -0.60915987397E+02  0.12899292940E+03 -0.13779878772E+04  0.13853521296E+04  0.00000000000E+00 0.  1.
<scales pt_clust_3="37.96729" pt_clust_4="37.96729" pt_clust_5="39.25464" pt_clust_6="140.93215"></scales>
<clustering>
<clus scale="   37.967">  3  4 -1 -1</clus>
<clus scale="   39.255">  1  5  2 -1</clus>
<clus scale="  140.932">  2  6  1 -1</clus>
<clus scale="   39.255">  1  3  2 -1</clus>
</clustering>
</event>
<event>
 6    0  0.1344929E+003  0.1141880E+03  0.7546771E-02  0.1253005E+00
         21   -1    0    0  504  501  0.00000000000E+00  0.00000000000E+00  0.17362088633E+03  0.17362088633E+03  0.00000000000E+00 0. -1.
         21   -1    0    0  503  502 -0.00000000000E+00 -0.00000000000E+00 -0.34998046440E+03  0.34998046440E+03  0.00000000000E+00 0. -1.
         21    1    1    2  503  505  0.60982311400E+02  0.42557269525E+01 -0.17555066524E+03  0.18588972425E+03  0.00000000000E+00 0. -1.
         21    1    1    2  504  506 -0.98688191739E+02 -0.55816705453E+02  0.83920890611E+02  0.14105878093E+03  0.00000000000E+00 0. -1.
         21    1    1    2  505  501  0.88675730538E+02  0.79489257621E+02 -0.61852032398E+02  0.13419240357E+03  0.00000000000E+00 0. -1.
         21    1    1    2  506  502 -0.50969850199E+02 -0.27928279120E+02 -0.22877771043E+02  0.62460441976E+02  0.00000000000E+00 0.  1.
<scales pt_clust_3="33.31051" pt_clust_4="114.18804" pt_clust_5="14000.00000" pt_clust_6="58.11983"></scales>
<clustering>
<clus scale="   58.120">  2  6  1 -1</clus>
<clus scale="   33.311">  2  3  1 -1</clus>
<clus scale="  114.188">  1  4  2 -1</clus>
<clus scale="  114.188">  1  3  2 -1</clus>
</clustering>
</event>
<event>
 6    0  0.1344929E+003  0.7099526E+02  0.7546771E-02  0.1356741E+00
         21   -1    0    0  503  501  0.00000000000E+00  0.00000000000E+00  0.45711627149E+03  0.45711627149E+03  0.00000000000E+00 0. -1.
         21   -1    0    0  506  502 -0.00000000000E+00 -0.00000000000E+00 -0.10879625362E+04  0.10879625362E+04  0.00000000000E+00 0. -1.
         21    1    1    2  503  505 -0.20777288087E+02 -0.85459625761E+02 -0.33751507346E+03  0.34878570520E+03  0.00000000000E+00 0. -1.
         21    1    1    2  504  501  0.58348820462E+02  0.40519145756E+02  0.42627745800E+03  0.43215605656E+03  0.00000000000E+00 0. -1.
         21    1    1    2  505  502 -0.41534302982E+01  0.10301557597E+03 -0.67683979495E+03  0.68464703893E+03  0.00000000000E+00 0. -1.
         21    1    1    2  506  504 -0.33418102077E+02 -0.58075095969E+02 -0.42768854325E+02  0.79490007036E+02  0.00000000000E+00 0. -1.
<scales pt_clust_3="14000.00000" pt_clust_4="70.99526" pt_clust_5="69.67230" pt_clust_6="67.00363"></scales>
<clustering>
<clus scale="   67.004">  2  6  1 -1</clus>
<clus scale="   69.672">  2  5  1 -1</clus>
<clus scale="   70.995">  1  4  2 -1</clus>
<clus scale="   70.995">  1  3  2 -1</clus>
</clustering>
</event>
<event>
 6    0  0.1344929E+003  0.7718623E+02  0.7546771E-02  0.1337232E+00
         21   -1    0    0  503  501  0.00000000000E+00  0.00000000000E+00  0.41487855512E+03  0.41487855512E+03  0.00000000000E+00 0. -1.
         21   -1    0    0  504  502 -0.00000000000E+00 -0.00000000000E+00 -0.14452347554E+03  0.14452347554E+03  0.00000000000E+00 0. -1.
         21    1    1    2  503  502  0.28210282474E+02 -0.40221242848E+02  0.12484309670E+03  0.13416172035E+03  0.00000000000E+00 0. -1.
         21    1    1    2  504  506  0.76586771258E+02 -0.40708507208E+01 -0.94280574493E+02  0.12153572349E+03  0.00000000000E+00 0. -1.
         21    1    1    2  505  501 -0.32484878282E+02 -0.34702470325E+02  0.16843681566E+03  0.17501568396E+03  0.00000000000E+00 0. -1.
         21    1    1    2  506  505 -0.72312175450E+02  0.78994563894E+02  0.71355741719E+02  0.12868890286E+03  0.00000000000E+00 0. -1.
<scales pt_clust_3="59.70870" pt_clust_4="14000.00000" pt_clust_5="47.53450" pt_clust_6="77.18623"></scales>
<clustering>
<clus scale="   47.535">  1  5  2 -1</clus>
<clus scale="   59.709">  1  3  2 -1</clus>
<clus scale="   77.186">  1  6  2 -1</clus>
<clus scale="   47.535">  1  3  2 -1</clus>
</clustering>
</event>
<event>
 6    0  0.1344929E+003  0.1067210E+03  0.7546771E-02  0.1266765E+00
         21   -1    0    0  504  501  0.00000000000E+00  0.00000000000E+00  0.89013235767E+02  0.89013235767E+02  0.00000000000E+00 0.  1.
         21   -1    0    0  505  502 -0.00000000000E+00 -0.00000000000E+00 -0.68628213922E+03  0.68628213922E+03  0.00000000000E+00 0.  1.
         21    1    1    2  503  501  0.10353866845E+03 -0.37366564895E+02 -0.11420991092E+03  0.15862036373E+03  0.00000000000E+00 0.  1.
         21    1    1    2  504  506 -0.71731709319E+01  0.45676971346E+02  0.44757892984E+02  0.64351449687E+02  0.00000000000E+00 0.  1.
         21    1    1    2  505  503  0.31958442851E+02  0.83923601547E+00 -0.14448309304E+03  0.14797773670E+03  0.00000000000E+00 0.  1.
         21    1    1    2  506  502 -0.12832394037E+03 -0.91496424663E+01 -0.38333379248E+03  0.40434582487E+03  0.00000000000E+00 0.  1.
<scales pt_clust_3="106.72102" pt_clust_4="46.16546" pt_clust_5="31.96946" pt_clust_6="14000.00000"></scales>
<clustering>
<clus scale="   31.969">  2  5  1 -1</clus>
<clus scale="   46.165">  1  4  2 -1</clus>
<clus scale="  106.721">  1  3  2 -1</clus>
<clus scale="   46.165">  1  3  2 -1</clus>
</clustering>
</event>
<event>
 6    0  0.1344929E+003  0.1162701E+03  0.7546771E-02  0.1249380E+00
         21   -1    0    0  505  501  0.00000000000E+00  0.00000000000E+00  0.21318802474E+02  0.21318802474E+02  0.00000000000E+00 0. -1.
         21   -1    0    0  506  502 -0.00000000000E+00 -0.00000000000E+00 -0.11996502014E+04  0.11996502014E+04  0.00000000000E+00 0. -1.
         21    1    1    2  503  501 -0.38715642437E+02  0.35927908077E+01 -0.86572506180E+02  0.94903150323E+02  0.00000000000E+00 0. -1.
         21    1    1    2  504  503 -0.66570608230E+02 -0.62890357290E+02 -0.27771572501E+03  0.29242583135E+03  0.00000000000E+00 0. -1.
         21    1    1    2  505  502  0.70427090433E+02  0.62476772944E+02 -0.22963533526E+03  0.24818482916E+03  0.00000000000E+00 0. -1.
         21    1    1    2  506  504  0.34859160234E+02 -0.31792064610E+01 -0.58440783250E+03  0.58545519307E+03  0.00000000000E+00 0. -1.
<scales pt_clust_3="33.96048" pt_clust_4="33.96048" pt_clust_5="103.93410" pt_clust_6="35.00383"></scales>
<clustering>
<clus scale="   33.960">  3  4 -1 -1</clus>
<clus scale="   35.004">  2  6  1 -1</clus>
<clus scale="  103.934">  1  5  2 -1</clus>
<clus scale="  103.934">  1  3  2 -1</clus>
</clustering>
</event>
<event>
 6    0  0.1344929E+003  0.7675269E+02  0.7546771E-02  0.1338528E+00
         21   -1    0    0  505  501  0.00000000000E+00  0.00000000000E+00  0.22067594769E+04  0.22067594769E+04  0.00000000000E+00 0.  1.
         21   -1    0    0  503  502 -0.00000000000E+00 -0.00000000000E+00 -0.10131502983E+04  0.10131502983E+04  0.00000000000E+00 0. -1.
         21    1    1    2  503  501 -0.40319318640E+02 -0.55880625377E+02 -0.82049494403E+03  0.82338341308E+03  0.00000000000E+00 0. -1.
         21    1    1    2  504  502  0.61404576920E+02  0.43009644173E+02 -0.77715811897E+02  0.10798193820E+03  0.00000000000E+00 0. -1.
         21    1    1    2  505  506  0.54864042960E+02  0.53613922584E+02  0.21704937319E+04  0.21718488797E+04  0.00000000000E+00 0.  1.
         21    1    1    2  506  504 -0.75949301240E+02 -0.40742941381E+02 -0.78673797411E+02  0.11669554417E+03  0.00000000000E+00 0. -1.
<scales pt_clust_3="68.90785" pt_clust_4="44.73752" pt_clust_5="14000.00000" pt_clust_6="76.75269"></scales>
<clustering>
<clus scale="   68.908">  2  3  1 -1</clus>
<clus scale="   44.738">  2  4  1 -1</clus>
<clus scale="   76.753">  2  6  1 -1</clus>
<clus scale="   76.753">  1  3  2 -1</clus>
</clustering>
</event>
<event>
 6    0  0.1344929E+003  0.7341107E+02  0.7546771E-02  0.1348863E+00
         21   -1    0    0  503  501  0.00000000000E+00  0.00000000000E+00  0.20942473672E+03  0.20942473672E+03  0.00000000000E+00 0. -1.
         21   -1    0    0  504  502 -0.00000000000E+00 -0.00000000000E+00 -0.22751683742E+04  0.22751683742E+04  0.00000000000E+00 0.  1.
         21    1    1    2  503  505  0.25210089944E+01 -0.37668301573E+02  0.44915756555E+01  0.38018820098E+02  0.00000000000E+00 0.  1.
         21    1    1    2  504  506 -0.97185851746E+02  0.45009178685E+02  0.81033651947E+02  0.13430327134E+03  0.00000000000E+00 0. -1.
         21    1    1    2  505  502  0.67682082391E+02 -0.27942722091E+02 -0.22275622544E+04  0.22287654110E+04  0.00000000000E+00 0.  1.
         21    1    1    2  506  501  0.26982760361E+02  0.20601844980E+02  0.76293389384E+02  0.83505608416E+02  0.00000000000E+00 0. -1.
<scales pt_clust_3="34.98459" pt_clust_4="73.41107" pt_clust_5="14000.00000" pt_clust_6="33.94857"></scales>
<clustering>
<clus scale="   33.949">  1  6  2 -1</clus>
<clus scale="   34.985">  1  3  2 -1</clus>
<clus scale="   73.411">  1  4  2 -1</clus>
<clus scale="   33.949">  1  3  2 -1</clus>
</clustering>
</event>
<event>
 6    0  0.4694111E+003  0.1143422E+03  0.7546771E-02  0.1252734E+00
         21   -1    0    0  503  501  0.00000000000E+00  0.00000000000E+00  0.21965591418E+03  0.21965591418E+03  0.00000000000E+00 0. -1.
         21   -1    0    0  506  502 -0.00000000000E+00 -0.00000000000E+00 -0.16041860287E+04  0.16041860287E+04  0.00000000000E+00 0.  1.
         21    1    1    2  503  502  0.30053163024E+02  0.41476624899E+02 -0.38841197577E+02  0.64281736519E+02  0.00000000000E+00 0. -1.
         21    1    1    2  504  501  0.77468248418E+02  0.21408954147E+01  0.19552732671E+03  0.21032557723E+03  0.00000000000E+00 0. -1.
         21    1    1    2  505  504 -0.76649936831E+02 -0.76231233447E+02 -0.12379990182E+04  0.12427099351E+04  0.00000000000E+00 0.  1.
         21    1    1    2  506  505 -0.30871474610E+02  0.32613713133E+02 -0.30321722548E+03  0.30652469404E+03  0.00000000000E+00 0.  1.
<scales pt_clust_3="51.57910" pt_clust_4="114.34221" pt_clust_5="14000.00000" pt_clust_6="44.90771"></scales>
<clustering>
<clus scale="   44.908">  2  6  1 -1</clus>
<clus scale="   51.579">  1  3  2 -1</clus>
<clus scale="  114.342">  1  4  2 -1</clus>
<clus scale="   51.579">  1  3  2 -1</clus>
</clustering>
</event>
<event>
 6    0  0.1344929E+003  0.6869030E+02  0.7546771E-02  0.1364604E+00
         21   -1    0    0  505  501  0.00000000000E+00  0.00000000000E+00  0.17350208186E+02  0.17350208186E+02  0.00000000000E+00 0.  1.
         21   -1    0    0  504  502 -0.00000000000E+00 -0.00000000000E+00 -0.11616938181E+04  0.11616938181E+04  0.00000000000E+00 0.  1.
         21    1    1    2  503  501  0.69127988332E+01 -0.30782687745E+02 -0.41801669396E+02  0.52371177348E+02  0.00000000000E+00 0.  1.
         21    1    1    2  504  506 -0.32428182046E+02 -0.55295874811E+02 -0.43776532073E+03  0.44243383324E+03  0.00000000000E+00 0.  1.
         21    1    1    2  505  502 -0.49840376189E+02  0.63239832290E+02 -0.39900781336E+03  0.40705107126E+03  0.00000000000E+00 0.  1.
         21    1    1    2  506  503  0.75355759402E+02  0.22838730267E+02 -0.26576880643E+03  0.27718794445E+03  0.00000000000E+00 0.  1.
<scales pt_clust_3="31.54934" pt_clust_4="68.69030" pt_clust_5="14000.00000" pt_clust_6="67.21904"></scales>
<clustering>
<clus scale="   31.549">  1  3  2 -1</clus>
<clus scale="   68.690">  2  4  1 -1</clus>
<clus scale="   67.219">  1  6  2 -1</clus>
<clus scale="   31.549">  1  3  2 -1</clus>
</clustering>
</event>
<event>
 6    0  0.1344929E+003  0.9904116E+02  0.7546771E-02  0.1282325E+00
         21   -1    0    0  504  501  0.00000000000E+00  0.00000000000E+00  0.12595677451E+04  0.12595677451E+04  0.00000000000E+00 0. -1.
         21   -1    0    0  506  502 -0.00000000000E+00 -0.00000000000E+00 -0.12951728355E+03  0.12951728355E+03  0.00000000000E+00 0.  1.
         21    1    1    2  503  505 -0.86378506692E+02  0.68667784771E+02  0.33477899061E+02  0.11531383616E+03  0.00000000000E+00 0.  1.
         21    1    1    2  504  502  0.12434078969E+02 -0.28204872116E+02  0.96472350158E+03  0.96521580780E+03  0.00000000000E+00 0. -1.
         21    1    1    2  505  501  0.87311989555E+02 -0.38586491024E+01  0.20656206469E+03  0.22429034590E+03  0.00000000000E+00 0. -1.
         21    1    1    2  506  503 -0.13367561832E+02 -0.36604263552E+02 -0.74713003809E+02  0.84265038762E+02  0.00000000000E+00 0.  1.
<scales pt_clust_3="99.04116" pt_clust_4="30.82403" pt_clust_5="14000.00000" pt_clust_6="39.33064"></scales>
<clustering>
<clus scale="   30.824">  1  4  2 -1</clus>
<clus scale="   39.331">  2  6  1 -1</clus>
<clus scale="   99.041">  2  3  1 -1</clus>
<clus scale="   30.824">  1  3  2 -1</clus>
</clustering>
</event>
<event>
 6    0  0.1344929E+003  0.1340240E+03  0.7546771E-02  0.1221604E+00
         21   -1    0    0  503  501  0.00000000000E+00  0.00000000000E+00  0.67934543025E+02  0.67934543025E+02  0.00000000000E+00 0.  1.
         21   -1    0    0  506  502 -0.00000000000E+00 -0.00000000000E+00 -0.18323654018E+04  0.18323654018E+04  0.00000000000E+00 0.  1.
         21    1    1    2  503  505  0.54137976475E+02  0.40308813904E+02 -0.33279100139E+03  0.33956674098E+03  0.00000000000E+00 0.  1.
         21    1    1    2  504  501 -0.10614112703E+03 -0.72263751632E+02 -0.66219529720E+01  0.12857619884E+03  0.00000000000E+00 0.  1.
         21    1    1    2  505  502  0.25234538779E+02  0.65508332904E+02 -0.39122659791E+03  0.39747499863E+03  0.00000000000E+00 0. -1.
         21    1    1    2  506  504  0.26768611773E+02 -0.33553395177E+02 -0.10337913065E+04  0.10346820063E+04  0.00000000000E+00 0.  1.
<scales pt_clust_3="38.37662" pt_clust_4="128.18207" pt_clust_5="38.37662" pt_clust_6="42.92306"></scales>
<clustering>
<clus scale="   38.377">  3  5 -1 -1</clus>
<clus scale="   42.923">  2  6  1 -1</clus>
<clus scale="  128.182">  1  4  2 -1</clus>
<clus scale="  128.182">  1  3  2 -1</clus>
</clustering>
</event>
<event>
 6    0  0.1344929E+003  0.9676023E+02  0.7546771E-02  0.1287260E+00
         21   -1    0    0  504  501  0.00000000000E+00  0.00000000000E+00  0.52465393036E+03  0.52465393036E+03  0.00000000000E+00 0.  1.
         21   -1    0    0  506  502 -0.00000000000E+00 -0.00000000000E+00 -0.89146722340E+02  0.89146722340E+02  0.00000000000E+00 0.  1.
         21    1    1    2  503  505 -0.28604299840E+01  0.75894306271E+02  0.30280694672E+03  0.31218612200E+03  0.00000000000E+00 0.  1.
         21    1    1    2  504  502 -0.89040457953E+02 -0.79124870172E+02  0.71175074476E+02  0.13876180836E+03  0.00000000000E+00 0.  1.
         21    1    1    2  505  501  0.38016215148E+01  0.41288210019E+02  0.51862501866E+02  0.66399455664E+02  0.00000000000E+00 0.  1.
         21    1    1    2  506  503  0.88099266422E+02 -0.38057646117E+02  0.96626849516E+01  0.96453266676E+02  0.00000000000E+00 0.  1.
<scales pt_clust_3="96.76023" pt_clust_4="14000.00000" pt_clust_5="41.46286" pt_clust_6="94.60633"></scales>
<clustering>
<clus scale="   41.463">  1  5  2 -1</clus>
<clus scale="   94.606">  2  6  1 -1</clus>
<clus scale="   96.760">  1  3  2 -1</clus>
<clus scale="   41.463">  1  3  2 -1</clus>
</clustering>
</event>
<event>
 6    0  0.1344929E+003  0.9629388E+02  0.7546771E-02  0.1288288E+00
         21   -1    0    0  506  501  0.00000000000E+00  0.00000000000E+00  0.24377635433E+03  0.24377635433E+03  0.00000000000E+00 0.  1.
         21   -1    0    0  504  502 -0.00000000000E+00 -0.00000000000E+00 -0.22983402849E+03  0.22983402849E+03  0.00000000000E+00 0.  1.
         21    1    1    2  503  501  0.51004867701E+02 -0.37627014965E+02  0.13439684287E+03  0.14859273252E+03  0.00000000000E+00 0.  1.
         21    1    1    2  504  503  0.93722237736E+02  0.17096781632E+02 -0.27067433178E+02  0.99039404922E+02  0.00000000000E+00 0.  1.
         21    1    1    2  505  502 -0.96463548658E+02  0.25010462643E+02 -0.13102106990E+03  0.16461245463E+03  0.00000000000E+00 0.  1.
         21    1    1    2  506  505 -0.48263556779E+02 -0.44802293096E+01  0.37633986053E+02  0.61365790746E+02  0.00000000000E+00 0.  1.
<scales pt_clust_3="43.85585" pt_clust_4="14000.00000" pt_clust_5="96.29388" pt_clust_6="48.47106"></scales>
<clustering>
<clus scale="   48.471">  1  6  2 -1</clus>
<clus scale="   43.856">  1  3  2 -1</clus>
<clus scale="   96.294">  2  5  1 -1</clus>
<clus scale="   48.471">  1  3  2 -1</clus>
</clustering>
</event>
<event>
 6    0  0.1344929E+003  0.9523611E+02  0.7546771E-02  0.1290645E+00
         21   -1    0    0  503  501  0.00000000000E+00  0.00000000000E+00  0.10162918019E+04  0.10162918019E+04  0.00000000000E+00 0.  1.
         21   -1    0    0  504  502 -0.00000000000E+00 -0.00000000000E+00 -0.10481188356E+04  0.10481188356E+04  0.00000000000E+00 0.  1.
         21    1    1    2  503  502 -0.45446607014E+02  0.74343332147E+01 -0.17924553928E+02  0.49416121185E+02  0.00000000000E+00 0. -1.
         21    1    1    2  504  506 -0.28320439626E+02 -0.13030170561E+02 -0.44607747533E+03  0.44716545780E+03  0.00000000000E+00 0.  1.
         21    1    1    2  505  501  0.47773044747E+02  0.82580905584E+02  0.99480130741E+03  0.99936555424E+03  0.00000000000E+00 0.  1.
         21    1    1    2  506  505  0.25994001893E+02 -0.76985068238E+02 -0.56262631190E+03  0.56846350429E+03  0.00000000000E+00 0.  1.
<scales pt_clust_3="47.50744" pt_clust_4="31.17423" pt_clust_5="14000.00000" pt_clust_6="95.23611"></scales>
<clustering>
<clus scale="   31.174">  2  4  1 -1</clus>
<clus scale="   47.507">  2  3  1 -1</clus>
<clus scale="   95.236">  2  6  1 -1</clus>
<clus scale="   95.236">  1  3  2 -1</clus>
</clustering>
</event>
<event>
 6    0  0.1344929E+003  0.1390177E+03  0.7546771E-02  0.1214657E+00
         21   -1    0    0  505  501  0.00000000000E+00  0.00000000000E+00  0.23134494077E+03  0.23134494077E+03  0.00000000000E+00 0. -1.
         21   -1    0    0  506  502 -0.00000000000E+00 -0.00000000000E+00 -0.42797173685E+03  0.42797173685E+03  0.00000000000E+00 0. -1.
         21    1    1    2  503  502  0.45887788663E+01  0.71321280779E+02 -0.19754422106E+03  0.21007498960E+03  0.00000000000E+00 0. -1.
         21    1    1    2  504  501  0.70911116468E+01  0.36524927118E+02  0.11942301224E+03  0.12508481130E+03  0.00000000000E+00 0. -1.
         21    1    1    2  505  503  0.12682849671E+03 -0.92806352240E+02 -0.32675899041E+02  0.16051853778E+03  0.00000000000E+00 0. -1.
         21    1    1    2  506  504 -0.13850838722E+03 -0.15039855657E+02 -0.85829688228E+02  0.16363833894E+03  0.00000000000E+00 0. -1.
<scales pt_clust_3="73.58879" pt_clust_4="37.20691" pt_clust_5="139.01773" pt_clust_6="14000.00000"></scales>
<clustering>
<clus scale="   37.207">  1  4  2 -1</clus>
<clus scale="   73.589">  2  3  1 -1</clus>
<clus scale="  139.018">  1  5  2 -1</clus>
<clus scale="   37.207">  1  3  2 -1</clus>
</clustering>
</event>
<event>
 6    0  0.1344929E+003  0.7310899E+02  0.7546771E-02  0.1349829E+00
         21   -1    0    0  503  501  0.00000000000E+00  0.00000000000E+00  0.13295112654E+03  0.13295112654E+03  0.00000000000E+00 0. -1.
         21   -1    0    0  505  502 -0.00000000000E+00 -0.00000000000E+00 -0.65085575184E+03  0.65085575184E+03  0.00000000000E+00 0. -1.
         21    1    1    2  503  504  0.35046507336E-01 -0.43534229560E+02  0.10444875287E+03  0.11315817402E+03  0.00000000000E+00 0. -1.
         21    1    1    2  504  502  0.12864264851E+02  0.65134646794E+02 -0.24151306469E+03  0.25047269699E+03  0.00000000000E+00 0. -1.
         21    1    1    2  505  506  0.45852604883E+02 -0.77123469186E+02 -0.25769951762E+03  0.27287274003E+03  0.00000000000E+00 0. -1.
         21    1    1    2  506  501 -0.58751916242E+02  0.55523051952E+02 -0.12314079587E+03  0.14730326733E+03  0.00000000000E+00 0. -1.
<scales pt_clust_3="43.53424" pt_clust_4="58.49192" pt_clust_5="73.10899" pt_clust_6="14000.00000"></scales>
<clustering>
<clus scale="   43.534">  1  3  2 -1</clus>
<clus scale="   58.492">  2  4  1 -1</clus>
<clus scale="   73.109">  2  5  1 -1</clus>
<clus scale="   43.534">  1  3  2 -1</clus>
</clustering>
</event>
<event>
 6    0  0.1344929E+003  0.1121432E+03  0.7546771E-02  0.1256652E+00
         21   -1    0    0  503  501  0.00000000000E+00  0.00000000000E+00  0.15852818144E+04  0.15852818144E+04  0.00000000000E+00 0. -1.
         21   -1    0    0  504  502 -0.00000000000E+00 -0.00000000000E+00 -0.96237676434E+02  0.96237676434E+02  0.00000000000E+00 0. -1.
         21    1    1    2  503  505  0.32402884783E+02 -0.47338014566E+02  0.32522047458E+03  0.33024111139E+03  0.00000000000E+00 0. -1.
         21    1    1    2  504  506 -0.15453287693E+02  0.10370874609E+03  0.14007826297E+02  0.10578528874E+03  0.00000000000E+00 0. -1.
         21    1    1    2  505  502 -0.35037984581E+02  0.17774225705E+01 -0.40521755079E+02  0.53598808095E+02  0.00000000000E+00 0.  1.
         21    1    1    2  506  501  0.18088387492E+02 -0.58148154096E+02  0.11903375922E+04  0.11918942827E+04  0.00000000000E+00 0. -1.
<scales pt_clust_3="56.29869" pt_clust_4="112.14321" pt_clust_5="35.08304" pt_clust_6="14000.00000"></scales>
<clustering>
<clus scale="   35.083">  2  5  1 -1</clus>
<clus scale="   56.299">  1  3  2 -1</clus>
<clus scale="  112.143">  2  4  1 -1</clus>
<clus scale="   56.299">  1  3  2 -1</clus>
</clustering>
</event>
<event>
 6    0  0.1344929E+003  0.1486127E+03  0.7546771E-02  0.1202188E+00
         21   -1    0    0  505  501  0.00000000000E+00  0.00000000000E+00  0.28755071022E+03  0.28755071022E+03  0.00000000000E+00 0. -1.
         21   -1    0    0  506  502 -0.00000000000E+00 -0.00000000000E+00 -0.53370815212E+03  0.53370815212E+03  0.00000000000E+00 0. -1.
         21    1    1    2  503  501 -0.42029284665E+02 -0.32573274960E+02  0.61121343994E+02  0.81014182109E+02  0.00000000000E+00 0. -1.
         21    1    1    2  504  502  0.43941823750E+02 -0.39498047627E+02 -0.16831722466E+03  0.17838628803E+03  0.00000000000E+00 0. -1.
         21    1    1    2  505  504  0.15055062061E+03 -0.55688041767E+02  0.14422281050E+03  0.21579357365E+03  0.00000000000E+00 0. -1.
         21    1    1    2  506  503 -0.15246315970E+03  0.12775936435E+03 -0.28318437173E+03  0.34606481855E+03  0.00000000000E+00 0. -1.
<scales pt_clust_3="53.17404" pt_clust_4="58.87656" pt_clust_5="148.61275" pt_clust_6="14000.00000"></scales>
<clustering>
<clus scale="   53.174">  1  3  2 -1</clus>
<clus scale="   58.877">  2  4  1 -1</clus>
<clus scale="  148.613">  1  5  2 -1</clus>
<clus scale="   53.174">  1  3  2 -1</clus>
</clustering>
</event>
<event>
 6    0  0.1344929E+003  0.8486567E+02  0.7546771E-02  0.1315784E+00
         21   -1    0    0  504  501  0.00000000000E+00  0.00000000000E+00  0.26003858875E+03  0.26003858875E+03  0.00000000000E+00 0. -1.
         21   -1    0    0  505  502 -0.00000000000E+00 -0.00000000000E+00 -0.11969741008E+04  0.11969741008E+04  0.00000000000E+00 0.  1.
         21    1    1    2  503  502 -0.96044157156E+02 -0.74226827516E+02 -0.15690955244E+03  0.19838021498E+03  0.00000000000E+00 0.  1.
         21    1    1    2  504  503  0.29774597066E+02 -0.12907725945E+02  0.59897791363E+01  0.33000204145E+02  0.00000000000E+00 0.  1.
         21    1    1    2  505  506  0.70532469006E+02  0.41789381390E+02 -0.10017720894E+04  0.10051211373E+04  0.00000000000E+00 0.  1.
         21    1    1    2  506  501 -0.42629089161E+01  0.45345172071E+02  0.21575635061E+03  0.22051113317E+03  0.00000000000E+00 0. -1.
<scales pt_clust_3="14000.00000" pt_clust_4="32.45206" pt_clust_5="84.86567" pt_clust_6="40.60363"></scales>
<clustering>
<clus scale="   32.452">  1  4  2 -1</clus>
<clus scale="   40.604">  1  6  2 -1</clus>
<clus scale="   84.866">  2  5  1 -1</clus>
<clus scale="   32.452">  1  3  2 -1</clus>
</clustering>
</event>
