<event>
 6    0  0.3584505E+002  0.8494584E+02  0.7546771E-02  0.1315574E+00
         21   -1    0    0  505  502  0.00000000000E+00  0.00000000000E+00  0.23469823445E+03  0.23469823445E+03  0.00000000000E+00 0.  1.
          2   -1    0    0  503    0 -0.00000000000E+00 -0.00000000000E+00 -0.16215625396E+04  0.16215625396E+04  0.00000000000E+00 0. -1.
         21    1    1    2  503  502 -0.27677195362E+02  0.32686004641E+02  0.12021220381E+03  0.12761416845E+03  0.00000000000E+00 0.  1.
         21    1    1    2  504  501 -0.50459584628E+02 -0.52069765721E+02 -0.23142772446E+02  0.76111878833E+02  0.00000000000E+00 0.  1.
         21    1    1    2  505  504  0.48851384037E+02  0.70886794538E+02  0.61604824377E+02  0.10586099257E+03  0.00000000000E+00 0.  1.
          2    1    1    2  501    0  0.29285395953E+02 -0.51503033458E+02 -0.15455385609E+04  0.15466737342E+04  0.00000000000E+00 0. -1.
<scales pt_clust_3="42.82992" pt_clust_4="14000.00000" pt_clust_5="84.94584" pt_clust_6="59.03127"></scales>
<clustering>
<clus scale="   42.830">  1  3  2 -1</clus>
<clus scale="   59.031">  2  6  1 -1</clus>
<clus scale="   84.946">  1  5  2 -1</clus>
<clus scale="   42.830">  1  3  2 -1</clus>
</clustering>
</event>
<event>
 6    0  0.3584505E+002  0.2410926E+03  0.7546771E-02  0.1119067E+00
          2   -1    0    0  503    0 -0.00000000000E+00  0.00000000000E+00  0.27523229791E+04  0.27523229791E+04  0.00000000000E+00 0. -1.
         21   -1    0    0  501  502  0.00000000000E+00 -0.00000000000E+00 -0.16689457968E+03  0.16689457968E+03  0.00000000000E+00 0. -1.
         21    1    1    2  503  505 -0.20838997124E+02  0.11957508608E+03  0.11251196571E+04  0.11316477844E+04  0.00000000000E+00 0. -1.
         21    1    1    2  504  502  0.75808446904E+02 -0.16407388839E+02 -0.42214377676E+02  0.88307285731E+02  0.00000000000E+00 0. -1.
         21    1    1    2  505  504  0.15641851109E+03  0.31304221271E+02 -0.15898900099E+02  0.16031057328E+03  0.00000000000E+00 0. -1.
          2    1    1    2  501    0 -0.21138796087E+03 -0.13447191851E+03  0.15184220200E+04  0.15389519153E+04  0.00000000000E+00 0. -1.
<scales pt_clust_3="121.37737" pt_clust_4="45.63158" pt_clust_5="45.63158" pt_clust_6="232.04141"></scales>
<clustering>
<clus scale="   45.632">  4  5 -1 -1</clus>
<clus scale="  121.377">  1  3  2 -1</clus>
<clus scale="  232.041">  1  6  2 -1</clus>
<clus scale="  241.093">  2  3  1 -1</clus>
</clustering>
</event>
<event>
 6    0  0.3584505E+002  0.7566203E+02  0.7546771E-02  0.1341833E+00
          1   -1    0    0  504    0 -0.00000000000E+00  0.00000000000E+00  0.24464585739E+04  0.24464585739E+04  0.00000000000E+00 0. -1.
         21   -1    0    0  503  502  0.00000000000E+00 -0.00000000000E+00 -0.33039846987E+02  0.33039846987E+02  0.00000000000E+00 0. -1.
         21    1    1    2  503  505  0.47966392614E+02 -0.58005147989E+02  0.47235523103E+02  0.88862628008E+02  0.00000000000E+00 0. -1.
         21    1    1    2  504  502  0.18992391118E+01 -0.63787899994E+02  0.20891770873E+03  0.21844704694E+03  0.00000000000E+00 0. -1.
         21    1    1    2  505  501 -0.27008624934E+01  0.93139255344E+02  0.30075866297E+03  0.31486185684E+03  0.00000000000E+00 0.  1.
          1    1    1    2  501    0 -0.47164769232E+02  0.28653792639E+02  0.18565068321E+04  0.18573268891E+04  0.00000000000E+00 0. -1.
<scales pt_clust_3="75.66203" pt_clust_4="55.52214" pt_clust_5="14000.00000" pt_clust_6="55.18655"></scales>
<clustering>
<clus scale="   55.187">  1  6  2 -1</clus>
<clus scale="   55.522">  1  4  2 -1</clus>
<clus scale="   75.662">  2  3  1 -1</clus>
<clus scale="   75.662">  2  3  1 -1</clus>
</clustering>
</event>
<event>
 6    0  0.3584505E+002  0.6510507E+02  0.7546771E-02  0.1377577E+00
         21   -1    0    0  504  502  0.00000000000E+00  0.00000000000E+00  0.97871354724E+03  0.97871354724E+03  0.00000000000E+00 0.  1.
          2   -1    0    0  503    0 -0.00000000000E+00 -0.00000000000E+00 -0.13494082901E+04  0.13494082901E+04  0.00000000000E+00 0.  1.
         21    1    1    2  503  502  0.73520793749E+02  0.10382624162E+03  0.90799230303E+03  0.91686161329E+03  0.00000000000E+00 0.  1.
         21    1    1    2  504  505 -0.32988436148E+02 -0.50684122837E+02  0.50058476863E+02  0.78504575237E+02  0.00000000000E+00 0.  1.
         21    1    1    2  505  501 -0.34611206809E+02 -0.21446705712E+02 -0.23266536903E+03  0.23620133524E+03  0.00000000000E+00 0. -1.
          2    1    1    2  501    0 -0.59211507916E+01 -0.31695413071E+02 -0.10960801537E+04  0.10965543135E+04  0.00000000000E+00 0.  1.
<scales pt_clust_3="65.10507" pt_clust_4="62.15233" pt_clust_5="14000.00000" pt_clust_6="32.24375"></scales>
<clustering>
<clus scale="   32.244">  2  6  1 -1</clus>
<clus scale="   62.152">  1  4  2 -1</clus>
<clus scale="   65.105">  1  3  2 -1</clus>
<clus scale="   62.152">  1  3  2 -1</clus>
</clustering>
</event>
<event>
 6    0  0.3584505E+002  0.9303483E+02  0.7546771E-02  0.1295664E+00
          1   -1    0    0  505    0 -0.00000000000E+00  0.00000000000E+00  0.68205753942E+03  0.68205753942E+03  0.00000000000E+00 0. -1.
         21   -1    0    0  504  502  0.00000000000E+00 -0.00000000000E+00 -0.19781127813E+03  0.19781127813E+03  0.00000000000E+00 0. -1.
         21    1    1    2  503  501 -0.10051714757E+03  0.10591152492E+03  0.15450694688E+03  0.21258726373E+03  0.00000000000E+00 0. -1.
         21    1    1    2  504  503  0.80350849547E+01 -0.42766825538E+02 -0.87569281413E+02  0.97785188061E+02  0.00000000000E+00 0. -1.
         21    1    1    2  505  502  0.69611389991E+02 -0.96373911871E+01 -0.57705356715E+02  0.90931474853E+02  0.00000000000E+00 0. -1.
          1    1    1    2  501    0  0.22870672624E+02 -0.53507308196E+02  0.47501395254E+03  0.47856489091E+03  0.00000000000E+00 0. -1.
<scales pt_clust_3="93.03483" pt_clust_4="43.51510" pt_clust_5="14000.00000" pt_clust_6="58.90786"></scales>
<clustering>
<clus scale="   43.515">  2  4  1 -1</clus>
<clus scale="   58.908">  1  6  2 -1</clus>
<clus scale="   93.035">  1  3  2 -1</clus>
<clus scale="   43.515">  2  3  1 -1</clus>
</clustering>
</event>
<event>
 6    0  0.3584505E+002  0.9217874E+02  0.7546771E-02  0.1297660E+00
         21   -1    0    0  505  502  0.00000000000E+00  0.00000000000E+00  0.83553125074E+01  0.83553125074E+01  0.00000000000E+00 0.  1.
          2   -1    0    0  504    0 -0.00000000000E+00 -0.00000000000E+00 -0.28983793860E+04  0.28983793860E+04  0.00000000000E+00 0.  1.
         21    1    1    2  503  501  0.56790874293E+01 -0.74570873680E+02 -0.68602032000E+03  0.69008473878E+03  0.00000000000E+00 0.  1.
         21    1    1    2  504  502 -0.18982715252E+02  0.11234924647E+03 -0.11084962050E+04  0.11143368132E+04  0.00000000000E+00 0.  1.
         21    1    1    2  505  503 -0.40228036974E+02 -0.34461917778E+02 -0.27504413165E+03  0.28009854175E+03  0.00000000000E+00 0.  1.
          2    1    1    2  501    0  0.53531664797E+02 -0.33164550145E+01 -0.82046341682E+03  0.82221460481E+03  0.00000000000E+00 0.  1.
<scales pt_clust_3="92.17874" pt_clust_4="14000.00000" pt_clust_5="52.97092" pt_clust_6="48.24159"></scales>
<clustering>
<clus scale="   52.971">  1  5  2 -1</clus>
<clus scale="   48.242">  2  6  1 -1</clus>
<clus scale="   92.179">  2  3  1 -1</clus>
<clus scale="   52.971">  1  3  2 -1</clus>
</clustering>
</event>
<event>
 6    0  0.3584505E+002  0.7780159E+02  0.7546771E-02  0.1335409E+00
         21   -1    0    0  503  502  0.00000000000E+00  0.00000000000E+00  0.47979726203E+03  0.47979726203E+03  0.00000000000E+00 0.  1.
          1   -1    0    0  504    0 -0.00000000000E+00 -0.00000000000E+00 -0.14151798458E+04  0.14151798458E+04  0.00000000000E+00 0. -1.
         21    1    1    2  503  505  0.32367545848E+01 -0.37745562531E+02  0.16673584685E+03  0.17098551604E+03  0.00000000000E+00 0.  1.
         21    1    1    2  504  502 -0.42613947654E+02  0.81717155146E+02  0.18844438561E+03  0.20977351703E+03  0.00000000000E+00 0.  1.
         21    1    1    2  505  501  0.14816520009E+02 -0.94510469430E+02  0.90691824385E+02  0.13182095853E+03  0.00000000000E+00 0.  1.
          1    1    1    2  501    0  0.24560673060E+02  0.50538876815E+02 -0.13812546406E+04  0.13823971162E+04  0.00000000000E+00 0. -1.
<scales pt_clust_3="37.88409" pt_clust_4="14000.00000" pt_clust_5="77.80159" pt_clust_6="56.13103"></scales>
<clustering>
<clus scale="   37.884">  1  3  2 -1</clus>
<clus scale="   56.131">  2  6  1 -1</clus>
<clus scale="   77.802">  2  5  1 -1</clus>
<clus scale="   37.884">  1  3  2 -1</clus>
</clustering>
</event>
<event>
 6    0  0.3584505E+002  0.7947133E+02  0.7546771E-02  0.1330558E+00
         -4   -1    0    0    0  501 -0.00000000000E+00  0.00000000000E+00  0.68626576676E+03  0.68626576676E+03  0.00000000000E+00 0. -1.
         21   -1    0    0  504  502  0.00000000000E+00 -0.00000000000E+00 -0.96150021232E+03  0.96150021232E+03  0.00000000000E+00 0. -1.
         21    1    1    2  503  501 -0.11452939854E+03 -0.24178276109E+02 -0.42739174858E+02  0.12461223549E+03  0.00000000000E+00 0. -1.
         21    1    1    2  504  503  0.30972067117E+02 -0.23081990563E+01 -0.85689772710E+03  0.85746038476E+03  0.00000000000E+00 0. -1.
         21    1    1    2  505  502  0.27516514697E+02 -0.29031964638E+02  0.38924280775E+01  0.40189109821E+02  0.00000000000E+00 0.  1.
         -4    1    1    2    0  505  0.56040816724E+02  0.55518439803E+02  0.62051002831E+03  0.62550424901E+03  0.00000000000E+00 0. -1.
<scales pt_clust_3="79.47133" pt_clust_4="31.05796" pt_clust_5="44.14799" pt_clust_6="14000.00000"></scales>
<clustering>
<clus scale="   31.058">  2  4  1 -1</clus>
<clus scale="   44.148">  2  5  1 -1</clus>
<clus scale="   79.471">  2  3  1 -1</clus>
<clus scale="   31.058">  2  3  1 -1</clus>
</clustering>
</event>
<event>
 6    0  0.3584505E+002  0.1142567E+03  0.7546771E-02  0.1252884E+00
         21   -1    0    0  504  502  0.00000000000E+00  0.00000000000E+00  0.10973136782E+03  0.10973136782E+03  0.00000000000E+00 0. -1.
          1   -1    0    0  503    0 -0.00000000000E+00 -0.00000000000E+00 -0.41957310742E+03  0.41957310742E+03  0.00000000000E+00 0.  1.
         21    1    1    2  503  502  0.96814230316E+02  0.12390214838E+02  0.37116543095E+02  0.10442293995E+03  0.00000000000E+00 0. -1.
         21    1    1    2  504  505 -0.26065225354E+02 -0.10207159721E+03 -0.90595127999E+02  0.13894417637E+03  0.00000000000E+00 0. -1.
         21    1    1    2  505  501 -0.61465287444E+02  0.50181975006E+02 -0.12160694403E+03  0.14520489322E+03  0.00000000000E+00 0.  1.
          1    1    1    2  501    0 -0.92837175181E+01  0.39499407369E+02 -0.13475621066E+03  0.14073246571E+03  0.00000000000E+00 0.  1.
<scales pt_clust_3="97.60386" pt_clust_4="100.32276" pt_clust_5="39.10157" pt_clust_6="39.10157"></scales>
<clustering>
<clus scale="   39.102">  5  6 -1 -1</clus>
<clus scale="   97.604">  1  3  2 -1</clus>
<clus scale="  100.323">  1  4  2 -1</clus>
<clus scale="   97.604">  1  3  2 -1</clus>
</clustering>
</event>
<event>
 6    0  0.3584505E+002  0.8651283E+02  0.7546771E-02  0.1311523E+00
         21   -1    0    0  504  502  0.00000000000E+00  0.00000000000E+00  0.41266369873E+02  0.41266369873E+02  0.00000000000E+00 0. -1.
          1   -1    0    0  505    0 -0.00000000000E+00 -0.00000000000E+00 -0.70011733980E+03  0.70011733980E+03  0.00000000000E+00 0. -1.
         21    1    1    2  503  502  0.31970256566E+02 -0.18500645391E+02 -0.79977046228E+00  0.36946052801E+02  0.00000000000E+00 0. -1.
         21    1    1    2  504  501 -0.15111128457E+02  0.52347177276E+02 -0.15091937785E+03  0.16045320745E+03  0.00000000000E+00 0. -1.
         21    1    1    2  505  503  0.72821904010E+02 -0.40564054368E+02 -0.11722651960E+03  0.14384202831E+03  0.00000000000E+00 0. -1.
          1    1    1    2  501    0 -0.89681032120E+02  0.67175224823E+01 -0.38990530201E+03  0.40014242111E+03  0.00000000000E+00 0. -1.
<scales pt_clust_3="36.93740" pt_clust_4="49.29023" pt_clust_5="86.51283" pt_clust_6="14000.00000"></scales>
<clustering>
<clus scale="   36.937">  1  3  2 -1</clus>
<clus scale="   49.290">  1  4  2 -1</clus>
<clus scale="   86.513">  1  5  2 -1</clus>
<clus scale="   36.937">  1  3  2 -1</clus>
</clustering>
</event>
<event>
 6    0  0.3584505E+002  0.1666393E+03  0.7546771E-02  0.1181399E+00
          1   -1    0    0  504    0 -0.00000000000E+00  0.00000000000E+00  0.22254039876E+04  0.22254039876E+04  0.00000000000E+00 0.  1.
         21   -1    0    0  505  502  0.00000000000E+00 -0.00000000000E+00 -0.43414023939E+02  0.43414023939E+02  0.00000000000E+00 0. -1.
         21    1    1    2  503  502  0.91710536862E+02 -0.12180022808E+03  0.32554237583E+03  0.35947733809E+03  0.00000000000E+00 0.  1.
         21    1    1    2  504  503  0.59391193813E+02  0.26132984249E+02  0.34308404798E+03  0.34916602176E+03  0.00000000000E+00 0.  1.
         21    1    1    2  505  501 -0.12193918467E+03  0.13502130486E+03  0.33853275169E+03  0.38432322529E+03  0.00000000000E+00 0. -1.
          1    1    1    2  501    0 -0.29162546001E+02 -0.39354061026E+02  0.11748307881E+04  0.11758514264E+04  0.00000000000E+00 0.  1.
<scales pt_clust_3="14000.00000" pt_clust_4="51.48898" pt_clust_5="166.63932" pt_clust_6="48.98159"></scales>
<clustering>
<clus scale="   48.982">  1  6  2 -1</clus>
<clus scale="   51.489">  1  4  2 -1</clus>
<clus scale="  166.639">  1  5  2 -1</clus>
<clus scale="  166.639">  2  3  1 -1</clus>
</clustering>
</event>
<event>
 6    0  0.3584505E+002  0.9441744E+02  0.7546771E-02  0.1292494E+00
          1   -1    0    0  504    0 -0.00000000000E+00  0.00000000000E+00  0.16559299374E+04  0.16559299374E+04  0.00000000000E+00 0. -1.
         21   -1    0    0  505  502  0.00000000000E+00 -0.00000000000E+00 -0.28922173513E+03  0.28922173513E+03  0.00000000000E+00 0. -1.
         21    1    1    2  503  502  0.62855020303E+02  0.48208145734E+02 -0.16398125852E+03  0.18211159227E+03  0.00000000000E+00 0. -1.
         21    1    1    2  504  503 -0.83033413454E+02  0.95363195494E+02 -0.26516906868E+02  0.12919687750E+03  0.00000000000E+00 0.  1.
         21    1    1    2  505  501 -0.42858623233E+02 -0.74067321926E+02  0.12725377925E+02  0.86514536386E+02  0.00000000000E+00 0.  1.
          1    1    1    2  501    0  0.63037016384E+02 -0.69504019303E+02  0.15444809897E+04  0.15473286664E+04  0.00000000000E+00 0. -1.
<scales pt_clust_3="79.21350" pt_clust_4="94.41744" pt_clust_5="63.06136" pt_clust_6="14000.00000"></scales>
<clustering>
<clus scale="   79.214">  2  3  1 -1</clus>
<clus scale="   63.061">  2  5  1 -1</clus>
<clus scale="   94.417">  2  4  1 -1</clus>
<clus scale="   79.214">  2  3  1 -1</clus>
</clustering>
</event>
<event>
 6    0  0.3584505E+002  0.6282632E+02  0.7546771E-02  0.1386340E+00
          1   -1    0    0  504    0 -0.00000000000E+00  0.00000000000E+00  0.69674184224E+02  0.69674184224E+02  0.00000000000E+00 0.  1.
         21   -1    0    0  503  502  0.00000000000E+00 -0.00000000000E+00 -0.42795066994E+03  0.42795066994E+03  0.00000000000E+00 0.  1.
         21    1    1    2  503  501  0.61454700700E+02 -0.71599006221E+02 -0.14532986203E+03  0.17327396437E+03  0.00000000000E+00 0.  1.
         21    1    1    2  504  505  0.10422040764E+02  0.59652884290E+02 -0.48891785748E+02  0.77829893045E+02  0.00000000000E+00 0.  1.
         21    1    1    2  505  502 -0.18450387478E+02  0.37723867963E+02 -0.18021179094E+03  0.18503998650E+03  0.00000000000E+00 0.  1.
          1    1    1    2  501    0 -0.53426353985E+02 -0.25777746032E+02  0.16156953001E+02  0.61481010247E+02  0.00000000000E+00 0.  1.
<scales pt_clust_3="14000.00000" pt_clust_4="62.82632" pt_clust_5="41.99413" pt_clust_6="59.46741"></scales>
<clustering>
<clus scale="   41.994">  2  5  1 -1</clus>
<clus scale="   59.467">  1  6  2 -1</clus>
<clus scale="   62.826">  1  4  2 -1</clus>
<clus scale="   41.994">  2  3  1 -1</clus>
</clustering>
</event>
<event>
 6    0  0.3584505E+002  0.6918015E+02  0.7546771E-02  0.1362903E+00
          2   -1    0    0  504    0 -0.00000000000E+00  0.00000000000E+00  0.15919464487E+04  0.15919464487E+04  0.00000000000E+00 0.  1.
         21   -1    0    0  503  502  0.00000000000E+00 -0.00000000000E+00 -0.55060455049E+03  0.55060455049E+03  0.00000000000E+00 0. -1.
         21    1    1    2  503  505  0.12325047263E+01  0.36919891853E+02 -0.31094853586E+03  0.31313509774E+03  0.00000000000E+00 0. -1.
         21    1    1    2  504  502  0.36643336494E+02 -0.45462408588E+02 -0.15680126974E+02  0.60460161148E+02  0.00000000000E+00 0.  1.
         21    1    1    2  505  501 -0.10018993913E+03 -0.21235316016E+02 -0.18659671482E+03  0.21285510689E+03  0.00000000000E+00 0.  1.
          2    1    1    2  501    0  0.62314097907E+02  0.29777832751E+02  0.15545672758E+04  0.15561006334E+04  0.00000000000E+00 0.  1.
<scales pt_clust_3="36.94046" pt_clust_4="54.06502" pt_clust_5="69.18015" pt_clust_6="14000.00000"></scales>
<clustering>
<clus scale="   36.940">  2  3  1 -1</clus>
<clus scale="   54.065">  2  4  1 -1</clus>
<clus scale="   69.180">  2  5  1 -1</clus>
<clus scale="   36.940">  2  3  1 -1</clus>
</clustering>
</event>
<event>
 6    0  0.3584505E+002  0.9493994E+02  0.7546771E-02  0.1291311E+00
         21   -1    0    0  501  502  0.00000000000E+00  0.00000000000E+00  0.13655324718E+03  0.13655324718E+03  0.00000000000E+00 0. -1.
          2   -1    0    0  503    0 -0.00000000000E+00 -0.00000000000E+00 -0.26480709381E+04  0.26480709381E+04  0.00000000000E+00 0.  1.
         21    1    1    2  503  505  0.29058741022E+02  0.83752508622E+02 -0.10447598035E+03  0.13701869800E+03  0.00000000000E+00 0. -1.
         21    1    1    2  504  502  0.20331196994E+02 -0.30303975948E+02  0.98105595448E+02  0.10467280634E+03  0.00000000000E+00 0. -1.
         21    1    1    2  505  504 -0.44119265164E+02  0.41886441590E+02 -0.33514829625E+02  0.69456658086E+02  0.00000000000E+00 0.  1.
          2    1    1    2  501    0 -0.52706728520E+01 -0.95334974264E+02 -0.24716324764E+04  0.24734760228E+04  0.00000000000E+00 0.  1.
<scales pt_clust_3="94.93994" pt_clust_4="36.49231" pt_clust_5="42.83173" pt_clust_6="14000.00000"></scales>
<clustering>
<clus scale="   36.492">  1  4  2 -1</clus>
<clus scale="   42.832">  1  5  2 -1</clus>
<clus scale="   94.940">  1  3  2 -1</clus>
<clus scale="   36.492">  1  3  2 -1</clus>
</clustering>
</event>
<event>
 6    0  0.3584505E+002  0.1491804E+03  0.7546771E-02  0.1201484E+00
          1   -1    0    0  504    0 -0.00000000000E+00  0.00000000000E+00  0.55105108927E+03  0.55105108927E+03  0.00000000000E+00 0.  1.
         21   -1    0    0  503  502  0.00000000000E+00 -0.00000000000E+00 -0.69608010881E+03  0.69608010881E+03  0.00000000000E+00 0.  1.
         21    1    1    2  503  501  0.67397213880E+02 -0.15752946868E+03 -0.39887724085E+03  0.43412091773E+03  0.00000000000E+00 0.  1.
         21    1    1    2  504  505 -0.10563536722E+03  0.96976056582E+02 -0.16033671142E+03  0.21510706029E+03  0.00000000000E+00 0. -1.
         21    1    1    2  505  502  0.12711862375E+01  0.33162650914E+02 -0.87774885579E+02  0.93839266133E+02  0.00000000000E+00 0. -1.
          1    1    1    2  501    0  0.36966967105E+02  0.27390761183E+02  0.50195981830E+03  0.50406395393E+03  0.00000000000E+00 0.  1.
<scales pt_clust_3="14000.00000" pt_clust_4="149.18042" pt_clust_5="33.18701" pt_clust_6="46.04492"></scales>
<clustering>
<clus scale="   33.187">  2  5  1 -1</clus>
<clus scale="   46.045">  1  6  2 -1</clus>
<clus scale="  149.180">  1  4  2 -1</clus>
<clus scale="   33.187">  2  3  1 -1</clus>
</clustering>
</event>
<event>
 6    0  0.3584505E+002  0.1133762E+03  0.7546771E-02  0.1254442E+00
         21   -1    0    0  504  502  0.00000000000E+00  0.00000000000E+00  0.22291397703E+04  0.22291397703E+04  0.00000000000E+00 0.  1.
          1   -1    0    0  503    0 -0.00000000000E+00 -0.00000000000E+00 -0.23429960251E+03  0.23429960251E+03  0.00000000000E+00 0. -1.
         21    1    1    2  503  502  0.36387718709E+02 -0.54512071683E+01  0.18021886633E+03  0.18393646053E+03  0.00000000000E+00 0. -1.
         21    1    1    2  504  505 -0.92805989970E+02  0.10217373689E+03  0.18694634654E+04  0.18745522326E+04  0.00000000000E+00 0.  1.
         21    1    1    2  505  501  0.26283097394E+02 -0.10993013997E+03  0.15539542042E+03  0.19215403605E+03  0.00000000000E+00 0. -1.
          1    1    1    2  501    0  0.30135173867E+02  0.13207610252E+02 -0.21023758434E+03  0.21279664364E+03  0.00000000000E+00 0. -1.
<scales pt_clust_3="39.09184" pt_clust_4="113.37622" pt_clust_5="14000.00000" pt_clust_6="32.90243"></scales>
<clustering>
<clus scale="   32.902">  2  6  1 -1</clus>
<clus scale="   39.092">  1  3  2 -1</clus>
<clus scale="  113.376">  1  4  2 -1</clus>
<clus scale="   39.092">  1  3  2 -1</clus>
</clustering>
</event>
<event>
 6    0  0.3584505E+002  0.8008115E+02  0.7546771E-02  0.1328821E+00
          2   -1    0    0  503    0 -0.00000000000E+00  0.00000000000E+00  0.20105125824E+04  0.20105125824E+04  0.00000000000E+00 0.  1.
         21   -1    0    0  505  502  0.00000000000E+00 -0.00000000000E+00 -0.10464192188E+03  0.10464192188E+03  0.00000000000E+00 0.  1.
         21    1    1    2  503  502  0.79457651912E+02  0.36477266620E+01 -0.43606475574E+02  0.90710247873E+02  0.00000000000E+00 0.  1.
         21    1    1    2  504  501 -0.93920191318E+02 -0.94959057197E+01  0.19616348902E+03  0.21769540415E+03  0.00000000000E+00 0.  1.
         21    1    1    2  505  504 -0.11969357769E+02  0.39137891289E+02 -0.10636339173E+02  0.42286780097E+02  0.00000000000E+00 0.  1.
          2    1    1    2  501    0  0.26431897175E+02 -0.33289712232E+02  0.17639499862E+04  0.17644620721E+04  0.00000000000E+00 0.  1.
<scales pt_clust_3="80.08115" pt_clust_4="14000.00000" pt_clust_5="40.92725" pt_clust_6="42.38233"></scales>
<clustering>
<clus scale="   40.927">  2  5  1 -1</clus>
<clus scale="   42.382">  1  6  2 -1</clus>
<clus scale="   80.081">  2  3  1 -1</clus>
<clus scale="   40.927">  2  3  1 -1</clus>
</clustering>
</event>
<event>
 6    0  0.3584505E+002  0.9872099E+02  0.7546771E-02  0.1283009E+00
          2   -1    0    0  505    0 -0.00000000000E+00  0.00000000000E+00  0.13590264066E+04  0.13590264066E+04  0.00000000000E+00 0. -1.
         21   -1    0    0  504  502  0.00000000000E+00 -0.00000000000E+00 -0.63888493948E+03  0.63888493948E+03  0.00000000000E+00 0.  1.
         21    1    1    2  503  502  0.30447049125E+02  0.38003299459E+02 -0.40305197561E+03  0.40598296592E+03  0.00000000000E+00 0.  1.
         21    1    1    2  504  501 -0.10005650445E+03 -0.95026925998E+02  0.15103793936E+03  0.20458220810E+03  0.00000000000E+00 0. -1.
         21    1    1    2  505  503  0.73675845553E+01  0.56957633268E+02 -0.20278356259E+03  0.21075964165E+03  0.00000000000E+00 0.  1.
          2    1    1    2  501    0  0.62241870765E+02  0.65993271015E-01  0.11749390660E+04  0.11765865305E+04  0.00000000000E+00 0. -1.
<scales pt_clust_3="48.69572" pt_clust_4="14000.00000" pt_clust_5="98.72099" pt_clust_6="62.34920"></scales>
<clustering>
<clus scale="   48.696">  2  3  1 -1</clus>
<clus scale="   62.349">  1  6  2 -1</clus>
<clus scale="   98.721">  2  5  1 -1</clus>
<clus scale="   48.696">  2  3  1 -1</clus>
</clustering>
</event>
<event>
 6    0  0.3584505E+002  0.8530205E+02  0.7546771E-02  0.1314645E+00
         21   -1    0    0  504  502  0.00000000000E+00  0.00000000000E+00  0.15636137213E+03  0.15636137213E+03  0.00000000000E+00 0. -1.
          3   -1    0    0  503    0 -0.00000000000E+00 -0.00000000000E+00 -0.20636781051E+04  0.20636781051E+04  0.00000000000E+00 0.  1.
         21    1    1    2  503  502  0.30460079033E+02  0.57419396708E+02 -0.47531594362E+01  0.65172049666E+02  0.00000000000E+00 0. -1.
         21    1    1    2  504  505 -0.39016000516E+02  0.25166233088E+02  0.61170302190E+02  0.76794488436E+02  0.00000000000E+00 0. -1.
         21    1    1    2  505  501  0.62245051241E+02 -0.15459883570E+02  0.37964259246E+02  0.74530124005E+02  0.00000000000E+00 0. -1.
          3    1    1    2  501    0 -0.53689129758E+02 -0.67125746226E+02 -0.20016981350E+04  0.20035428151E+04  0.00000000000E+00 0.  1.
<scales pt_clust_3="14000.00000" pt_clust_4="46.42831" pt_clust_5="37.13723" pt_clust_6="85.30205"></scales>
<clustering>
<clus scale="   46.428">  1  4  2 -1</clus>
<clus scale="   37.137">  1  5  2 -1</clus>
<clus scale="   85.302">  2  6  1 -1</clus>
<clus scale="   46.428">  1  3  2 -1</clus>
</clustering>
</event>
<event>
 6    0  0.3584505E+002  0.1429737E+03  0.7546771E-02  0.1209383E+00
         21   -1    0    0  501  502  0.00000000000E+00  0.00000000000E+00  0.50496463873E+02  0.50496463873E+02  0.00000000000E+00 0. -1.
          2   -1    0    0  505    0 -0.00000000000E+00 -0.00000000000E+00 -0.23765218326E+04  0.23765218326E+04  0.00000000000E+00 0.  1.
         21    1    1    2  503  504 -0.54244490449E+02 -0.11614606207E+03 -0.31851617974E+03  0.34334374792E+03  0.00000000000E+00 0. -1.
         21    1    1    2  504  502  0.22249284435E+02 -0.76023787497E+02 -0.19072326762E+02  0.81476380451E+02  0.00000000000E+00 0. -1.
         21    1    1    2  505  503 -0.47186282878E+02  0.90539910397E+02 -0.10514783774E+04  0.10564235887E+04  0.00000000000E+00 0.  1.
          2    1    1    2  501    0  0.79181488891E+02  0.10162993917E+03 -0.93695848482E+03  0.94577457938E+03  0.00000000000E+00 0.  1.
<scales pt_clust_3="142.97375" pt_clust_4="79.21267" pt_clust_5="92.16186" pt_clust_6="14000.00000"></scales>
<clustering>
<clus scale="   79.213">  1  4  2 -1</clus>
<clus scale="   92.162">  2  5  1 -1</clus>
<clus scale="  142.974">  1  3  2 -1</clus>
<clus scale="   79.213">  1  3  2 -1</clus>
</clustering>
</event>
<event>
 6    0  0.3584505E+002  0.2181840E+03  0.7546771E-02  0.1135244E+00
         21   -1    0    0  503  502  0.00000000000E+00  0.00000000000E+00  0.67213779833E+03  0.67213779833E+03  0.00000000000E+00 0. -1.
          1   -1    0    0  504    0 -0.00000000000E+00 -0.00000000000E+00 -0.51597651951E+03  0.51597651951E+03  0.00000000000E+00 0.  1.
         21    1    1    2  503  505 -0.20139555120E+02  0.26764916022E+02  0.11493016122E+03  0.11971175534E+03  0.00000000000E+00 0.  1.
         21    1    1    2  504  502 -0.16009304504E+03 -0.13700891164E+03  0.34652852241E+03  0.40556533603E+03  0.00000000000E+00 0. -1.
         21    1    1    2  505  501  0.21421488622E+03  0.10833584317E+03  0.97141464846E+02  0.25896165081E+03  0.00000000000E+00 0. -1.
          1    1    1    2  501    0 -0.33982286065E+02  0.19081524466E+01 -0.40243886965E+03  0.40387557567E+03  0.00000000000E+00 0.  1.
<scales pt_clust_3="33.49571" pt_clust_4="218.18402" pt_clust_5="14000.00000" pt_clust_6="34.06381"></scales>
<clustering>
<clus scale="   33.496">  1  3  2 -1</clus>
<clus scale="   34.064">  2  6  1 -1</clus>
<clus scale="  218.184">  1  4  2 -1</clus>
<clus scale="   33.496">  1  3  2 -1</clus>
</clustering>
</event>
<event>
 6    0  0.3584505E+002  0.9616594E+02  0.7546771E-02  0.1288571E+00
          2   -1    0    0  505    0 -0.00000000000E+00  0.00000000000E+00  0.22833562676E+04  0.22833562676E+04  0.00000000000E+00 0.  1.
         21   -1    0    0  503  502  0.00000000000E+00 -0.00000000000E+00 -0.58403148182E+02  0.58403148182E+02  0.00000000000E+00 0.  1.
         21    1    1    2  503  501  0.11496233713E+03 -0.83232076792E+02  0.94422923812E+03  0.95483651569E+03  0.00000000000E+00 0.  1.
         21    1    1    2  504  502 -0.44452032560E+02  0.83600645343E+02 -0.75475551138E+01  0.94984297064E+02  0.00000000000E+00 0.  1.
         21    1    1    2  505  504 -0.22831173112E+02  0.24038409744E+02  0.23748585808E+03  0.23978874118E+03  0.00000000000E+00 0.  1.
          2    1    1    2  501    0 -0.47679131456E+02 -0.24406978295E+02  0.10507855783E+04  0.10521498618E+04  0.00000000000E+00 0.  1.
<scales pt_clust_3="14000.00000" pt_clust_4="96.16594" pt_clust_5="33.15279" pt_clust_6="60.62838"></scales>
<clustering>
<clus scale="   33.153">  1  5  2 -1</clus>
<clus scale="   60.628">  1  6  2 -1</clus>
<clus scale="   96.166">  2  4  1 -1</clus>
<clus scale="   96.166">  2  3  1 -1</clus>
</clustering>
</event>
<event>
 6    0  0.3584505E+002  0.8743371E+02  0.7546771E-02  0.1309188E+00
         21   -1    0    0  505  502  0.00000000000E+00  0.00000000000E+00  0.11666163154E+04  0.11666163154E+04  0.00000000000E+00 0.  1.
          2   -1    0    0  503    0 -0.00000000000E+00 -0.00000000000E+00 -0.37431131035E+03  0.37431131035E+03  0.00000000000E+00 0. -1.
         21    1    1    2  503  502  0.83888688780E+02 -0.34216217110E+02  0.39924603739E+02  0.99005230176E+02  0.00000000000E+00 0.  1.
         21    1    1    2  504  501 -0.85346899994E+01  0.58193838168E+02  0.20553664470E+03  0.21378651980E+03  0.00000000000E+00 0.  1.
         21    1    1    2  505  504  0.10911557773E+02 -0.37730048236E+02  0.88144501264E+03  0.88231962969E+03  0.00000000000E+00 0.  1.
          2    1    1    2  501    0 -0.86265556554E+02  0.13752427177E+02 -0.33460125604E+03  0.34581624607E+03  0.00000000000E+00 0. -1.
<scales pt_clust_3="14000.00000" pt_clust_4="30.41573" pt_clust_5="39.27618" pt_clust_6="87.43371"></scales>
<clustering>
<clus scale="   39.276">  1  5  2 -1</clus>
<clus scale="   30.416">  1  4  2 -1</clus>
<clus scale="   87.434">  2  6  1 -1</clus>
<clus scale="   39.276">  1  3  2 -1</clus>
</clustering>
</event>
<event>
 6    0  0.3584505E+002  0.9277821E+02  0.7546771E-02  0.1296260E+00
         -2   -1    0    0    0  501 -0.00000000000E+00  0.00000000000E+00  0.24330619548E+03  0.24330619548E+03  0.00000000000E+00 0. -1.
         21   -1    0    0  505  502  0.00000000000E+00 -0.00000000000E+00 -0.16924115126E+03  0.16924115126E+03  0.00000000000E+00 0. -1.
         21    1    1    2  503  502  0.55375466835E+02 -0.44698089419E+02  0.23897066722E+02  0.75069509941E+02  0.00000000000E+00 0. -1.
         21    1    1    2  504  501 -0.10817437831E+03  0.49380803408E+02 -0.50209597963E+01  0.11901835953E+03  0.00000000000E+00 0. -1.
         21    1    1    2  505  504 -0.41403343745E+01 -0.30427322883E+02 -0.71159650335E+02  0.77502646293E+02  0.00000000000E+00 0. -1.
         -2    1    1    2    0  503  0.56939245844E+02  0.25744608894E+02  0.12634858762E+03  0.14095683098E+03  0.00000000000E+00 0. -1.
<scales pt_clust_3="92.77821" pt_clust_4="14000.00000" pt_clust_5="30.70772" pt_clust_6="61.26657"></scales>
<clustering>
<clus scale="   30.708">  2  5  1 -1</clus>
<clus scale="   61.267">  1  6  2 -1</clus>
<clus scale="   92.778">  1  3  2 -1</clus>
<clus scale="   30.708">  2  3  1 -1</clus>
</clustering>
</event>
<event>
 6    0  0.3584505E+002  0.1698789E+03  0.7546771E-02  0.1177974E+00
         21   -1    0    0  504  502  0.00000000000E+00  0.00000000000E+00  0.13806722589E+03  0.13806722589E+03  0.00000000000E+00 0.  1.
          1   -1    0    0  503    0 -0.00000000000E+00 -0.00000000000E+00 -0.75840916968E+03  0.75840916968E+03  0.00000000000E+00 0.  1.
         21    1    1    2  503  505  0.70660085520E+02 -0.51503223587E+02  0.22600934492E+02  0.90311859495E+02  0.00000000000E+00 0.  1.
         21    1    1    2  504  501 -0.72478247503E+02  0.10265813474E+03 -0.15124192676E+03  0.19663649051E+03  0.00000000000E+00 0. -1.
         21    1    1    2  505  502  0.19028606550E+02 -0.92457224540E+02  0.19487036001E+02  0.96385532156E+02  0.00000000000E+00 0.  1.
          1    1    1    2  501    0 -0.17210444566E+02  0.41302313391E+02 -0.51118798751E+03  0.51314251341E+03  0.00000000000E+00 0.  1.
<scales pt_clust_3="63.67413" pt_clust_4="156.66209" pt_clust_5="63.67413" pt_clust_6="44.74461"></scales>
<clustering>
<clus scale="   44.745">  2  6  1 -1</clus>
<clus scale="   63.674">  3  5 -1 -1</clus>
<clus scale="  156.662">  2  4  1 -1</clus>
<clus scale="  169.879">  1  3  2 -1</clus>
</clustering>
</event>
<event>
 6    0  0.3584505E+002  0.1175890E+03  0.7546771E-02  0.1247128E+00
          2   -1    0    0  504    0 -0.00000000000E+00  0.00000000000E+00  0.21835552845E+04  0.21835552845E+04  0.00000000000E+00 0. -1.
         21   -1    0    0  505  502  0.00000000000E+00 -0.00000000000E+00 -0.38953642704E+03  0.38953642704E+03  0.00000000000E+00 0. -1.
         21    1    1    2  503  501 -0.12308456589E+03  0.11803965730E+03  0.14884943923E+04  0.14982318668E+04  0.00000000000E+00 0. -1.
         21    1    1    2  504  502  0.10816162040E+02 -0.91266207718E+02 -0.34137976596E+03  0.35353451690E+03  0.00000000000E+00 0. -1.
         21    1    1    2  505  503  0.83242574727E+02  0.22944134662E+02  0.16020575214E+02  0.87820375727E+02  0.00000000000E+00 0. -1.
          2    1    1    2  501    0  0.29025829122E+02 -0.49717584246E+02  0.63088365600E+03  0.63350495211E+03  0.00000000000E+00 0. -1.
<scales pt_clust_3="117.58896" pt_clust_4="14000.00000" pt_clust_5="86.86107" pt_clust_6="57.57028"></scales>
<clustering>
<clus scale="   57.570">  1  6  2 -1</clus>
<clus scale="   86.861">  2  5  1 -1</clus>
<clus scale="  117.589">  1  3  2 -1</clus>
<clus scale="   86.861">  2  3  1 -1</clus>
</clustering>
</event>
<event>
 6    0  0.3584505E+002  0.1035732E+03  0.7546771E-02  0.1272956E+00
         -4   -1    0    0    0  501 -0.00000000000E+00  0.00000000000E+00  0.13472936992E+03  0.13472936992E+03  0.00000000000E+00 0. -1.
         21   -1    0    0  504  502  0.00000000000E+00 -0.00000000000E+00 -0.73637449405E+03  0.73637449405E+03  0.00000000000E+00 0.  1.
         21    1    1    2  503  502 -0.31313797053E+02  0.35806871278E+02 -0.24707971364E+03  0.25161691281E+03  0.00000000000E+00 0.  1.
         21    1    1    2  504  505 -0.73620342643E+01  0.37899204381E+02 -0.68833105142E+02  0.78921135348E+02  0.00000000000E+00 0. -1.
         21    1    1    2  505  501  0.70590279970E+02 -0.16740241118E+03 -0.36894641765E+03  0.41125176473E+03  0.00000000000E+00 0.  1.
         -4    1    1    2    0  503 -0.31914448653E+02  0.93696335521E+02  0.83214112303E+02  0.12931405109E+03  0.00000000000E+00 0. -1.
<scales pt_clust_3="60.57140" pt_clust_4="38.60763" pt_clust_5="103.57322" pt_clust_6="14000.00000"></scales>
<clustering>
<clus scale="   38.608">  2  4  1 -1</clus>
<clus scale="   60.571">  2  3  1 -1</clus>
<clus scale="  103.573">  2  5  1 -1</clus>
<clus scale="   38.608">  2  3  1 -1</clus>
</clustering>
</event>
<event>
 6    0  0.3584505E+002  0.1154172E+03  0.7546771E-02  0.1250855E+00
          2   -1    0    0  504    0 -0.00000000000E+00  0.00000000000E+00  0.21822285983E+04  0.21822285983E+04  0.00000000000E+00 0. -1.
         21   -1    0    0  505  502  0.00000000000E+00 -0.00000000000E+00 -0.42022781948E+03  0.42022781948E+03  0.00000000000E+00 0.  1.
         21    1    1    2  503  502 -0.37853694858E+02  0.10990236599E+03 -0.38230560815E+03  0.39958604866E+03  0.00000000000E+00 0.  1.
         21    1    1    2  504  503  0.52214591371E+02 -0.87335450113E+02  0.14995580653E+03  0.18121972384E+03  0.00000000000E+00 0. -1.
         21    1    1    2  505  501 -0.56596122752E+02 -0.80321550024E+02  0.17347326094E+03  0.19936811372E+03  0.00000000000E+00 0. -1.
          2    1    1    2  501    0  0.42235226239E+02  0.57754634147E+02  0.18208773195E+04  0.18222825315E+04  0.00000000000E+00 0. -1.
<scales pt_clust_3="14000.00000" pt_clust_4="115.41716" pt_clust_5="61.28287" pt_clust_6="71.55007"></scales>
<clustering>
<clus scale="   71.550">  1  6  2 -1</clus>
<clus scale="   61.283">  1  5  2 -1</clus>
<clus scale="  115.417">  1  4  2 -1</clus>
<clus scale="  115.417">  2  3  1 -1</clus>
</clustering>
</event>
<event>
 6    0  0.3584505E+002  0.8970599E+02  0.7546771E-02  0.1303565E+00
          1   -1    0    0  502    0 -0.00000000000E+00  0.00000000000E+00  0.16518159547E+04  0.16518159547E+04  0.00000000000E+00 0.  1.
         21   -1    0    0  503  502  0.00000000000E+00 -0.00000000000E+00 -0.75275577334E+02  0.75275577334E+02  0.00000000000E+00 0. -1.
         21    1    1    2  503  505 -0.50699022311E+02  0.52917362118E+02 -0.44279235008E+02  0.85622945112E+02  0.00000000000E+00 0. -1.
         21    1    1    2  504  501  0.18414738046E+02 -0.47125060772E+02  0.25122799815E+03  0.25627208390E+03  0.00000000000E+00 0.  1.
         21    1    1    2  505  504 -0.23047403016E+01 -0.63920317953E+02  0.14197419734E+03  0.15571702407E+03  0.00000000000E+00 0.  1.
          1    1    1    2  501    0  0.34589024567E+02  0.58128016607E+02  0.12276174169E+04  0.12294794790E+04  0.00000000000E+00 0.  1.
<scales pt_clust_3="74.23419" pt_clust_4="44.79271" pt_clust_5="44.79271" pt_clust_6="67.64072"></scales>
<clustering>
<clus scale="   44.793">  4  5 -1 -1</clus>
<clus scale="   67.641">  1  6  2 -1</clus>
<clus scale="   74.234">  2  3  1 -1</clus>
<clus scale="   74.234">  2  3  1 -1</clus>
</clustering>
</event>
<event>
 6    0  0.3584505E+002  0.9027838E+02  0.7546771E-02  0.1302179E+00
         21   -1    0    0  503  502  0.00000000000E+00  0.00000000000E+00  0.44148097861E+02  0.44148097861E+02  0.00000000000E+00 0. -1.
          2   -1    0    0  505    0 -0.00000000000E+00 -0.00000000000E+00 -0.24973500540E+04  0.24973500540E+04  0.00000000000E+00 0.  1.
         21    1    1    2  503  501  0.11596927840E+02  0.30611836637E+02 -0.68842424701E+02  0.76228949332E+02  0.00000000000E+00 0.  1.
         21    1    1    2  504  502 -0.77819683097E+02 -0.57580004032E+02 -0.77086834251E+02  0.12374869679E+03  0.00000000000E+00 0. -1.
         21    1    1    2  505  504  0.11294055138E+03 -0.21694307075E+02 -0.18273875572E+03  0.21591587239E+03  0.00000000000E+00 0. -1.
          2    1    1    2  501    0 -0.46717796128E+02  0.48662474471E+02 -0.21245339415E+04  0.21256046333E+04  0.00000000000E+00 0.  1.
<scales pt_clust_3="32.73489" pt_clust_4="90.27838" pt_clust_5="14000.00000" pt_clust_6="67.64513"></scales>
<clustering>
<clus scale="   32.735">  1  3  2 -1</clus>
<clus scale="   67.645">  2  6  1 -1</clus>
<clus scale="   90.278">  1  4  2 -1</clus>
<clus scale="   32.735">  1  3  2 -1</clus>
</clustering>
</event>
<event>
 6    0  0.3584505E+002  0.7895428E+02  0.7546771E-02  0.1332045E+00
          2   -1    0    0  505    0 -0.00000000000E+00  0.00000000000E+00  0.10018968981E+04  0.10018968981E+04  0.00000000000E+00 0.  1.
         21   -1    0    0  504  502  0.00000000000E+00 -0.00000000000E+00 -0.29349232713E+03  0.29349232713E+03  0.00000000000E+00 0.  1.
         21    1    1    2  503  502 -0.36585286164E+02  0.32922749250E+02 -0.23719668848E+03  0.24224916843E+03  0.00000000000E+00 0.  1.
         21    1    1    2  504  501  0.11172182041E+03 -0.18630135594E+02  0.18099370694E+02  0.11470150099E+03  0.00000000000E+00 0. -1.
         21    1    1    2  505  503 -0.16382261021E+02  0.36846789275E+02  0.10867509927E+03  0.11591523436E+03  0.00000000000E+00 0. -1.
          2    1    1    2  501    0 -0.58754273230E+02 -0.51139402931E+02  0.81882678950E+03  0.82252332147E+03  0.00000000000E+00 0.  1.
<scales pt_clust_3="49.32238" pt_clust_4="14000.00000" pt_clust_5="40.32449" pt_clust_6="78.95428"></scales>
<clustering>
<clus scale="   40.324">  1  5  2 -1</clus>
<clus scale="   49.322">  2  3  1 -1</clus>
<clus scale="   78.954">  1  6  2 -1</clus>
<clus scale="   49.322">  2  3  1 -1</clus>
</clustering>
</event>
<event>
 6    0  0.3584505E+002  0.9135665E+02  0.7546771E-02  0.1299599E+00
         21   -1    0    0  505  502  0.00000000000E+00  0.00000000000E+00  0.13964000567E+04  0.13964000567E+04  0.00000000000E+00 0.  1.
         -3   -1    0    0    0  501 -0.00000000000E+00 -0.00000000000E+00 -0.30750729223E+02  0.30750729223E+02  0.00000000000E+00 0.  1.
         21    1    1    2  503  501 -0.57551815394E+02  0.37559842176E+01  0.22680269004E+03  0.23402089454E+03  0.00000000000E+00 0.  1.
         21    1    1    2  504  502  0.26222242624E+02 -0.62710165169E+02  0.94642490659E+03  0.94886262158E+03  0.00000000000E+00 0.  1.
         21    1    1    2  505  503 -0.44559535759E+02  0.31879548283E+02  0.13392211606E+03  0.14469620243E+03  0.00000000000E+00 0. -1.
         -3    1    1    2    0  504  0.75889108530E+02  0.27074632669E+02  0.58499614782E+02  0.99571067370E+02  0.00000000000E+00 0.  1.
<scales pt_clust_3="39.07961" pt_clust_4="67.97184" pt_clust_5="39.07961" pt_clust_6="82.08778"></scales>
<clustering>
<clus scale="   39.080">  3  5 -1 -1</clus>
<clus scale="   67.972">  1  4  2 -1</clus>
<clus scale="   82.088">  2  6  1 -1</clus>
<clus scale="   67.972">  1  3  2 -1</clus>
</clustering>
</event>
<event>
 6    0  0.3584505E+002  0.9886201E+02  0.7546771E-02  0.1282707E+00
         21   -1    0    0  504  502  0.00000000000E+00  0.00000000000E+00  0.59156058159E+03  0.59156058159E+03  0.00000000000E+00 0.  1.
          2   -1    0    0  502    0 -0.00000000000E+00 -0.00000000000E+00 -0.22668767184E+03  0.22668767184E+03  0.00000000000E+00 0. -1.
         21    1    1    2  503  505 -0.99412489014E+02  0.29345019056E+02  0.15868328765E+03  0.18953722298E+03  0.00000000000E+00 0.  1.
         21    1    1    2  504  503  0.19537641800E+02  0.52979366935E+02  0.37586838118E+03  0.38008627013E+03  0.00000000000E+00 0.  1.
         21    1    1    2  505  501  0.56171998499E+02 -0.57648277666E+02 -0.52359684511E+01  0.80659982016E+02  0.00000000000E+00 0. -1.
          2    1    1    2  501    0  0.23702848716E+02 -0.24676108325E+02 -0.16444279063E+03  0.16796477830E+03  0.00000000000E+00 0. -1.
<scales pt_clust_3="14000.00000" pt_clust_4="55.95608" pt_clust_5="98.86201" pt_clust_6="34.21601"></scales>
<clustering>
<clus scale="   34.216">  2  6  1 -1</clus>
<clus scale="   55.956">  1  4  2 -1</clus>
<clus scale="   98.862">  2  5  1 -1</clus>
<clus scale="   55.956">  1  3  2 -1</clus>
</clustering>
</event>
<event>
 6    0  0.3584505E+002  0.1468372E+03  0.7546771E-02  0.1204414E+00
          3   -1    0    0  504    0 -0.00000000000E+00  0.00000000000E+00  0.13523737157E+04  0.13523737157E+04  0.00000000000E+00 0.  1.
         21   -1    0    0  505  502  0.00000000000E+00 -0.00000000000E+00 -0.81377383209E+02  0.81377383209E+02  0.00000000000E+00 0.  1.
         21    1    1    2  503  501 -0.13440204374E+02 -0.46080237031E+02  0.75147884730E+01  0.48584970765E+02  0.00000000000E+00 0.  1.
         21    1    1    2  504  502  0.89647820923E+02  0.38537893867E+02  0.16214978798E+03  0.18924707343E+03  0.00000000000E+00 0. -1.
         21    1    1    2  505  503 -0.15498011096E+03 -0.73918531248E+02  0.12341072007E+03  0.21145446291E+03  0.00000000000E+00 0.  1.
          3    1    1    2  501    0  0.78772494410E+02  0.81460874412E+02  0.97792103596E+03  0.98446459180E+03  0.00000000000E+00 0.  1.
<scales pt_clust_3="46.43732" pt_clust_4="97.58023" pt_clust_5="46.43732" pt_clust_6="117.67435"></scales>
<clustering>
<clus scale="   46.437">  3  5 -1 -1</clus>
<clus scale="   97.580">  2  4  1 -1</clus>
<clus scale="  117.674">  1  6  2 -1</clus>
<clus scale="   97.580">  2  3  1 -1</clus>
</clustering>
</event>
<event>
 6    0  0.3926186E+002  0.1109966E+03  0.7546771E-02  0.1258735E+00
         21   -1    0    0  504  502  0.00000000000E+00  0.00000000000E+00  0.31555291588E+03  0.31555291588E+03  0.00000000000E+00 0. -1.
          2   -1    0    0  505    0 -0.00000000000E+00 -0.00000000000E+00 -0.20957554044E+04  0.20957554044E+04  0.00000000000E+00 0.  1.
         21    1    1    2  503  502 -0.10109491696E+03 -0.59703650190E+02  0.26317209856E+03  0.28817401261E+03  0.00000000000E+00 0. -1.
         21    1    1    2  504  501  0.23932131527E+02 -0.20040510524E+02  0.24099983076E+02  0.39435747308E+02  0.00000000000E+00 0. -1.
         21    1    1    2  505  503 -0.35258758462E+02  0.39912597682E+02 -0.10624032727E+03  0.11884108145E+03  0.00000000000E+00 0.  1.
          2    1    1    2  501    0  0.11242154390E+03  0.39831563032E+02 -0.19612342429E+04  0.19648574789E+04  0.00000000000E+00 0.  1.
<scales pt_clust_3="14000.00000" pt_clust_4="31.21488" pt_clust_5="52.57083" pt_clust_6="110.99658"></scales>
<clustering>
<clus scale="   31.215">  1  4  2 -1</clus>
<clus scale="   52.571">  2  5  1 -1</clus>
<clus scale="  110.997">  2  6  1 -1</clus>
<clus scale="   31.215">  1  3  2 -1</clus>
</clustering>
</event>
<event>
 6    0  0.3584505E+002  0.1462303E+03  0.7546771E-02  0.1205183E+00
          2   -1    0    0  503    0 -0.00000000000E+00  0.00000000000E+00  0.13917943665E+04  0.13917943665E+04  0.00000000000E+00 0.  1.
         21   -1    0    0  505  502  0.00000000000E+00 -0.00000000000E+00 -0.22839910620E+03  0.22839910620E+03  0.00000000000E+00 0. -1.
         21    1    1    2  503  504  0.37840931929E+02 -0.13987188056E+03  0.39142135702E+02  0.15009392356E+03  0.00000000000E+00 0. -1.
         21    1    1    2  504  502 -0.48734144234E+02 -0.43884891780E+02 -0.65032324248E+02  0.92358560717E+02  0.00000000000E+00 0. -1.
         21    1    1    2  505  501  0.48197933709E+02  0.16804231370E+03 -0.12509234206E+02  0.17526477384E+03  0.00000000000E+00 0. -1.
          2    1    1    2  501    0 -0.37304721405E+02  0.15714458641E+02  0.12017946830E+04  0.12024762146E+04  0.00000000000E+00 0.  1.
<scales pt_clust_3="14000.00000" pt_clust_4="66.87289" pt_clust_5="146.23026" pt_clust_6="40.47946"></scales>
<clustering>
<clus scale="   40.479">  1  6  2 -1</clus>
<clus scale="   66.873">  2  4  1 -1</clus>
<clus scale="  146.230">  2  5  1 -1</clus>
<clus scale="   66.873">  2  3  1 -1</clus>
</clustering>
</event>
<event>
 6    0  0.3584505E+002  0.9615796E+02  0.7546771E-02  0.1288589E+00
          1   -1    0    0  505    0 -0.00000000000E+00  0.00000000000E+00  0.81211981669E+03  0.81211981669E+03  0.00000000000E+00 0. -1.
         21   -1    0    0  503  502  0.00000000000E+00 -0.00000000000E+00 -0.39906099445E+03  0.39906099445E+03  0.00000000000E+00 0.  1.
         21    1    1    2  503  504  0.33517807984E+02 -0.21407404630E+02 -0.91917800315E+02  0.10015289531E+03  0.00000000000E+00 0. -1.
         21    1    1    2  504  501 -0.27937803013E+01  0.44113595954E+02 -0.11091275298E+02  0.45572260686E+02  0.00000000000E+00 0.  1.
         21    1    1    2  505  502 -0.26754237925E+02  0.73627580547E+02 -0.26608784473E+03  0.27737979554E+03  0.00000000000E+00 0.  1.
          1    1    1    2  501    0 -0.39697897570E+01 -0.96333771871E+02  0.78215574258E+03  0.78807585960E+03  0.00000000000E+00 0. -1.
<scales pt_clust_3="39.77085" pt_clust_4="42.11346" pt_clust_5="14000.00000" pt_clust_6="96.15796"></scales>
<clustering>
<clus scale="   39.771">  2  3  1 -1</clus>
<clus scale="   42.113">  2  4  1 -1</clus>
<clus scale="   96.158">  1  6  2 -1</clus>
<clus scale="   39.771">  2  3  1 -1</clus>
</clustering>
</event>
<event>
 6    0  0.3584505E+002  0.2378694E+03  0.7546771E-02  0.1121220E+00
         21   -1    0    0  505  502  0.00000000000E+00  0.00000000000E+00  0.16217069883E+04  0.16217069883E+04  0.00000000000E+00 0.  1.
          2   -1    0    0  504    0 -0.00000000000E+00 -0.00000000000E+00 -0.26698633266E+04  0.26698633266E+04  0.00000000000E+00 0.  1.
         21    1    1    2  503  502 -0.12024755634E+02  0.31675443404E+02  0.15149554892E+04  0.15153343072E+04  0.00000000000E+00 0.  1.
         21    1    1    2  504  503 -0.10079788746E+02  0.23866543673E+03 -0.22863110035E+03  0.33065839302E+03  0.00000000000E+00 0.  1.
         21    1    1    2  505  501  0.48758676954E+02 -0.23903692401E+03 -0.21347145892E+03  0.32416989896E+03  0.00000000000E+00 0.  1.
          2    1    1    2  501    0 -0.26654132574E+02 -0.31303956128E+02 -0.21210092682E+04  0.21214077157E+04  0.00000000000E+00 0.  1.
<scales pt_clust_3="33.88109" pt_clust_4="14000.00000" pt_clust_5="237.86938" pt_clust_6="41.08376"></scales>
<clustering>
<clus scale="   33.881">  1  3  2 -1</clus>
<clus scale="   41.084">  2  6  1 -1</clus>
<clus scale="  237.869">  1  5  2 -1</clus>
<clus scale="   33.881">  1  3  2 -1</clus>
</clustering>
</event>
<event>
 6    0  0.3584505E+002  0.2362970E+03  0.7546771E-02  0.1122284E+00
          2   -1    0    0  504    0 -0.00000000000E+00  0.00000000000E+00  0.24664019091E+04  0.24664019091E+04  0.00000000000E+00 0.  1.
         21   -1    0    0  501  502  0.00000000000E+00 -0.00000000000E+00 -0.64110614431E+02  0.64110614431E+02  0.00000000000E+00 0.  1.
         21    1    1    2  503  505 -0.92445649212E+02  0.10712004249E+01  0.14513611816E+03  0.17208090633E+03  0.00000000000E+00 0.  1.
         21    1    1    2  504  503 -0.45744159831E+02  0.20638651599E+03  0.48394529701E+03  0.52810129014E+03  0.00000000000E+00 0.  1.
         21    1    1    2  505  502 -0.27324371564E+02 -0.14546875277E+02 -0.72704387362E+01  0.31797675090E+02  0.00000000000E+00 0.  1.
          2    1    1    2  501    0  0.16551418061E+03 -0.19291084114E+03  0.17804803182E+04  0.17985326519E+04  0.00000000000E+00 0.  1.
<scales pt_clust_3="100.75879" pt_clust_4="236.29703" pt_clust_5="30.95534" pt_clust_6="14000.00000"></scales>
<clustering>
<clus scale="   30.955">  2  5  1 -1</clus>
<clus scale="  100.759">  2  3  1 -1</clus>
<clus scale="  236.297">  2  4  1 -1</clus>
<clus scale="   30.955">  2  3  1 -1</clus>
</clustering>
</event>
<event>
 6    0  0.3584505E+002  0.1416776E+03  0.7546771E-02  0.1211089E+00
         -2   -1    0    0    0  501 -0.00000000000E+00  0.00000000000E+00  0.69791517475E+03  0.69791517475E+03  0.00000000000E+00 0. -1.
         21   -1    0    0  505  502  0.00000000000E+00 -0.00000000000E+00 -0.64307361510E+03  0.64307361510E+03  0.00000000000E+00 0.  1.
         21    1    1    2  503  504  0.58689596848E+02  0.74059258337E+02 -0.21181649497E+03  0.23193850492E+03  0.00000000000E+00 0.  1.
         21    1    1    2  504  501 -0.36683927489E+02 -0.37806614005E+02  0.31025786881E+02  0.61136323492E+02  0.00000000000E+00 0. -1.
         21    1    1    2  505  503  0.58474995888E+02  0.16671952688E+02 -0.40021723468E+03  0.40480997281E+03  0.00000000000E+00 0.  1.
         -2    1    1    2    0  502 -0.80480665247E+02 -0.52924597019E+02  0.63584950242E+03  0.64310398862E+03  0.00000000000E+00 0. -1.
<scales pt_clust_3="141.67756" pt_clust_4="52.67875" pt_clust_5="60.64453" pt_clust_6="14000.00000"></scales>
<clustering>
<clus scale="   52.679">  1  4  2 -1</clus>
<clus scale="   60.645">  2  5  1 -1</clus>
<clus scale="  141.678">  2  3  1 -1</clus>
<clus scale="   60.645">  2  3  1 -1</clus>
</clustering>
</event>
<event>
 6    0  0.3584505E+002  0.1705318E+03  0.7546771E-02  0.1177294E+00
          1   -1    0    0  502    0 -0.00000000000E+00  0.00000000000E+00  0.27446977950E+04  0.27446977950E+04  0.00000000000E+00 0.  1.
         21   -1    0    0  505  502  0.00000000000E+00 -0.00000000000E+00 -0.14487891272E+03  0.14487891272E+03  0.00000000000E+00 0.  1.
         21    1    1    2  503  501 -0.43472159374E+02 -0.27449397625E+02  0.37000721127E+03  0.37356208916E+03  0.00000000000E+00 0.  1.
         21    1    1    2  504  503 -0.98940706075E+02  0.16988849146E+03  0.10893725837E+03  0.22476362942E+03  0.00000000000E+00 0.  1.
         21    1    1    2  505  504  0.10579302734E+03 -0.11986466186E+03 -0.97700652247E+01  0.16017226967E+03  0.00000000000E+00 0.  1.
          1    1    1    2  501    0  0.36619838110E+02 -0.22574431971E+02  0.21306444779E+04  0.21310787195E+04  0.00000000000E+00 0.  1.
<scales pt_clust_3="46.30767" pt_clust_4="14000.00000" pt_clust_5="170.53177" pt_clust_6="43.01880"></scales>
<clustering>
<clus scale="   43.019">  1  6  2 -1</clus>
<clus scale="   46.308">  1  3  2 -1</clus>
<clus scale="  170.532">  2  5  1 -1</clus>
<clus scale="  170.532">  2  3  1 -1</clus>
</clustering>
</event>
<event>
 6    0  0.3584505E+002  0.7939319E+02  0.7546771E-02  0.1330782E+00
          2   -1    0    0  503    0 -0.00000000000E+00  0.00000000000E+00  0.83475883817E+03  0.83475883817E+03  0.00000000000E+00 0.  1.
         21   -1    0    0  504  502  0.00000000000E+00 -0.00000000000E+00 -0.41047407568E+03  0.41047407568E+03  0.00000000000E+00 0. -1.
         21    1    1    2  503  505 -0.83458989589E+02 -0.61639482679E+02  0.26726892942E+03  0.28670108023E+03  0.00000000000E+00 0. -1.
         21    1    1    2  504  501 -0.39621273026E+02 -0.82702460912E+00 -0.29309820833E+03  0.29576525991E+03  0.00000000000E+00 0. -1.
         21    1    1    2  505  502  0.75726828269E+02  0.68058429277E+02 -0.80635699511E+02  0.12987924527E+03  0.00000000000E+00 0. -1.
          2    1    1    2  501    0  0.47353434346E+02 -0.55919219896E+01  0.53074974091E+03  0.53288732844E+03  0.00000000000E+00 0.  1.
<scales pt_clust_3="79.39319" pt_clust_4="39.62990" pt_clust_5="14000.00000" pt_clust_6="47.32097"></scales>
<clustering>
<clus scale="   39.630">  2  4  1 -1</clus>
<clus scale="   47.321">  1  6  2 -1</clus>
<clus scale="   79.393">  1  3  2 -1</clus>
<clus scale="   39.630">  2  3  1 -1</clus>
</clustering>
</event>
<event>
 6    0  0.3584505E+002  0.8374342E+02  0.7546771E-02  0.1318752E+00
         21   -1    0    0  501  502  0.00000000000E+00  0.00000000000E+00  0.63688415283E+02  0.63688415283E+02  0.00000000000E+00 0. -1.
         -3   -1    0    0    0  501 -0.00000000000E+00 -0.00000000000E+00 -0.60950256448E+03  0.60950256448E+03  0.00000000000E+00 0.  1.
         21    1    1    2  503  502  0.95162757962E+02 -0.13294735107E+02 -0.20141191257E+02  0.98175190704E+02  0.00000000000E+00 0. -1.
         21    1    1    2  504  505 -0.69288429607E-01  0.72625233226E+02 -0.18590683274E+03  0.19958902715E+03  0.00000000000E+00 0.  1.
         21    1    1    2  505  503 -0.62693663841E+02 -0.51897139216E+02 -0.82023624046E+02  0.11554948484E+03  0.00000000000E+00 0.  1.
         -3    1    1    2    0  504 -0.32399805692E+02 -0.74333589031E+01 -0.25774250116E+03  0.25987727707E+03  0.00000000000E+00 0.  1.
<scales pt_clust_3="83.74342" pt_clust_4="70.83272" pt_clust_5="14000.00000" pt_clust_6="33.24157"></scales>
<clustering>
<clus scale="   33.242">  2  6  1 -1</clus>
<clus scale="   70.833">  2  4  1 -1</clus>
<clus scale="   83.743">  1  3  2 -1</clus>
<clus scale="   83.743">  1  3  2 -1</clus>
</clustering>
</event>
<event>
 6    0  0.3584505E+002  0.1304436E+03  0.7546771E-02  0.1226799E+00
          2   -1    0    0  505    0 -0.00000000000E+00  0.00000000000E+00  0.90535928833E+03  0.90535928833E+03  0.00000000000E+00 0.  1.
         21   -1    0    0  503  502  0.00000000000E+00 -0.00000000000E+00 -0.34957985980E+03  0.34957985980E+03  0.00000000000E+00 0.  1.
         21    1    1    2  503  501 -0.33627639407E+02  0.99750672958E+02  0.42666961490E+03  0.43946328079E+03  0.00000000000E+00 0.  1.
         21    1    1    2  504  502 -0.15341176560E+02  0.35908050793E+02 -0.17641150674E+03  0.18068137569E+03  0.00000000000E+00 0.  1.
         21    1    1    2  505  504  0.34870681334E+02 -0.16507215219E+03 -0.12062545359E+03  0.20740125337E+03  0.00000000000E+00 0.  1.
          2    1    1    2  501    0  0.14098134634E+02  0.29413428437E+02  0.42614677396E+03  0.42739323828E+03  0.00000000000E+00 0.  1.
<scales pt_clust_3="130.44360" pt_clust_4="39.14402" pt_clust_5="14000.00000" pt_clust_6="32.61759"></scales>
<clustering>
<clus scale="   32.618">  1  6  2 -1</clus>
<clus scale="   39.144">  2  4  1 -1</clus>
<clus scale="  130.444">  1  3  2 -1</clus>
<clus scale="   39.144">  2  3  1 -1</clus>
</clustering>
</event>
<event>
 6    0  0.3584505E+002  0.8767049E+02  0.7546771E-02  0.1308593E+00
         21   -1    0    0  505  502  0.00000000000E+00  0.00000000000E+00  0.21575165357E+03  0.21575165357E+03  0.00000000000E+00 0. -1.
          2   -1    0    0  504    0 -0.00000000000E+00 -0.00000000000E+00 -0.62087500967E+03  0.62087500967E+03  0.00000000000E+00 0. -1.
         21    1    1    2  503  501 -0.82186653312E+02  0.81796666659E+02 -0.22950668325E+03  0.25713548630E+03  0.00000000000E+00 0. -1.
         21    1    1    2  504  502  0.97531964452E+01 -0.70352210331E+02 -0.32936747905E+02  0.78290406194E+02  0.00000000000E+00 0. -1.
         21    1    1    2  505  503  0.42452809514E+02 -0.51903345343E+01  0.17596472044E+03  0.18108772307E+03  0.00000000000E+00 0. -1.
          2    1    1    2  501    0  0.29980647353E+02 -0.62541217935E+01 -0.31864464539E+03  0.32011304767E+03  0.00000000000E+00 0. -1.
<scales pt_clust_3="87.67049" pt_clust_4="14000.00000" pt_clust_5="43.02821" pt_clust_6="30.62602"></scales>
<clustering>
<clus scale="   30.626">  2  6  1 -1</clus>
<clus scale="   43.028">  1  5  2 -1</clus>
<clus scale="   87.670">  2  3  1 -1</clus>
<clus scale="   43.028">  1  3  2 -1</clus>
</clustering>
</event>
<event>
 6    0  0.3584505E+002  0.4540572E+03  0.7546771E-02  0.1026519E+00
          1   -1    0    0  504    0 -0.00000000000E+00  0.00000000000E+00  0.51500095584E+04  0.51500095584E+04  0.00000000000E+00 0.  1.
         21   -1    0    0  505  502  0.00000000000E+00 -0.00000000000E+00 -0.12966907515E+03  0.12966907515E+03  0.00000000000E+00 0. -1.
         21    1    1    2  503  501 -0.24470502501E+03  0.16976410840E+03  0.33613688887E+04  0.33745371842E+04  0.00000000000E+00 0.  1.
         21    1    1    2  504  502  0.40728148264E+03 -0.20449327286E+03  0.49263072249E+03  0.67110411523E+03  0.00000000000E+00 0. -1.
         21    1    1    2  505  503 -0.23978254812E+02 -0.20166104011E+02 -0.20778285093E+02  0.37594754770E+02  0.00000000000E+00 0. -1.
          1    1    1    2  501    0 -0.13859820282E+03  0.54895268466E+02  0.11871191572E+04  0.11964425793E+04  0.00000000000E+00 0.  1.
<scales pt_clust_3="62.24747" pt_clust_4="445.47578" pt_clust_5="31.33095" pt_clust_6="62.24747"></scales>
<clustering>
<clus scale="   31.331">  2  5  1 -1</clus>
<clus scale="   62.247">  3  6 -1 -1</clus>
<clus scale="  445.476">  2  4  1 -1</clus>
<clus scale="   31.331">  2  3  1 -1</clus>
</clustering>
</event>
<event>
 6    0  0.3584505E+002  0.8152558E+02  0.7546771E-02  0.1324777E+00
          2   -1    0    0  503    0 -0.00000000000E+00  0.00000000000E+00  0.52132079243E+03  0.52132079243E+03  0.00000000000E+00 0. -1.
         21   -1    0    0  504  502  0.00000000000E+00 -0.00000000000E+00 -0.25284678536E+03  0.25284678536E+03  0.00000000000E+00 0. -1.
         21    1    1    2  503  502  0.24329258453E+01  0.10023612590E+03 -0.15905870787E+02  0.10151944044E+03  0.00000000000E+00 0. -1.
         21    1    1    2  504  505 -0.30706051881E+02  0.17188703946E+02 -0.92095679940E+02  0.98589692306E+02  0.00000000000E+00 0. -1.
         21    1    1    2  505  501  0.15729402866E+02 -0.83468479524E+02 -0.79684292344E+02  0.11646453381E+03  0.00000000000E+00 0. -1.
          2    1    1    2  501    0  0.12543723170E+02 -0.33956350317E+02  0.45615985014E+03  0.45759391123E+03  0.00000000000E+00 0. -1.
<scales pt_clust_3="14000.00000" pt_clust_4="35.18967" pt_clust_5="81.52558" pt_clust_6="36.07746"></scales>
<clustering>
<clus scale="   35.190">  2  4  1 -1</clus>
<clus scale="   36.077">  1  6  2 -1</clus>
<clus scale="   81.526">  2  5  1 -1</clus>
<clus scale="   35.190">  2  3  1 -1</clus>
</clustering>
</event>
<event>
 6    0  0.3584505E+002  0.1559940E+03  0.7546771E-02  0.1193295E+00
         21   -1    0    0  505  502  0.00000000000E+00  0.00000000000E+00  0.13126665508E+03  0.13126665508E+03  0.00000000000E+00 0. -1.
          1   -1    0    0  503    0 -0.00000000000E+00 -0.00000000000E+00 -0.74355892877E+03  0.74355892877E+03  0.00000000000E+00 0. -1.
         21    1    1    2  503  502  0.19699246472E+03  0.30246335510E+02 -0.18318541532E+03  0.27069866707E+03  0.00000000000E+00 0. -1.
         21    1    1    2  504  501 -0.12221608975E+03  0.73809221309E+02 -0.72641777841E+02  0.16019176519E+03  0.00000000000E+00 0. -1.
         21    1    1    2  505  504 -0.20457652539E+02 -0.31395015569E+02  0.29349726188E+02  0.47597993417E+02  0.00000000000E+00 0. -1.
          1    1    1    2  501    0 -0.54318722429E+02 -0.72660541251E+02 -0.38581480672E+03  0.39633715817E+03  0.00000000000E+00 0. -1.
<scales pt_clust_3="155.99405" pt_clust_4="14000.00000" pt_clust_5="37.47216" pt_clust_6="92.84007"></scales>
<clustering>
<clus scale="   37.472">  1  5  2 -1</clus>
<clus scale="   92.840">  2  6  1 -1</clus>
<clus scale="  155.994">  2  3  1 -1</clus>
<clus scale="   37.472">  1  3  2 -1</clus>
</clustering>
</event>
<event>
 6    0  0.3584505E+002  0.7568705E+02  0.7546771E-02  0.1341757E+00
         21   -1    0    0  505  502  0.00000000000E+00  0.00000000000E+00  0.23708042815E+03  0.23708042815E+03  0.00000000000E+00 0.  1.
          2   -1    0    0  504    0 -0.00000000000E+00 -0.00000000000E+00 -0.34187959910E+03  0.34187959910E+03  0.00000000000E+00 0. -1.
         21    1    1    2  503  501 -0.67718666545E+02  0.31757796974E+02  0.99654921289E+01  0.75456520597E+02  0.00000000000E+00 0.  1.
         21    1    1    2  504  502 -0.47007157513E+02 -0.17928596935E+02  0.14674831310E+03  0.15513276522E+03  0.00000000000E+00 0.  1.
         21    1    1    2  505  503  0.41734971439E+02 -0.42830788043E+02  0.14387745231E+02  0.61508466558E+02  0.00000000000E+00 0.  1.
          2    1    1    2  501    0  0.72990852619E+02  0.29001588004E+02 -0.27590072141E+03  0.28686227487E+03  0.00000000000E+00 0. -1.
<scales pt_clust_3="75.68705" pt_clust_4="50.31011" pt_clust_5="54.91400" pt_clust_6="14000.00000"></scales>
<clustering>
<clus scale="   50.310">  1  4  2 -1</clus>
<clus scale="   54.914">  1  5  2 -1</clus>
<clus scale="   75.687">  1  3  2 -1</clus>
<clus scale="   50.310">  1  3  2 -1</clus>
</clustering>
</event>
<event>
 6    0  0.3584505E+002  0.1385226E+03  0.7546771E-02  0.1215331E+00
         21   -1    0    0  505  502  0.00000000000E+00  0.00000000000E+00  0.53301396265E+03  0.53301396265E+03  0.00000000000E+00 0.  1.
          2   -1    0    0  503    0 -0.00000000000E+00 -0.00000000000E+00 -0.75128867544E+03  0.75128867544E+03  0.00000000000E+00 0.  1.
         21    1    1    2  503  504  0.47506343266E+02 -0.14978556812E+03 -0.42631104426E+02  0.16281885681E+03  0.00000000000E+00 0. -1.
         21    1    1    2  504  502 -0.62614420366E+02  0.12172303539E+03  0.45242616346E+03  0.47268012055E+03  0.00000000000E+00 0.  1.
         21    1    1    2  505  501 -0.12885461960E+02  0.46423864062E+02 -0.48829943244E+02  0.68597183919E+02  0.00000000000E+00 0.  1.
          2    1    1    2  501    0  0.27993539061E+02 -0.18361331329E+02 -0.57923982858E+03  0.58020647681E+03  0.00000000000E+00 0.  1.
<scales pt_clust_3="14000.00000" pt_clust_4="138.52263" pt_clust_5="40.27607" pt_clust_6="33.47800"></scales>
<clustering>
<clus scale="   33.478">  2  6  1 -1</clus>
<clus scale="   40.276">  2  5  1 -1</clus>
<clus scale="  138.523">  1  4  2 -1</clus>
<clus scale="  138.523">  1  3  2 -1</clus>
</clustering>
</event>
<event>
 6    0  0.3584505E+002  0.1587154E+03  0.7546771E-02  0.1190155E+00
          1   -1    0    0  502    0 -0.00000000000E+00  0.00000000000E+00  0.89203670800E+02  0.89203670800E+02  0.00000000000E+00 0. -1.
         21   -1    0    0  503  502  0.00000000000E+00 -0.00000000000E+00 -0.42135404909E+03  0.42135404909E+03  0.00000000000E+00 0. -1.
         21    1    1    2  503  505 -0.33611852068E+02  0.48111310605E+02 -0.15865195754E+03  0.16915938767E+03  0.00000000000E+00 0. -1.
         21    1    1    2  504  501  0.81113329952E+02 -0.45714484052E+02 -0.43715277212E+02  0.10286015657E+03  0.00000000000E+00 0. -1.
         21    1    1    2  505  504 -0.92415604696E+02  0.22226732878E+02 -0.15470822394E+03  0.18157451969E+03  0.00000000000E+00 0. -1.
          1    1    1    2  501    0  0.44914126812E+02 -0.24623559431E+02  0.24925080404E+02  0.56963655952E+02  0.00000000000E+00 0. -1.
<scales pt_clust_3="49.63076" pt_clust_4="48.97607" pt_clust_5="157.54260" pt_clust_6="48.97607"></scales>
<clustering>
<clus scale="   48.976">  4  6 -1 -1</clus>
<clus scale="   49.631">  3  5 -1 -1</clus>
<clus scale="  157.543">  2  3  1 -1</clus>
<clus scale="  157.543">  2  3  1 -1</clus>
</clustering>
</event>
<event>
 6    0  0.3584505E+002  0.4180908E+03  0.7546771E-02  0.1037689E+00
         21   -1    0    0  505  502  0.00000000000E+00  0.00000000000E+00  0.87955371483E+03  0.87955371483E+03  0.00000000000E+00 0.  1.
          1   -1    0    0  503    0 -0.00000000000E+00 -0.00000000000E+00 -0.28259992173E+04  0.28259992173E+04  0.00000000000E+00 0. -1.
         21    1    1    2  503  504  0.24670647500E+03 -0.41262198002E+03  0.52366725857E+03  0.71087859786E+03  0.00000000000E+00 0.  1.
         21    1    1    2  504  502 -0.28099794188E+02  0.33336313618E+02  0.17498284458E+03  0.18033275947E+03  0.00000000000E+00 0.  1.
         21    1    1    2  505  501 -0.36806769991E+02  0.45346655434E+01  0.63700462131E+02  0.73709228625E+02  0.00000000000E+00 0. -1.
          1    1    1    2  501    0 -0.18179991082E+03  0.37475100085E+03 -0.27087960678E+04  0.27406323462E+04  0.00000000000E+00 0. -1.
<scales pt_clust_3="418.09084" pt_clust_4="49.86370" pt_clust_5="37.08506" pt_clust_6="14000.00000"></scales>
<clustering>
<clus scale="   37.085">  1  5  2 -1</clus>
<clus scale="   49.864">  1  4  2 -1</clus>
<clus scale="  418.091">  1  3  2 -1</clus>
<clus scale="   37.085">  1  3  2 -1</clus>
</clustering>
</event>
<event>
 6    0  0.3584505E+002  0.1512965E+03  0.7546771E-02  0.1198889E+00
          2   -1    0    0  504    0 -0.00000000000E+00  0.00000000000E+00  0.19890121341E+04  0.19890121341E+04  0.00000000000E+00 0. -1.
         21   -1    0    0  505  502  0.00000000000E+00 -0.00000000000E+00 -0.20473465377E+03  0.20473465377E+03  0.00000000000E+00 0.  1.
         21    1    1    2  503  501  0.19443212103E+03 -0.79457942840E+02  0.18121254983E+03  0.27740836791E+03  0.00000000000E+00 0.  1.
         21    1    1    2  504  502 -0.89346378959E+02  0.36703505495E+02 -0.10976973373E+03  0.14621667891E+03  0.00000000000E+00 0.  1.
         21    1    1    2  505  503  0.32325598168E+02 -0.10750194139E+02 -0.14124518059E+02  0.36878353832E+02  0.00000000000E+00 0.  1.
          2    1    1    2  501    0 -0.13741134024E+03  0.53504631484E+02  0.17269591823E+04  0.17332433872E+04  0.00000000000E+00 0. -1.
<scales pt_clust_3="14000.00000" pt_clust_4="72.34100" pt_clust_5="34.06627" pt_clust_6="151.29649"></scales>
<clustering>
<clus scale="   34.066">  2  5  1 -1</clus>
<clus scale="   72.341">  2  4  1 -1</clus>
<clus scale="  151.296">  1  6  2 -1</clus>
<clus scale="   34.066">  2  3  1 -1</clus>
</clustering>
</event>
<event>
 6    0  0.3584505E+002  0.1075310E+03  0.7546771E-02  0.1265212E+00
         21   -1    0    0  503  502  0.00000000000E+00  0.00000000000E+00  0.72846354954E+03  0.72846354954E+03  0.00000000000E+00 0.  1.
          1   -1    0    0  505    0 -0.00000000000E+00 -0.00000000000E+00 -0.30486052865E+04  0.30486052865E+04  0.00000000000E+00 0. -1.
         21    1    1    2  503  504  0.43538725709E+02  0.31710125927E+02  0.66495056968E+03  0.66712848301E+03  0.00000000000E+00 0.  1.
         21    1    1    2  504  501  0.79876706566E+02  0.17420171426E+02 -0.30015354145E+03  0.31108824965E+03  0.00000000000E+00 0. -1.
         21    1    1    2  505  502 -0.15082004777E+03 -0.91532864666E+01 -0.43868236506E+02  0.15733687310E+03  0.00000000000E+00 0.  1.
          1    1    1    2  501    0  0.27404615497E+02 -0.39977010887E+02 -0.26410705287E+04  0.26415152303E+04  0.00000000000E+00 0. -1.
<scales pt_clust_3="53.85881" pt_clust_4="107.53101" pt_clust_5="14000.00000" pt_clust_6="48.46828"></scales>
<clustering>
<clus scale="   48.468">  2  6  1 -1</clus>
<clus scale="   53.859">  1  3  2 -1</clus>
<clus scale="  107.531">  2  4  1 -1</clus>
<clus scale="   53.859">  1  3  2 -1</clus>
</clustering>
</event>
<event>
 6    0  0.3584505E+002  0.9526128E+02  0.7546771E-02  0.1290589E+00
         21   -1    0    0  503  502  0.00000000000E+00  0.00000000000E+00  0.27105424758E+02  0.27105424758E+02  0.00000000000E+00 0.  1.
          2   -1    0    0  504    0 -0.00000000000E+00 -0.00000000000E+00 -0.16179713534E+04  0.16179713534E+04  0.00000000000E+00 0. -1.
         21    1    1    2  503  501 -0.24498907736E+02 -0.96681235893E+02 -0.32596612195E+03  0.34088322123E+03  0.00000000000E+00 0.  1.
         21    1    1    2  504  505  0.75152391565E+02  0.37874717056E+02 -0.37798814008E+03  0.38724334751E+03  0.00000000000E+00 0.  1.
         21    1    1    2  505  502 -0.72590994993E+02  0.83414399247E+02 -0.19435735103E+03  0.22361170465E+03  0.00000000000E+00 0.  1.
          2    1    1    2  501    0  0.21937511164E+02 -0.24607880410E+02 -0.69255431559E+03  0.69333850479E+03  0.00000000000E+00 0. -1.
<scales pt_clust_3="95.26128" pt_clust_4="88.66317" pt_clust_5="14000.00000" pt_clust_6="32.96668"></scales>
<clustering>
<clus scale="   32.967">  2  6  1 -1</clus>
<clus scale="   88.663">  2  4  1 -1</clus>
<clus scale="   95.261">  2  3  1 -1</clus>
<clus scale="   95.261">  1  3  2 -1</clus>
</clustering>
</event>
<event>
 6    0  0.3584505E+002  0.9980574E+02  0.7546771E-02  0.1280705E+00
         21   -1    0    0  505  502  0.00000000000E+00  0.00000000000E+00  0.12346178023E+03  0.12346178023E+03  0.00000000000E+00 0. -1.
          1   -1    0    0  504    0 -0.00000000000E+00 -0.00000000000E+00 -0.67627140542E+03  0.67627140542E+03  0.00000000000E+00 0.  1.
         21    1    1    2  503  501  0.23525455569E+02  0.12742781597E+03 -0.23320393919E+03  0.26678712974E+03  0.00000000000E+00 0. -1.
         21    1    1    2  504  502  0.41589956092E+02  0.22153493464E+01 -0.43261710528E+02  0.60051709537E+02  0.00000000000E+00 0.  1.
         21    1    1    2  505  503 -0.72301407684E+01 -0.96659900396E+02  0.70406327515E+02  0.11980176223E+03  0.00000000000E+00 0. -1.
          1    1    1    2  501    0 -0.57885270893E+02 -0.32983264918E+02 -0.34675030298E+03  0.35309258413E+03  0.00000000000E+00 0.  1.
<scales pt_clust_3="14000.00000" pt_clust_4="41.64892" pt_clust_5="99.80574" pt_clust_6="46.94402"></scales>
<clustering>
<clus scale="   41.649">  2  4  1 -1</clus>
<clus scale="   46.944">  2  6  1 -1</clus>
<clus scale="   99.806">  1  5  2 -1</clus>
<clus scale="   99.806">  1  3  2 -1</clus>
</clustering>
</event>
<event>
 6    0  0.3584505E+002  0.1447494E+03  0.7546771E-02  0.1207077E+00
          2   -1    0    0  503    0 -0.00000000000E+00  0.00000000000E+00  0.13261048464E+04  0.13261048464E+04  0.00000000000E+00 0.  1.
         21   -1    0    0  505  502  0.00000000000E+00 -0.00000000000E+00 -0.32050660322E+03  0.32050660322E+03  0.00000000000E+00 0. -1.
         21    1    1    2  503  504  0.19796757054E+02 -0.59584041741E+02  0.25779707466E+03  0.26533281238E+03  0.00000000000E+00 0. -1.
         21    1    1    2  504  502 -0.38332348514E+01  0.91877463708E+02 -0.24472460584E+03  0.26143124284E+03  0.00000000000E+00 0. -1.
         21    1    1    2  505  501 -0.57916150014E+02  0.43512058662E+02 -0.40635868990E+02  0.83059337404E+02  0.00000000000E+00 0. -1.
          2    1    1    2  501    0  0.41952627811E+02 -0.75805480629E+02  0.10331616433E+04  0.10367880570E+04  0.00000000000E+00 0.  1.
<scales pt_clust_3="62.78670" pt_clust_4="144.74944" pt_clust_5="71.41522" pt_clust_6="14000.00000"></scales>
<clustering>
<clus scale="   62.787">  1  3  2 -1</clus>
<clus scale="   71.415">  2  5  1 -1</clus>
<clus scale="  144.749">  2  4  1 -1</clus>
<clus scale="   71.415">  2  3  1 -1</clus>
</clustering>
</event>
<event>
 6    0  0.3584505E+002  0.7618292E+02  0.7546771E-02  0.1340247E+00
         21   -1    0    0  501  502  0.00000000000E+00  0.00000000000E+00  0.11692418165E+04  0.11692418165E+04  0.00000000000E+00 0. -1.
          3   -1    0    0  505    0 -0.00000000000E+00 -0.00000000000E+00 -0.79281586247E+02  0.79281586247E+02  0.00000000000E+00 0.  1.
         21    1    1    2  503  504 -0.53970866686E+02  0.57065139410E+02  0.49003103481E+03  0.49628590516E+03  0.00000000000E+00 0. -1.
         21    1    1    2  504  502  0.27238306045E+02 -0.17992483274E+02  0.46071238899E+03  0.46186747032E+03  0.00000000000E+00 0. -1.
         21    1    1    2  505  503  0.51047849208E+01 -0.10884846243E+03  0.17720813915E+03  0.20803069769E+03  0.00000000000E+00 0. -1.
          3    1    1    2  501    0  0.21627775720E+02  0.69775806296E+02 -0.37991332724E+02  0.82339329540E+02  0.00000000000E+00 0.  1.
<scales pt_clust_3="56.63772" pt_clust_4="32.64437" pt_clust_5="76.18292" pt_clust_6="14000.00000"></scales>
<clustering>
<clus scale="   32.644">  1  4  2 -1</clus>
<clus scale="   56.638">  1  3  2 -1</clus>
<clus scale="   76.183">  1  5  2 -1</clus>
<clus scale="   32.644">  1  3  2 -1</clus>
</clustering>
</event>
<event>
 6    0  0.3584505E+002  0.1130054E+03  0.7546771E-02  0.1255104E+00
         21   -1    0    0  505  502  0.00000000000E+00  0.00000000000E+00  0.32602155603E+03  0.32602155603E+03  0.00000000000E+00 0.  1.
          2   -1    0    0  504    0 -0.00000000000E+00 -0.00000000000E+00 -0.33643462907E+03  0.33643462907E+03  0.00000000000E+00 0.  1.
         21    1    1    2  503  502  0.10263169771E+02 -0.30482629072E+02  0.12638824255E+01  0.32188829237E+02  0.00000000000E+00 0.  1.
         21    1    1    2  504  503 -0.14154227317E+03 -0.15734229011E+02 -0.15920295766E+03  0.21360562442E+03  0.00000000000E+00 0.  1.
         21    1    1    2  505  501  0.62757391425E+02  0.11431535373E+03  0.24617820681E+03  0.27858607249E+03  0.00000000000E+00 0.  1.
          2    1    1    2  501    0  0.68521711979E+02 -0.68098495651E+02 -0.98652204609E+02  0.13807565896E+03  0.00000000000E+00 0.  1.
<scales pt_clust_3="32.16401" pt_clust_4="14000.00000" pt_clust_5="113.00536" pt_clust_6="98.44317"></scales>
<clustering>
<clus scale="   32.164">  1  3  2 -1</clus>
<clus scale="   98.443">  2  6  1 -1</clus>
<clus scale="  113.005">  1  5  2 -1</clus>
<clus scale="   32.164">  1  3  2 -1</clus>
</clustering>
</event>
<event>
 6    0  0.3584505E+002  0.6653834E+02  0.7546771E-02  0.1372277E+00
          2   -1    0    0  505    0 -0.00000000000E+00  0.00000000000E+00  0.14047963424E+04  0.14047963424E+04  0.00000000000E+00 0.  1.
         21   -1    0    0  504  502  0.00000000000E+00 -0.00000000000E+00 -0.59683239987E+02  0.59683239987E+02  0.00000000000E+00 0. -1.
         21    1    1    2  503  501  0.71242234304E+02  0.87348639056E+00  0.12934371647E+02  0.72412132250E+02  0.00000000000E+00 0. -1.
         21    1    1    2  504  503 -0.16436572111E+02  0.36414822871E+02 -0.71362975400E+01  0.40584812061E+02  0.00000000000E+00 0. -1.
         21    1    1    2  505  502  0.35629726884E+02 -0.53638732010E+02  0.91824873582E+03  0.92050384673E+03  0.00000000000E+00 0. -1.
          2    1    1    2  501    0 -0.90435389077E+02  0.16350422748E+02  0.42106629248E+03  0.43097879134E+03  0.00000000000E+00 0.  1.
<scales pt_clust_3="14000.00000" pt_clust_4="39.95247" pt_clust_5="63.15335" pt_clust_6="66.53834"></scales>
<clustering>
<clus scale="   39.952">  2  4  1 -1</clus>
<clus scale="   63.153">  1  5  2 -1</clus>
<clus scale="   66.538">  1  6  2 -1</clus>
<clus scale="   39.952">  2  3  1 -1</clus>
</clustering>
</event>
<event>
 6    0  0.3584505E+002  0.1214732E+03  0.7546771E-02  0.1240686E+00
         -1   -1    0    0    0  501 -0.00000000000E+00  0.00000000000E+00  0.43110974813E+03  0.43110974813E+03  0.00000000000E+00 0.  1.
         21   -1    0    0  505  502  0.00000000000E+00 -0.00000000000E+00 -0.26450080561E+04  0.26450080561E+04  0.00000000000E+00 0. -1.
         21    1    1    2  503  502 -0.42664431676E+01 -0.62226768245E+02 -0.58322455857E+02  0.85392517709E+02  0.00000000000E+00 0.  1.
         21    1    1    2  504  501  0.20604779254E+02  0.18035932340E+03  0.33458391657E+02  0.18459010384E+03  0.00000000000E+00 0.  1.
         21    1    1    2  505  504 -0.57978898543E+02 -0.10602679258E+03 -0.24945911788E+04  0.24975164430E+04  0.00000000000E+00 0. -1.
         -1    1    1    2    0  503  0.41640562457E+02 -0.12105762571E+02  0.30555693507E+03  0.30861873970E+03  0.00000000000E+00 0.  1.
<scales pt_clust_3="63.54853" pt_clust_4="121.47321" pt_clust_5="14000.00000" pt_clust_6="43.36457"></scales>
<clustering>
<clus scale="   43.365">  1  6  2 -1</clus>
<clus scale="   63.549">  1  3  2 -1</clus>
<clus scale="  121.473">  1  4  2 -1</clus>
<clus scale="  121.473">  2  3  1 -1</clus>
</clustering>
</event>
<event>
 6    0  0.3584505E+002  0.1145219E+03  0.7546771E-02  0.1252418E+00
          2   -1    0    0  505    0 -0.00000000000E+00  0.00000000000E+00  0.19683043285E+04  0.19683043285E+04  0.00000000000E+00 0.  1.
         21   -1    0    0  504  502  0.00000000000E+00 -0.00000000000E+00 -0.29095762325E+02  0.29095762325E+02  0.00000000000E+00 0. -1.
         21    1    1    2  503  501 -0.27110301151E+02  0.65993638218E+02  0.47415127156E+03  0.47948884975E+03  0.00000000000E+00 0.  1.
         21    1    1    2  504  503 -0.87960785064E+01  0.31159289216E+02  0.47014873983E+02  0.57084767470E+02  0.00000000000E+00 0. -1.
         21    1    1    2  505  502  0.33874271552E+02 -0.15803347983E+03  0.29698697767E+03  0.33811730498E+03  0.00000000000E+00 0. -1.
          2    1    1    2  501    0  0.20321081048E+01  0.60880552395E+02  0.11210554430E+04  0.11227091686E+04  0.00000000000E+00 0.  1.
<scales pt_clust_3="114.52192" pt_clust_4="32.37703" pt_clust_5="14000.00000" pt_clust_6="61.97550"></scales>
<clustering>
<clus scale="   32.377">  2  4  1 -1</clus>
<clus scale="   61.976">  1  6  2 -1</clus>
<clus scale="  114.522">  1  3  2 -1</clus>
<clus scale="   32.377">  2  3  1 -1</clus>
</clustering>
</event>
<event>
 6    0  0.3584505E+002  0.1144614E+03  0.7546771E-02  0.1252524E+00
         21   -1    0    0  501  502  0.00000000000E+00  0.00000000000E+00  0.93679676838E+03  0.93679676838E+03  0.00000000000E+00 0. -1.
          2   -1    0    0  504    0 -0.00000000000E+00 -0.00000000000E+00 -0.45833528423E+03  0.45833528423E+03  0.00000000000E+00 0.  1.
         21    1    1    2  503  502  0.96946999702E+02 -0.60727436565E+02  0.88796020227E+03  0.89529875635E+03  0.00000000000E+00 0. -1.
         21    1    1    2  504  505  0.24188632938E+01  0.36665428413E+02 -0.19806946288E+03  0.20144904235E+03  0.00000000000E+00 0.  1.
         21    1    1    2  505  503 -0.13429450864E+03  0.37067741459E+01 -0.70397352909E+02  0.15167248439E+03  0.00000000000E+00 0.  1.
          2    1    1    2  501    0  0.34928645646E+02  0.20355234006E+02 -0.14103190233E+03  0.14671176951E+03  0.00000000000E+00 0.  1.
<scales pt_clust_3="14000.00000" pt_clust_4="36.74513" pt_clust_5="114.46137" pt_clust_6="54.56082"></scales>
<clustering>
<clus scale="   36.745">  2  4  1 -1</clus>
<clus scale="   54.561">  2  6  1 -1</clus>
<clus scale="  114.461">  2  5  1 -1</clus>
<clus scale="  114.461">  1  3  2 -1</clus>
</clustering>
</event>
<event>
 6    0  0.3584505E+002  0.1075200E+03  0.7546771E-02  0.1265233E+00
          2   -1    0    0  505    0 -0.00000000000E+00  0.00000000000E+00  0.75501861319E+03  0.75501861319E+03  0.00000000000E+00 0.  1.
         21   -1    0    0  503  502  0.00000000000E+00 -0.00000000000E+00 -0.48653727620E+02  0.48653727620E+02  0.00000000000E+00 0.  1.
         21    1    1    2  503  501  0.79695929085E+02 -0.42553798762E+02  0.13689885972E+03  0.16402306147E+03  0.00000000000E+00 0.  1.
         21    1    1    2  504  502  0.30796766275E+01 -0.29961103621E+02  0.14166226030E+02  0.33284141844E+02  0.00000000000E+00 0. -1.
         21    1    1    2  505  504 -0.60787595118E+02  0.12800896359E+03  0.19442998406E+03  0.24059186433E+03  0.00000000000E+00 0.  1.
          2    1    1    2  501    0 -0.21988010595E+02 -0.55494061204E+02  0.36086981575E+03  0.36577327316E+03  0.00000000000E+00 0.  1.
<scales pt_clust_3="107.52004" pt_clust_4="30.11897" pt_clust_5="14000.00000" pt_clust_6="61.37326"></scales>
<clustering>
<clus scale="   30.119">  2  4  1 -1</clus>
<clus scale="   61.373">  1  6  2 -1</clus>
<clus scale="  107.520">  1  3  2 -1</clus>
<clus scale="   30.119">  2  3  1 -1</clus>
</clustering>
</event>
<event>
 6    0  0.3584505E+002  0.1207897E+03  0.7546771E-02  0.1241800E+00
          2   -1    0    0  504    0 -0.00000000000E+00  0.00000000000E+00  0.31816543855E+04  0.31816543855E+04  0.00000000000E+00 0. -1.
         21   -1    0    0  505  502  0.00000000000E+00 -0.00000000000E+00 -0.30009505200E+02  0.30009505200E+02  0.00000000000E+00 0. -1.
         21    1    1    2  503  501  0.13094021331E+03 -0.29559565906E+02  0.67694209714E+03  0.69012296751E+03  0.00000000000E+00 0. -1.
         21    1    1    2  504  502 -0.11799910826E+03  0.67218918721E+02  0.26335991247E+03  0.29631168739E+03  0.00000000000E+00 0. -1.
         21    1    1    2  505  503  0.41668014842E+02  0.13393921092E+02  0.69834860253E+02  0.82416796162E+02  0.00000000000E+00 0. -1.
          2    1    1    2  501    0 -0.54609119894E+02 -0.51053273907E+02  0.21415080104E+04  0.21428124396E+04  0.00000000000E+00 0. -1.
<scales pt_clust_3="14000.00000" pt_clust_4="120.78967" pt_clust_5="43.76780" pt_clust_6="73.67017"></scales>
<clustering>
<clus scale="   43.768">  2  5  1 -1</clus>
<clus scale="   73.670">  1  6  2 -1</clus>
<clus scale="  120.790">  2  4  1 -1</clus>
<clus scale="   43.768">  2  3  1 -1</clus>
</clustering>
</event>
<event>
 6    0  0.3584505E+002  0.1338029E+03  0.7546771E-02  0.1221920E+00
         21   -1    0    0  503  502  0.00000000000E+00  0.00000000000E+00  0.24348745162E+03  0.24348745162E+03  0.00000000000E+00 0.  1.
         -2   -1    0    0    0  501 -0.00000000000E+00 -0.00000000000E+00 -0.10635170075E+04  0.10635170075E+04  0.00000000000E+00 0.  1.
         21    1    1    2  503  501 -0.63082882665E+01 -0.85612330609E+02 -0.22170462157E+02  0.88661124769E+02  0.00000000000E+00 0.  1.
         21    1    1    2  504  502  0.29842376258E+02  0.83726969208E+01  0.15763785778E+03  0.16065604153E+03  0.00000000000E+00 0.  1.
         21    1    1    2  505  504  0.46340222315E+02  0.18504267965E+03 -0.15179468322E+03  0.24378235242E+03  0.00000000000E+00 0.  1.
         -2    1    1    2    0  505 -0.69874310307E+02 -0.10780304596E+03 -0.80370226831E+03  0.81390494043E+03  0.00000000000E+00 0.  1.
<scales pt_clust_3="82.49254" pt_clust_4="30.99467" pt_clust_5="133.80289" pt_clust_6="14000.00000"></scales>
<clustering>
<clus scale="   30.995">  1  4  2 -1</clus>
<clus scale="   82.493">  1  3  2 -1</clus>
<clus scale="  133.803">  1  5  2 -1</clus>
<clus scale="   30.995">  1  3  2 -1</clus>
</clustering>
</event>
<event>
 6    0  0.3584505E+002  0.1179111E+03  0.7546771E-02  0.1246583E+00
         21   -1    0    0  504  502  0.00000000000E+00  0.00000000000E+00  0.35516920252E+02  0.35516920252E+02  0.00000000000E+00 0.  1.
          1   -1    0    0  503    0 -0.00000000000E+00 -0.00000000000E+00 -0.15287755802E+04  0.15287755802E+04  0.00000000000E+00 0.  1.
         21    1    1    2  503  505 -0.85121687223E+02 -0.89108890502E+02 -0.24745797072E+03  0.27644446689E+03  0.00000000000E+00 0.  1.
         21    1    1    2  504  501  0.71531769070E+02  0.69270252104E+02 -0.42889097821E+03  0.44029834545E+03  0.00000000000E+00 0.  1.
         21    1    1    2  505  502 -0.43328715378E+02 -0.16986701556E+02 -0.25164161290E+02  0.52907094227E+02  0.00000000000E+00 0.  1.
          1    1    1    2  501    0  0.56918633531E+02  0.36825339954E+02 -0.79174554971E+03  0.79464259387E+03  0.00000000000E+00 0.  1.
<scales pt_clust_3="117.91107" pt_clust_4="14000.00000" pt_clust_5="46.53951" pt_clust_6="64.74360"></scales>
<clustering>
<clus scale="   46.540">  1  5  2 -1</clus>
<clus scale="   64.744">  2  6  1 -1</clus>
<clus scale="  117.911">  2  3  1 -1</clus>
<clus scale="   46.540">  1  3  2 -1</clus>
</clustering>
</event>
<event>
 6    0  0.3584505E+002  0.8964347E+02  0.7546771E-02  0.1303717E+00
         21   -1    0    0  503  502  0.00000000000E+00  0.00000000000E+00  0.15197533826E+03  0.15197533826E+03  0.00000000000E+00 0. -1.
          2   -1    0    0  504    0 -0.00000000000E+00 -0.00000000000E+00 -0.14223641931E+04  0.14223641931E+04  0.00000000000E+00 0. -1.
         21    1    1    2  503  505 -0.48617865407E+02  0.39369080318E+02  0.10922732202E+03  0.12587386225E+03  0.00000000000E+00 0. -1.
         21    1    1    2  504  502  0.96704996419E+02 -0.21924832161E+02 -0.13678963877E+03  0.16894957790E+03  0.00000000000E+00 0. -1.
         21    1    1    2  505  501 -0.94942616300E+02 -0.17904098825E+02 -0.11281070425E+03  0.14852916258E+03  0.00000000000E+00 0. -1.
          2    1    1    2  501    0  0.46855485287E+02  0.45985066684E+00 -0.11300158338E+04  0.11309869286E+04  0.00000000000E+00 0. -1.
<scales pt_clust_3="61.53464" pt_clust_4="14000.00000" pt_clust_5="89.64347" pt_clust_6="46.85774"></scales>
<clustering>
<clus scale="   46.858">  2  6  1 -1</clus>
<clus scale="   61.535">  1  3  2 -1</clus>
<clus scale="   89.643">  2  5  1 -1</clus>
<clus scale="   61.535">  1  3  2 -1</clus>
</clustering>
</event>
<event>
 6    0  0.3584505E+002  0.9043787E+02  0.7546771E-02  0.1301795E+00
          3   -1    0    0  505    0 -0.00000000000E+00  0.00000000000E+00  0.36289355895E+02  0.36289355895E+02  0.00000000000E+00 0.  1.
         21   -1    0    0  504  502  0.00000000000E+00 -0.00000000000E+00 -0.19684351865E+04  0.19684351865E+04  0.00000000000E+00 0. -1.
         21    1    1    2  503  502 -0.95521819481E+02 -0.27326615365E+02 -0.94389356148E+03  0.94910811676E+03  0.00000000000E+00 0. -1.
         21    1    1    2  504  501  0.41694565737E+01  0.96719839030E+02 -0.77506361395E+03  0.78108624191E+03  0.00000000000E+00 0.  1.
         21    1    1    2  505  503  0.62645670161E+02 -0.41806046731E+02 -0.22141675797E+03  0.23387519373E+03  0.00000000000E+00 0.  1.
          3    1    1    2  501    0  0.28706692746E+02 -0.27587176934E+02  0.82281027523E+01  0.40654990033E+02  0.00000000000E+00 0.  1.
<scales pt_clust_3="86.18324" pt_clust_4="90.43787" pt_clust_5="14000.00000" pt_clust_6="39.81365"></scales>
<clustering>
<clus scale="   39.814">  1  6  2 -1</clus>
<clus scale="   90.438">  2  4  1 -1</clus>
<clus scale="   86.183">  2  3  1 -1</clus>
<clus scale="   90.438">  2  3  1 -1</clus>
</clustering>
</event>
<event>
 6    0  0.3584505E+002  0.7944102E+02  0.7546771E-02  0.1330645E+00
          2   -1    0    0  503    0 -0.00000000000E+00  0.00000000000E+00  0.91366214617E+03  0.91366214617E+03  0.00000000000E+00 0.  1.
         21   -1    0    0  504  502  0.00000000000E+00 -0.00000000000E+00 -0.64909269053E+02  0.64909269053E+02  0.00000000000E+00 0.  1.
         21    1    1    2  503  505 -0.76185069591E+01 -0.33843089354E+02  0.25173968932E+03  0.25411860917E+03  0.00000000000E+00 0.  1.
         21    1    1    2  504  501  0.40528347470E+01  0.44262313037E+02 -0.29869246809E+02  0.53551374677E+02  0.00000000000E+00 0.  1.
         21    1    1    2  505  502 -0.78245503757E+02 -0.51625032396E+02  0.10382126204E+03  0.13987979583E+03  0.00000000000E+00 0.  1.
          2    1    1    2  501    0  0.81811175969E+02  0.41205808713E+02  0.52306117256E+03  0.53102163556E+03  0.00000000000E+00 0.  1.
<scales pt_clust_3="34.69000" pt_clust_4="43.83112" pt_clust_5="79.44102" pt_clust_6="14000.00000"></scales>
<clustering>
<clus scale="   34.690">  1  3  2 -1</clus>
<clus scale="   43.831">  2  4  1 -1</clus>
<clus scale="   79.441">  2  5  1 -1</clus>
<clus scale="   43.831">  2  3  1 -1</clus>
</clustering>
</event>
<event>
 6    0  0.3584505E+002  0.1299249E+03  0.7546771E-02  0.1227567E+00
          2   -1    0    0  502    0 -0.00000000000E+00  0.00000000000E+00  0.70660302638E+03  0.70660302638E+03  0.00000000000E+00 0.  1.
         21   -1    0    0  505  502  0.00000000000E+00 -0.00000000000E+00 -0.80649285284E+02  0.80649285284E+02  0.00000000000E+00 0.  1.
         21    1    1    2  503  504  0.15520633391E+02  0.34962610248E+02  0.23344162096E+02  0.44813213232E+02  0.00000000000E+00 0.  1.
         21    1    1    2  504  501  0.60710560775E+02 -0.12794150840E+03  0.83447017002E+02  0.16437215825E+03  0.00000000000E+00 0.  1.
         21    1    1    2  505  503 -0.39839116456E+02  0.66316142826E+02  0.24209705070E+02  0.81062295914E+02  0.00000000000E+00 0.  1.
          2    1    1    2  501    0 -0.36392077710E+02  0.26662755327E+02  0.49495285693E+03  0.49700464427E+03  0.00000000000E+00 0.  1.
<scales pt_clust_3="36.77092" pt_clust_4="118.93684" pt_clust_5="36.77092" pt_clust_6="45.11414"></scales>
<clustering>
<clus scale="   36.771">  3  5 -1 -1</clus>
<clus scale="   45.114">  1  6  2 -1</clus>
<clus scale="  118.937">  1  4  2 -1</clus>
<clus scale="  129.925">  2  3  1 -1</clus>
</clustering>
</event>
<event>
 6    0  0.3584505E+002  0.7258620E+02  0.7546771E-02  0.1351513E+00
         21   -1    0    0  501  502  0.00000000000E+00  0.00000000000E+00  0.10033922254E+03  0.10033922254E+03  0.00000000000E+00 0.  1.
          2   -1    0    0  505    0 -0.00000000000E+00 -0.00000000000E+00 -0.24276015552E+04  0.24276015552E+04  0.00000000000E+00 0. -1.
         21    1    1    2  503  504  0.55209187266E+02 -0.69767110697E+01 -0.34634654732E+03  0.35078862539E+03  0.00000000000E+00 0.  1.
         21    1    1    2  504  502  0.11076809593E+02 -0.71182476172E+02  0.78903950047E+02  0.10684322139E+03  0.00000000000E+00 0.  1.
         21    1    1    2  505  503  0.14354428866E+01 -0.53091424319E+02 -0.33574622706E+03  0.33992100379E+03  0.00000000000E+00 0. -1.
          2    1    1    2  501    0 -0.67721439745E+02  0.13125061156E+03 -0.17240735083E+04  0.17303879272E+04  0.00000000000E+00 0. -1.
<scales pt_clust_3="57.66462" pt_clust_4="72.58620" pt_clust_5="53.11083" pt_clust_6="14000.00000"></scales>
<clustering>
<clus scale="   53.111">  2  5  1 -1</clus>
<clus scale="   57.665">  2  3  1 -1</clus>
<clus scale="   72.586">  1  4  2 -1</clus>
<clus scale="   72.586">  1  3  2 -1</clus>
</clustering>
</event>
<event>
 6    0  0.3584505E+002  0.1176167E+03  0.7546771E-02  0.1247081E+00
         21   -1    0    0  505  502  0.00000000000E+00  0.00000000000E+00  0.84033832371E+02  0.84033832371E+02  0.00000000000E+00 0. -1.
          2   -1    0    0  503    0 -0.00000000000E+00 -0.00000000000E+00 -0.19277570658E+04  0.19277570658E+04  0.00000000000E+00 0. -1.
         21    1    1    2  503  502  0.33835917547E+02  0.18746537934E+02  0.57392847511E+02  0.69211566563E+02  0.00000000000E+00 0. -1.
         21    1    1    2  504  501  0.72119447203E+02  0.45544477458E+02 -0.74620502156E+03  0.75106421050E+03  0.00000000000E+00 0. -1.
         21    1    1    2  505  504 -0.13233204056E+03 -0.87915491407E+02 -0.33420762830E+03  0.37004816092E+03  0.00000000000E+00 0. -1.
          2    1    1    2  501    0  0.26376675806E+02  0.23624476016E+02 -0.82070343109E+03  0.82146696019E+03  0.00000000000E+00 0. -1.
<scales pt_clust_3="38.86642" pt_clust_4="117.61668" pt_clust_5="14000.00000" pt_clust_6="35.40967"></scales>
<clustering>
<clus scale="   35.410">  2  6  1 -1</clus>
<clus scale="   38.866">  1  3  2 -1</clus>
<clus scale="  117.617">  2  4  1 -1</clus>
<clus scale="   38.866">  1  3  2 -1</clus>
</clustering>
</event>
<event>
 6    0  0.3584505E+002  0.1075762E+03  0.7546771E-02  0.1265125E+00
         21   -1    0    0  503  502  0.00000000000E+00  0.00000000000E+00  0.24700370022E+03  0.24700370022E+03  0.00000000000E+00 0.  1.
          2   -1    0    0  505    0 -0.00000000000E+00 -0.00000000000E+00 -0.20025931995E+04  0.20025931995E+04  0.00000000000E+00 0. -1.
         21    1    1    2  503  504 -0.77816936719E+02  0.15137734026E+02  0.23063899829E+03  0.24388311579E+03  0.00000000000E+00 0.  1.
         21    1    1    2  504  501  0.20318536210E+02 -0.47009630437E+02 -0.73680727085E+03  0.73858493258E+03  0.00000000000E+00 0. -1.
         21    1    1    2  505  502  0.74240338744E+02  0.88000805252E+02 -0.41560188541E+03  0.43125479334E+03  0.00000000000E+00 0.  1.
          2    1    1    2  501    0 -0.16741938235E+02 -0.56128908841E+02 -0.83381934136E+03  0.83587405806E+03  0.00000000000E+00 0. -1.
<scales pt_clust_3="79.27564" pt_clust_4="35.02201" pt_clust_5="100.84558" pt_clust_6="35.02201"></scales>
<clustering>
<clus scale="   35.022">  4  6 -1 -1</clus>
<clus scale="   79.276">  1  3  2 -1</clus>
<clus scale="  100.846">  1  5  2 -1</clus>
<clus scale="   79.276">  1  3  2 -1</clus>
</clustering>
</event>
<event>
 6    0  0.3584505E+002  0.1548849E+03  0.7546771E-02  0.1194596E+00
          2   -1    0    0  503    0 -0.00000000000E+00  0.00000000000E+00  0.43214355940E+03  0.43214355940E+03  0.00000000000E+00 0. -1.
         21   -1    0    0  504  502  0.00000000000E+00 -0.00000000000E+00 -0.84993941510E+03  0.84993941510E+03  0.00000000000E+00 0.  1.
         21    1    1    2  503  505  0.59075807379E+02  0.64947857855E+02  0.32484034338E+02  0.93612967821E+02  0.00000000000E+00 0. -1.
         21    1    1    2  504  501 -0.38813588511E+02  0.63903891963E+02 -0.31453987482E+02  0.81114458573E+02  0.00000000000E+00 0.  1.
         21    1    1    2  505  502 -0.67600857335E+01 -0.16734735691E+03 -0.75264413833E+03  0.77105384740E+03  0.00000000000E+00 0.  1.
          2    1    1    2  501    0 -0.13502133135E+02  0.38495607094E+02  0.33381823578E+03  0.33630170071E+03  0.00000000000E+00 0. -1.
<scales pt_clust_3="154.88489" pt_clust_4="85.00290" pt_clust_5="14000.00000" pt_clust_6="40.79484"></scales>
<clustering>
<clus scale="   40.795">  1  6  2 -1</clus>
<clus scale="   85.003">  1  4  2 -1</clus>
<clus scale="  154.885">  1  3  2 -1</clus>
<clus scale="  154.885">  2  3  1 -1</clus>
</clustering>
</event>
<event>
 6    0  0.3584505E+002  0.1315526E+03  0.7546771E-02  0.1225170E+00
          2   -1    0    0  503    0 -0.00000000000E+00  0.00000000000E+00  0.70865321285E+03  0.70865321285E+03  0.00000000000E+00 0. -1.
         21   -1    0    0  504  502  0.00000000000E+00 -0.00000000000E+00 -0.19662431149E+04  0.19662431149E+04  0.00000000000E+00 0.  1.
         21    1    1    2  503  505  0.48197180738E+02  0.91080253197E+02  0.15280840381E+03  0.18430677966E+03  0.00000000000E+00 0.  1.
         21    1    1    2  504  501  0.30620385510E+02  0.35247281718E+02 -0.12360241973E+03  0.13212697318E+03  0.00000000000E+00 0. -1.
         21    1    1    2  505  502 -0.10578821667E+03 -0.14413575522E+03 -0.18177520426E+04  0.18265236793E+04  0.00000000000E+00 0.  1.
          2    1    1    2  501    0  0.26970650426E+02  0.17808220308E+02  0.53095615640E+03  0.53193889566E+03  0.00000000000E+00 0. -1.
<scales pt_clust_3="14000.00000" pt_clust_4="47.43950" pt_clust_5="131.55260" pt_clust_6="32.31948"></scales>
<clustering>
<clus scale="   32.319">  1  6  2 -1</clus>
<clus scale="   47.440">  2  4  1 -1</clus>
<clus scale="  131.553">  2  5  1 -1</clus>
<clus scale="   47.440">  2  3  1 -1</clus>
</clustering>
</event>
<event>
 6    0  0.3584505E+002  0.2131247E+03  0.7546771E-02  0.1139115E+00
         21   -1    0    0  503  502  0.00000000000E+00  0.00000000000E+00  0.37796667051E+03  0.37796667051E+03  0.00000000000E+00 0. -1.
          2   -1    0    0  504    0 -0.00000000000E+00 -0.00000000000E+00 -0.43285287940E+03  0.43285287940E+03  0.00000000000E+00 0.  1.
         21    1    1    2  503  501  0.24123984656E+02 -0.59004889729E+02 -0.29498621030E+01  0.63814146817E+02  0.00000000000E+00 0.  1.
         21    1    1    2  504  505 -0.53810226348E+02  0.18115235273E+03 -0.16490464063E+03  0.25080920210E+03  0.00000000000E+00 0. -1.
         21    1    1    2  505  502 -0.92783750325E+02 -0.17631305344E+03  0.23979022202E+03  0.31176027283E+03  0.00000000000E+00 0. -1.
          2    1    1    2  501    0  0.12246999202E+03  0.54165590440E+02 -0.12682192818E+03  0.18443592817E+03  0.00000000000E+00 0.  1.
<scales pt_clust_3="63.74593" pt_clust_4="213.12472" pt_clust_5="14000.00000" pt_clust_6="133.86815"></scales>
<clustering>
<clus scale="   63.746">  1  3  2 -1</clus>
<clus scale="  133.868">  2  6  1 -1</clus>
<clus scale="  213.125">  2  4  1 -1</clus>
<clus scale="   63.746">  1  3  2 -1</clus>
</clustering>
</event>
<event>
 6    0  0.3584505E+002  0.1066369E+03  0.7546771E-02  0.1266928E+00
         21   -1    0    0  504  502  0.00000000000E+00  0.00000000000E+00  0.14146748219E+03  0.14146748219E+03  0.00000000000E+00 0.  1.
          2   -1    0    0  503    0 -0.00000000000E+00 -0.00000000000E+00 -0.12645713544E+04  0.12645713544E+04  0.00000000000E+00 0.  1.
         21    1    1    2  503  502  0.23187855376E+02  0.65043358797E+02  0.46466886388E+02  0.83231524623E+02  0.00000000000E+00 0.  1.
         21    1    1    2  504  505 -0.50874524027E+02 -0.26630582033E+02  0.18843384150E+02  0.60435736287E+02  0.00000000000E+00 0.  1.
         21    1    1    2  505  501 -0.26780913785E+01 -0.13855831336E+03 -0.10488322431E+03  0.17379893301E+03  0.00000000000E+00 0.  1.
          2    1    1    2  501    0  0.30364760029E+02  0.10014553659E+03 -0.10835309185E+04  0.10885726427E+04  0.00000000000E+00 0.  1.
<scales pt_clust_3="48.95806" pt_clust_4="57.42304" pt_clust_5="106.63691" pt_clust_6="14000.00000"></scales>
<clustering>
<clus scale="   57.423">  1  4  2 -1</clus>
<clus scale="   48.958">  1  3  2 -1</clus>
<clus scale="  106.637">  1  5  2 -1</clus>
<clus scale="   57.423">  1  3  2 -1</clus>
</clustering>
</event>
<event>
 6    0  0.3584505E+002  0.1024150E+03  0.7546771E-02  0.1275298E+00
         21   -1    0    0  505  502  0.00000000000E+00  0.00000000000E+00  0.42769079075E+02  0.42769079075E+02  0.00000000000E+00 0. -1.
          1   -1    0    0  503    0 -0.00000000000E+00 -0.00000000000E+00 -0.23353522579E+04  0.23353522579E+04  0.00000000000E+00 0.  1.
         21    1    1    2  503  504  0.35818951094E+02  0.75587310218E+02 -0.20284688306E+03  0.21941580775E+03  0.00000000000E+00 0. -1.
         21    1    1    2  504  502 -0.39253011339E+02  0.32210430065E+02  0.58950782196E+01  0.51118124490E+02  0.00000000000E+00 0. -1.
         21    1    1    2  505  501 -0.40294762117E+02 -0.12155336784E+03 -0.72725876703E+03  0.73844715675E+03  0.00000000000E+00 0. -1.
          1    1    1    2  501    0  0.43728822363E+02  0.13755627554E+02 -0.13683726069E+04  0.13691402480E+04  0.00000000000E+00 0.  1.
<scales pt_clust_3="14000.00000" pt_clust_4="50.19844" pt_clust_5="102.41495" pt_clust_6="45.84133"></scales>
<clustering>
<clus scale="   45.841">  2  6  1 -1</clus>
<clus scale="   50.198">  1  4  2 -1</clus>
<clus scale="  102.415">  2  5  1 -1</clus>
<clus scale="   50.198">  1  3  2 -1</clus>
</clustering>
</event>
<event>
 6    0  0.3584505E+002  0.1882479E+03  0.7546771E-02  0.1160051E+00
          2   -1    0    0  503    0 -0.00000000000E+00  0.00000000000E+00  0.32736366475E+03  0.32736366475E+03  0.00000000000E+00 0.  1.
         21   -1    0    0  504  502  0.00000000000E+00 -0.00000000000E+00 -0.18428175434E+04  0.18428175434E+04  0.00000000000E+00 0.  1.
         21    1    1    2  503  502  0.17500248377E+03  0.50746113434E+02 -0.49077684840E+03  0.52351022175E+03  0.00000000000E+00 0.  1.
         21    1    1    2  504  505  0.55310311797E+02 -0.54461881379E+01 -0.86330473007E+03  0.86509187288E+03  0.00000000000E+00 0.  1.
         21    1    1    2  505  501 -0.56100833001E+02  0.27088984753E+02 -0.44038708019E+03  0.44477173579E+03  0.00000000000E+00 0. -1.
          2    1    1    2  501    0 -0.17421196256E+03 -0.72388910048E+02  0.27901478004E+03  0.33680737771E+03  0.00000000000E+00 0.  1.
<scales pt_clust_3="188.24787" pt_clust_4="55.57780" pt_clust_5="39.65889" pt_clust_6="14000.00000"></scales>
<clustering>
<clus scale="   55.578">  2  4  1 -1</clus>
<clus scale="   39.659">  2  5  1 -1</clus>
<clus scale="  188.248">  2  3  1 -1</clus>
<clus scale="   55.578">  2  3  1 -1</clus>
</clustering>
</event>
<event>
 6    0  0.3584505E+002  0.1128496E+03  0.7546771E-02  0.1255382E+00
          2   -1    0    0  505    0 -0.00000000000E+00  0.00000000000E+00  0.18294445438E+03  0.18294445438E+03  0.00000000000E+00 0.  1.
         21   -1    0    0  503  502  0.00000000000E+00 -0.00000000000E+00 -0.24431593108E+03  0.24431593108E+03  0.00000000000E+00 0. -1.
         21    1    1    2  503  501  0.43699883682E+02 -0.11651953098E+03 -0.13592335183E+03  0.18428683758E+03  0.00000000000E+00 0. -1.
         21    1    1    2  504  502  0.36382529865E+02  0.19318139416E+02 -0.37821531087E+02  0.55922689524E+02  0.00000000000E+00 0. -1.
         21    1    1    2  505  504 -0.69654000857E+02  0.60623809124E+02  0.31305241672E+02  0.97503560059E+02  0.00000000000E+00 0. -1.
          2    1    1    2  501    0 -0.10428412691E+02  0.36577582438E+02  0.81068164550E+02  0.89547298294E+02  0.00000000000E+00 0.  1.
<scales pt_clust_3="14000.00000" pt_clust_4="42.07101" pt_clust_5="112.84961" pt_clust_6="38.03513"></scales>
<clustering>
<clus scale="   38.035">  1  6  2 -1</clus>
<clus scale="   42.071">  2  4  1 -1</clus>
<clus scale="  112.850">  1  5  2 -1</clus>
<clus scale="   42.071">  2  3  1 -1</clus>
</clustering>
</event>
<event>
 6    0  0.3584505E+002  0.1030744E+03  0.7546771E-02  0.1273961E+00
         21   -1    0    0  503  502  0.00000000000E+00  0.00000000000E+00  0.93059901539E+03  0.93059901539E+03  0.00000000000E+00 0. -1.
         -3   -1    0    0    0  501 -0.00000000000E+00 -0.00000000000E+00 -0.51047700797E+03  0.51047700797E+03  0.00000000000E+00 0.  1.
         21    1    1    2  503  501  0.37075314307E+02 -0.69994389942E+00 -0.12517275278E+03  0.13054994022E+03  0.00000000000E+00 0.  1.
         21    1    1    2  504  502 -0.49540840931E+02  0.47356350217E+01  0.73134708514E+03  0.73303838924E+03  0.00000000000E+00 0. -1.
         21    1    1    2  505  504 -0.27009110859E+02 -0.77269937115E+02  0.18231245505E+03  0.19984485612E+03  0.00000000000E+00 0. -1.
         -3    1    1    2    0  505  0.39474637483E+02  0.73234245993E+02 -0.36836477999E+03  0.37764283778E+03  0.00000000000E+00 0.  1.
<scales pt_clust_3="37.08192" pt_clust_4="49.68495" pt_clust_5="103.07440" pt_clust_6="14000.00000"></scales>
<clustering>
<clus scale="   37.082">  2  3  1 -1</clus>
<clus scale="   49.685">  1  4  2 -1</clus>
<clus scale="  103.074">  1  5  2 -1</clus>
<clus scale="   49.685">  1  3  2 -1</clus>
</clustering>
</event>
<event>
 6    0  0.3584505E+002  0.1176844E+03  0.7546771E-02  0.1246967E+00
          1   -1    0    0  505    0 -0.00000000000E+00  0.00000000000E+00  0.12229248952E+04  0.12229248952E+04  0.00000000000E+00 0. -1.
         21   -1    0    0  503  502  0.00000000000E+00 -0.00000000000E+00 -0.22453831778E+03  0.22453831778E+03  0.00000000000E+00 0.  1.
         21    1    1    2  503  501 -0.95673049009E+02 -0.48615972252E+02  0.19883438929E+03  0.22594680664E+03  0.00000000000E+00 0. -1.
         21    1    1    2  504  502  0.19598349323E+02  0.24591883478E+02 -0.18054081307E+03  0.18325894579E+03  0.00000000000E+00 0.  1.
         21    1    1    2  505  504  0.77880678747E+02  0.97545286723E+02  0.11399429678E+03  0.16904195569E+03  0.00000000000E+00 0. -1.
          1    1    1    2  501    0 -0.18059790614E+01 -0.73521197950E+02  0.86609870446E+03  0.86921550491E+03  0.00000000000E+00 0. -1.
<scales pt_clust_3="117.68438" pt_clust_4="31.44608" pt_clust_5="14000.00000" pt_clust_6="72.63056"></scales>
<clustering>
<clus scale="   31.446">  2  4  1 -1</clus>
<clus scale="   72.631">  1  6  2 -1</clus>
<clus scale="  117.684">  2  3  1 -1</clus>
<clus scale="   31.446">  2  3  1 -1</clus>
</clustering>
</event>
<event>
 6    0  0.3584505E+002  0.1245507E+03  0.7546771E-02  0.1235773E+00
          2   -1    0    0  502    0 -0.00000000000E+00  0.00000000000E+00  0.23377090832E+04  0.23377090832E+04  0.00000000000E+00 0.  1.
         21   -1    0    0  503  502  0.00000000000E+00 -0.00000000000E+00 -0.12079481330E+03  0.12079481330E+03  0.00000000000E+00 0. -1.
         21    1    1    2  503  505 -0.30589325642E+02  0.41306076907E+02 -0.28523104827E+02  0.58783214795E+02  0.00000000000E+00 0. -1.
         21    1    1    2  504  501 -0.90420924190E+02 -0.37960390670E+02  0.12787897238E+04  0.12825443823E+04  0.00000000000E+00 0. -1.
         21    1    1    2  505  504  0.14002131309E+03  0.21050028187E+02 -0.82058272856E+01  0.14183232145E+03  0.00000000000E+00 0. -1.
          2    1    1    2  501    0 -0.19011063256E+02 -0.24395714424E+02  0.97485347824E+03  0.97534397801E+03  0.00000000000E+00 0.  1.
<scales pt_clust_3="51.30841" pt_clust_4="124.55072" pt_clust_5="14000.00000" pt_clust_6="30.92849"></scales>
<clustering>
<clus scale="   30.928">  1  6  2 -1</clus>
<clus scale="   51.308">  2  3  1 -1</clus>
<clus scale="  124.551">  1  4  2 -1</clus>
<clus scale="   51.308">  2  3  1 -1</clus>
</clustering>
</event>
<event>
 6    0  0.3584505E+002  0.7367039E+02  0.7546771E-02  0.1348039E+00
         21   -1    0    0  505  502  0.00000000000E+00  0.00000000000E+00  0.47448280236E+03  0.47448280236E+03  0.00000000000E+00 0.  1.
          3   -1    0    0  503    0 -0.00000000000E+00 -0.00000000000E+00 -0.16325735495E+03  0.16325735495E+03  0.00000000000E+00 0. -1.
         21    1    1    2  503  504  0.54388074868E+02 -0.47715873826E+02 -0.37832994208E+02  0.81646817167E+02  0.00000000000E+00 0.  1.
         21    1    1    2  504  502  0.76421234191E+02  0.37852581747E+01  0.34392265209E+03  0.35233127002E+03  0.00000000000E+00 0.  1.
         21    1    1    2  505  501 -0.42246730322E+02  0.53649372723E+02  0.66707918232E+02  0.95461970288E+02  0.00000000000E+00 0.  1.
          3    1    1    2  501    0 -0.88562578737E+02 -0.97187570717E+01 -0.61572128707E+02  0.10830009984E+03  0.00000000000E+00 0. -1.
<scales pt_clust_3="73.67039" pt_clust_4="64.43207" pt_clust_5="68.28647" pt_clust_6="14000.00000"></scales>
<clustering>
<clus scale="   68.286">  1  5  2 -1</clus>
<clus scale="   64.432">  1  4  2 -1</clus>
<clus scale="   73.670">  2  3  1 -1</clus>
<clus scale="   68.286">  1  3  2 -1</clus>
</clustering>
</event>
<event>
 6    0  0.3584505E+002  0.1130712E+03  0.7546771E-02  0.1254986E+00
         21   -1    0    0  503  502  0.00000000000E+00  0.00000000000E+00  0.19768822068E+03  0.19768822068E+03  0.00000000000E+00 0.  1.
          2   -1    0    0  504    0 -0.00000000000E+00 -0.00000000000E+00 -0.41916246096E+03  0.41916246096E+03  0.00000000000E+00 0.  1.
         21    1    1    2  503  505  0.31826599679E+02 -0.14112752052E+02  0.20996669500E+02  0.40656639651E+02  0.00000000000E+00 0. -1.
         21    1    1    2  504  502 -0.13767164389E+03  0.60468610545E+02  0.11635505695E+03  0.19012741430E+03  0.00000000000E+00 0.  1.
         21    1    1    2  505  501  0.85039768242E+02 -0.13659211964E+02 -0.14415568027E+03  0.16792616356E+03  0.00000000000E+00 0. -1.
          2    1    1    2  501    0  0.20805275972E+02 -0.32696646529E+02 -0.21467028646E+03  0.21814046413E+03  0.00000000000E+00 0.  1.
<scales pt_clust_3="34.81526" pt_clust_4="113.07123" pt_clust_5="14000.00000" pt_clust_6="39.05673"></scales>
<clustering>
<clus scale="   34.815">  1  3  2 -1</clus>
<clus scale="   39.057">  2  6  1 -1</clus>
<clus scale="  113.071">  1  4  2 -1</clus>
<clus scale="   34.815">  1  3  2 -1</clus>
</clustering>
</event>
<event>
 6    0  0.3584505E+002  0.1140888E+03  0.7546771E-02  0.1253180E+00
         21   -1    0    0  503  502  0.00000000000E+00  0.00000000000E+00  0.66454841920E+03  0.66454841920E+03  0.00000000000E+00 0. -1.
          2   -1    0    0  502    0 -0.00000000000E+00 -0.00000000000E+00 -0.37449388821E+03  0.37449388821E+03  0.00000000000E+00 0.  1.
         21    1    1    2  503  504  0.21818699248E+02  0.23728170091E+02  0.40104944109E+03  0.40234280892E+03  0.00000000000E+00 0. -1.
         21    1    1    2  504  505 -0.25084847930E+01  0.88941107680E+02  0.95391651318E+02  0.13044684846E+03  0.00000000000E+00 0. -1.
         21    1    1    2  505  501 -0.11192650413E+03 -0.40102922808E+02  0.11413934787E+03  0.16481376604E+03  0.00000000000E+00 0. -1.
          2    1    1    2  501    0  0.92616289672E+02 -0.72566354963E+02 -0.32052590929E+03  0.34143888400E+03  0.00000000000E+00 0.  1.
<scales pt_clust_3="32.23479" pt_clust_4="99.37193" pt_clust_5="14000.00000" pt_clust_6="114.08882"></scales>
<clustering>
<clus scale="   32.235">  1  3  2 -1</clus>
<clus scale="   99.372">  1  4  2 -1</clus>
<clus scale="  114.089">  2  6  1 -1</clus>
<clus scale="   32.235">  1  3  2 -1</clus>
</clustering>
</event>
<event>
 6    0  0.3584505E+002  0.1275442E+03  0.7546771E-02  0.1231146E+00
          2   -1    0    0  505    0 -0.00000000000E+00  0.00000000000E+00  0.33940244297E+04  0.33940244297E+04  0.00000000000E+00 0.  1.
         21   -1    0    0  503  502  0.00000000000E+00 -0.00000000000E+00 -0.10143589327E+03  0.10143589327E+03  0.00000000000E+00 0. -1.
         21    1    1    2  503  504 -0.97061017507E+02  0.99868366154E+02  0.30416637067E+02  0.14254719741E+03  0.00000000000E+00 0. -1.
         21    1    1    2  504  501  0.97517276020E+02 -0.17443903367E+03  0.63153493265E+03  0.66240091089E+03  0.00000000000E+00 0. -1.
         21    1    1    2  505  502  0.28876821545E+02 -0.43375459136E+02 -0.47496011727E+01  0.52324563917E+02  0.00000000000E+00 0.  1.
          2    1    1    2  501    0 -0.29333080058E+02  0.11794612665E+03  0.26353865679E+04  0.26381876507E+04  0.00000000000E+00 0.  1.
<scales pt_clust_3="100.13151" pt_clust_4="14000.00000" pt_clust_5="52.10855" pt_clust_6="127.54425"></scales>
<clustering>
<clus scale="   52.109">  2  5  1 -1</clus>
<clus scale="  100.132">  2  3  1 -1</clus>
<clus scale="  127.544">  1  6  2 -1</clus>
<clus scale="   52.109">  2  3  1 -1</clus>
</clustering>
</event>
<event>
 6    0  0.3584505E+002  0.1280787E+03  0.7546771E-02  0.1230335E+00
          1   -1    0    0  504    0 -0.00000000000E+00  0.00000000000E+00  0.78255063337E+03  0.78255063337E+03  0.00000000000E+00 0.  1.
         21   -1    0    0  501  502  0.00000000000E+00 -0.00000000000E+00 -0.79518106973E+03  0.79518106973E+03  0.00000000000E+00 0. -1.
         21    1    1    2  503  505 -0.41115232119E+01  0.82635597527E+02 -0.86128563079E+02  0.11943063250E+03  0.00000000000E+00 0. -1.
         21    1    1    2  504  503  0.10403437248E+03 -0.18957655809E+03 -0.85809269672E+02  0.23264920545E+03  0.00000000000E+00 0. -1.
         21    1    1    2  505  502 -0.61821963572E+02  0.34136313984E+02 -0.52837699540E+03  0.53307550345E+03  0.00000000000E+00 0. -1.
          1    1    1    2  501    0 -0.38100885695E+02  0.72804646582E+02  0.68768439180E+03  0.69257636169E+03  0.00000000000E+00 0.  1.
<scales pt_clust_3="128.07874" pt_clust_4="14000.00000" pt_clust_5="70.62042" pt_clust_6="82.71739"></scales>
<clustering>
<clus scale="   70.620">  2  5  1 -1</clus>
<clus scale="   82.717">  1  6  2 -1</clus>
<clus scale="  128.079">  2  3  1 -1</clus>
<clus scale="   70.620">  2  3  1 -1</clus>
</clustering>
</event>
<event>
 6    0  0.3584505E+002  0.9820037E+02  0.7546771E-02  0.1284126E+00
          2   -1    0    0  504    0 -0.00000000000E+00  0.00000000000E+00  0.24830659165E+03  0.24830659165E+03  0.00000000000E+00 0. -1.
         21   -1    0    0  505  502  0.00000000000E+00 -0.00000000000E+00 -0.11955673814E+04  0.11955673814E+04  0.00000000000E+00 0.  1.
         21    1    1    2  503  501 -0.28410912310E+02 -0.15567158981E+03 -0.27405214652E+03  0.31645758456E+03  0.00000000000E+00 0.  1.
         21    1    1    2  504  502  0.23570498362E+02  0.12503655124E+03 -0.37382708345E+03  0.39488782693E+03  0.00000000000E+00 0.  1.
         21    1    1    2  505  503 -0.27291111715E+02 -0.59914552073E+02 -0.50304695281E+03  0.50733696402E+03  0.00000000000E+00 0. -1.
          2    1    1    2  501    0  0.32131525663E+02  0.90549590644E+02  0.20366539301E+03  0.22519159757E+03  0.00000000000E+00 0. -1.
<scales pt_clust_3="14000.00000" pt_clust_4="92.06179" pt_clust_5="65.83736" pt_clust_6="98.20037"></scales>
<clustering>
<clus scale="   65.837">  2  5  1 -1</clus>
<clus scale="   92.062">  2  4  1 -1</clus>
<clus scale="   98.200">  1  6  2 -1</clus>
<clus scale="   65.837">  2  3  1 -1</clus>
</clustering>
</event>
<event>
 6    0  0.3584505E+002  0.9142175E+02  0.7546771E-02  0.1299445E+00
         -1   -1    0    0    0  501 -0.00000000000E+00  0.00000000000E+00  0.78584702749E+03  0.78584702749E+03  0.00000000000E+00 0.  1.
         21   -1    0    0  505  502  0.00000000000E+00 -0.00000000000E+00 -0.12160534053E+03  0.12160534053E+03  0.00000000000E+00 0. -1.
         21    1    1    2  503  502 -0.44020311512E+02 -0.25504261775E+01 -0.91227261602E+02  0.10132475393E+03  0.00000000000E+00 0. -1.
         21    1    1    2  504  503  0.68230978469E+02 -0.10139465338E+03  0.21739608071E+03  0.24939406181E+03  0.00000000000E+00 0.  1.
         21    1    1    2  505  501  0.23565884298E+02  0.76572001759E+02  0.22459577442E+03  0.23845730067E+03  0.00000000000E+00 0.  1.
         -1    1    1    2    0  504 -0.47776551255E+02  0.27373077795E+02  0.31347709343E+03  0.31827625161E+03  0.00000000000E+00 0.  1.
<scales pt_clust_3="44.09413" pt_clust_4="14000.00000" pt_clust_5="91.42175" pt_clust_6="58.60536"></scales>
<clustering>
<clus scale="   44.094">  2  3  1 -1</clus>
<clus scale="   58.605">  1  6  2 -1</clus>
<clus scale="   91.422">  1  5  2 -1</clus>
<clus scale="   44.094">  2  3  1 -1</clus>
</clustering>
</event>
<event>
 6    0  0.3584505E+002  0.8983231E+02  0.7546771E-02  0.1303258E+00
         21   -1    0    0  501  502  0.00000000000E+00  0.00000000000E+00  0.32900711379E+03  0.32900711379E+03  0.00000000000E+00 0. -1.
          1   -1    0    0  505    0 -0.00000000000E+00 -0.00000000000E+00 -0.25624183101E+03  0.25624183101E+03  0.00000000000E+00 0.  1.
         21    1    1    2  503  504  0.17100668859E+02  0.12090741818E+03 -0.13898648301E+01  0.12211866512E+03  0.00000000000E+00 0. -1.
         21    1    1    2  504  502 -0.33874962027E+00 -0.31434844448E+02  0.25212125384E+03  0.25407359334E+03  0.00000000000E+00 0. -1.
         21    1    1    2  505  503 -0.35683572153E+02 -0.58825357418E+02 -0.84992104897E+02  0.10934988748E+03  0.00000000000E+00 0. -1.
          1    1    1    2  501    0  0.18921652914E+02 -0.30647216310E+02 -0.92974001331E+02  0.99706798866E+02  0.00000000000E+00 0.  1.
<scales pt_clust_3="14000.00000" pt_clust_4="31.43667" pt_clust_5="89.83231" pt_clust_6="37.20354"></scales>
<clustering>
<clus scale="   31.437">  1  4  2 -1</clus>
<clus scale="   37.204">  2  6  1 -1</clus>
<clus scale="   89.832">  2  5  1 -1</clus>
<clus scale="   31.437">  1  3  2 -1</clus>
</clustering>
</event>
<event>
 6    0  0.3584505E+002  0.1659208E+03  0.7546771E-02  0.1182170E+00
         21   -1    0    0  503  502  0.00000000000E+00  0.00000000000E+00  0.33761854524E+03  0.33761854524E+03  0.00000000000E+00 0.  1.
          1   -1    0    0  505    0 -0.00000000000E+00 -0.00000000000E+00 -0.21634928815E+04  0.21634928815E+04  0.00000000000E+00 0. -1.
         21    1    1    2  503  501  0.56868584062E+02  0.11505413227E+03  0.24537133030E+02  0.13066583372E+03  0.00000000000E+00 0.  1.
         21    1    1    2  504  502  0.19935811348E+02 -0.32915937888E+02  0.22588036896E+02  0.44621911120E+02  0.00000000000E+00 0. -1.
         21    1    1    2  505  504  0.73581974372E+02 -0.58010117129E+01  0.21690797251E+03  0.22912229754E+03  0.00000000000E+00 0.  1.
          1    1    1    2  501    0 -0.15038636978E+03 -0.76337182670E+02 -0.20899074787E+04  0.20967013843E+04  0.00000000000E+00 0. -1.
<scales pt_clust_3="165.92082" pt_clust_4="38.48241" pt_clust_5="93.15138" pt_clust_6="14000.00000"></scales>
<clustering>
<clus scale="   38.482">  1  4  2 -1</clus>
<clus scale="   93.151">  1  5  2 -1</clus>
<clus scale="  165.921">  1  3  2 -1</clus>
<clus scale="   38.482">  1  3  2 -1</clus>
</clustering>
</event>
<event>
 6    0  0.3584505E+002  0.8267372E+02  0.7546771E-02  0.1321631E+00
         -2   -1    0    0    0  501 -0.00000000000E+00  0.00000000000E+00  0.12972669862E+04  0.12972669862E+04  0.00000000000E+00 0. -1.
         21   -1    0    0  503  502  0.00000000000E+00 -0.00000000000E+00 -0.69814826837E+02  0.69814826837E+02  0.00000000000E+00 0. -1.
         21    1    1    2  503  501 -0.62048652359E+02 -0.11767324306E+02  0.99436990688E+02  0.11779736966E+03  0.00000000000E+00 0. -1.
         21    1    1    2  504  505  0.61806865811E+02 -0.27677491513E+02  0.14341825199E+03  0.15860304916E+03  0.00000000000E+00 0. -1.
         21    1    1    2  505  502  0.53158284639E+02 -0.31175750409E+02 -0.32563482989E+02  0.69700151102E+02  0.00000000000E+00 0. -1.
         -2    1    1    2    0  504 -0.52916498091E+02  0.70620566227E+02  0.10171603996E+04  0.10209812431E+04  0.00000000000E+00 0. -1.
<scales pt_clust_3="44.99455" pt_clust_4="14000.00000" pt_clust_5="61.62573" pt_clust_6="82.67372"></scales>
<clustering>
<clus scale="   61.626">  2  5  1 -1</clus>
<clus scale="   44.995">  2  3  1 -1</clus>
<clus scale="   82.674">  1  6  2 -1</clus>
<clus scale="   61.626">  2  3  1 -1</clus>
</clustering>
</event>
<event>
 6    0  0.3584505E+002  0.6787411E+02  0.7546771E-02  0.1367475E+00
          2   -1    0    0  505    0 -0.00000000000E+00  0.00000000000E+00  0.73851156999E+03  0.73851156999E+03  0.00000000000E+00 0. -1.
         21   -1    0    0  503  502  0.00000000000E+00 -0.00000000000E+00 -0.87780626577E+03  0.87780626577E+03  0.00000000000E+00 0. -1.
         21    1    1    2  503  501 -0.38837559184E+02 -0.70121543543E+02 -0.12294241166E+03  0.14676587974E+03  0.00000000000E+00 0. -1.
         21    1    1    2  504  502 -0.51589349894E+02  0.34015931256E+02 -0.70353916697E+03  0.70624776394E+03  0.00000000000E+00 0. -1.
         21    1    1    2  505  504  0.25622311196E+02  0.58427991690E+02 -0.83988856753E+01  0.64349625675E+02  0.00000000000E+00 0.  1.
          2    1    1    2  501    0  0.64804597883E+02 -0.22322379402E+02  0.69558576853E+03  0.69895456641E+03  0.00000000000E+00 0. -1.
<scales pt_clust_3="67.87411" pt_clust_4="61.79437" pt_clust_5="67.22621" pt_clust_6="14000.00000"></scales>
<clustering>
<clus scale="   61.794">  2  4  1 -1</clus>
<clus scale="   67.226">  2  5  1 -1</clus>
<clus scale="   67.874">  2  3  1 -1</clus>
<clus scale="   61.794">  2  3  1 -1</clus>
</clustering>
</event>
<event>
 6    0  0.3584505E+002  0.7337382E+02  0.7546771E-02  0.1348982E+00
         21   -1    0    0  505  502  0.00000000000E+00  0.00000000000E+00  0.55263443249E+03  0.55263443249E+03  0.00000000000E+00 0. -1.
          2   -1    0    0  504    0 -0.00000000000E+00 -0.00000000000E+00 -0.17338709836E+03  0.17338709836E+03  0.00000000000E+00 0. -1.
         21    1    1    2  503  501  0.40558420654E+02  0.38909733724E+02  0.30341107185E+02  0.63871242744E+02  0.00000000000E+00 0. -1.
         21    1    1    2  504  502  0.26056604484E+02 -0.12789778728E+03  0.84760814971E+02  0.15563157258E+03  0.00000000000E+00 0. -1.
         21    1    1    2  505  503 -0.35709525174E+02  0.27322056052E+02  0.37406036361E+03  0.37675299675E+03  0.00000000000E+00 0. -1.
          2    1    1    2  501    0 -0.30905499964E+02  0.61665997501E+02 -0.10991495164E+03  0.12976571878E+03  0.00000000000E+00 0. -1.
<scales pt_clust_3="55.65064" pt_clust_4="73.37382" pt_clust_5="44.96293" pt_clust_6="14000.00000"></scales>
<clustering>
<clus scale="   44.963">  1  5  2 -1</clus>
<clus scale="   55.651">  1  3  2 -1</clus>
<clus scale="   73.374">  1  4  2 -1</clus>
<clus scale="   44.963">  1  3  2 -1</clus>
</clustering>
</event>
<event>
 6    0  0.3584505E+002  0.9556696E+02  0.7546771E-02  0.1289904E+00
         21   -1    0    0  503  502  0.00000000000E+00  0.00000000000E+00  0.42226044695E+03  0.42226044695E+03  0.00000000000E+00 0.  1.
          1   -1    0    0  505    0 -0.00000000000E+00 -0.00000000000E+00 -0.36309366563E+03  0.36309366563E+03  0.00000000000E+00 0. -1.
         21    1    1    2  503  501 -0.48436450303E+02  0.97773791769E+02  0.32403665164E+03  0.34191454442E+03  0.00000000000E+00 0.  1.
         21    1    1    2  504  502 -0.31711693806E+02  0.35676045736E+02  0.31220757541E+02  0.57036369668E+02  0.00000000000E+00 0. -1.
         21    1    1    2  505  504  0.17841003727E+02 -0.61278618978E+02  0.11077748284E+02  0.64777210999E+02  0.00000000000E+00 0. -1.
          1    1    1    2  501    0  0.62307140382E+02 -0.72171218527E+02 -0.30716837615E+03  0.32162598749E+03  0.00000000000E+00 0. -1.
<scales pt_clust_3="95.56696" pt_clust_4="47.73271" pt_clust_5="59.53352" pt_clust_6="14000.00000"></scales>
<clustering>
<clus scale="   47.733">  1  4  2 -1</clus>
<clus scale="   59.534">  1  5  2 -1</clus>
<clus scale="   95.567">  1  3  2 -1</clus>
<clus scale="   47.733">  1  3  2 -1</clus>
</clustering>
</event>
<event>
 6    0  0.3584505E+002  0.7626030E+02  0.7546771E-02  0.1340012E+00
          1   -1    0    0  503    0 -0.00000000000E+00  0.00000000000E+00  0.93071667102E+03  0.93071667102E+03  0.00000000000E+00 0.  1.
         21   -1    0    0  501  502  0.00000000000E+00 -0.00000000000E+00 -0.65803727360E+03  0.65803727360E+03  0.00000000000E+00 0. -1.
         21    1    1    2  503  505 -0.20939530668E+02 -0.60124810976E+02  0.40149720498E+02  0.75269229408E+02  0.00000000000E+00 0.  1.
         21    1    1    2  504  502  0.55019065965E+02 -0.28726188983E+02 -0.51893800177E+03  0.52263652880E+03  0.00000000000E+00 0. -1.
         21    1    1    2  505  504  0.10152370510E+02  0.84029110685E+02 -0.10407597921E+03  0.13414831910E+03  0.00000000000E+00 0. -1.
          1    1    1    2  501    0 -0.44231905806E+02  0.48218892744E+01  0.85554365790E+03  0.85669986732E+03  0.00000000000E+00 0.  1.
<scales pt_clust_3="76.26030" pt_clust_4="61.04080" pt_clust_5="14000.00000" pt_clust_6="44.49396"></scales>
<clustering>
<clus scale="   44.494">  1  6  2 -1</clus>
<clus scale="   61.041">  2  4  1 -1</clus>
<clus scale="   76.260">  1  3  2 -1</clus>
<clus scale="   61.041">  2  3  1 -1</clus>
</clustering>
</event>
<event>
 6    0  0.3584505E+002  0.9627886E+02  0.7546771E-02  0.1288321E+00
          1   -1    0    0  503    0 -0.00000000000E+00  0.00000000000E+00  0.11171855989E+03  0.11171855989E+03  0.00000000000E+00 0.  1.
         21   -1    0    0  505  502  0.00000000000E+00 -0.00000000000E+00 -0.47966207092E+03  0.47966207092E+03  0.00000000000E+00 0. -1.
         21    1    1    2  503  504  0.54878046471E+02  0.67247026069E+01 -0.71631521079E+01  0.55750626523E+02  0.00000000000E+00 0.  1.
         21    1    1    2  504  502 -0.67583331374E+01  0.13593177215E+03 -0.32008950903E+03  0.34782239079E+03  0.00000000000E+00 0. -1.
         21    1    1    2  505  501 -0.31216607848E+02 -0.51211848463E+02 -0.68209491951E+02  0.90827665503E+02  0.00000000000E+00 0.  1.
          1    1    1    2  501    0 -0.16903105486E+02 -0.91444626294E+02  0.27518642055E+02  0.96979947997E+02  0.00000000000E+00 0.  1.
<scales pt_clust_3="55.28853" pt_clust_4="14000.00000" pt_clust_5="55.82093" pt_clust_6="96.27886"></scales>
<clustering>
<clus scale="   55.289">  1  3  2 -1</clus>
<clus scale="   55.821">  2  5  1 -1</clus>
<clus scale="   96.279">  1  6  2 -1</clus>
<clus scale="   55.821">  2  3  1 -1</clus>
</clustering>
</event>
<event>
 6    0  0.3584505E+002  0.1055126E+03  0.7546771E-02  0.1269113E+00
         21   -1    0    0  505  502  0.00000000000E+00  0.00000000000E+00  0.11084271339E+03  0.11084271339E+03  0.00000000000E+00 0.  1.
          1   -1    0    0  504    0 -0.00000000000E+00 -0.00000000000E+00 -0.13304668770E+04  0.13304668770E+04  0.00000000000E+00 0.  1.
         21    1    1    2  503  501 -0.99176675825E+02 -0.59152572671E+02 -0.71424740052E+02  0.13578119668E+03  0.00000000000E+00 0.  1.
         21    1    1    2  504  502  0.10267909405E+03  0.10597290624E+02 -0.90997994683E+02  0.13760789933E+03  0.00000000000E+00 0.  1.
         21    1    1    2  505  503 -0.33144472145E+02  0.12321528009E+02  0.49166985032E+02  0.60562104515E+02  0.00000000000E+00 0.  1.
          1    1    1    2  501    0  0.29642053925E+02  0.36233754038E+02 -0.11063684139E+04  0.11073583899E+04  0.00000000000E+00 0.  1.
<scales pt_clust_3="14000.00000" pt_clust_4="105.51263" pt_clust_5="35.36066" pt_clust_6="46.71354"></scales>
<clustering>
<clus scale="   35.361">  1  5  2 -1</clus>
<clus scale="   46.714">  2  6  1 -1</clus>
<clus scale="  105.513">  1  4  2 -1</clus>
<clus scale="   35.361">  1  3  2 -1</clus>
</clustering>
</event>
<event>
 6    0  0.3584505E+002  0.7462540E+02  0.7546771E-02  0.1345035E+00
          3   -1    0    0  504    0 -0.00000000000E+00  0.00000000000E+00  0.55741905329E+03  0.55741905329E+03  0.00000000000E+00 0.  1.
         21   -1    0    0  503  502  0.00000000000E+00 -0.00000000000E+00 -0.46555621364E+03  0.46555621364E+03  0.00000000000E+00 0.  1.
         21    1    1    2  503  501  0.86525995711E+02 -0.37234259629E+02  0.55032582341E+02  0.10909501887E+03  0.00000000000E+00 0. -1.
         21    1    1    2  504  505 -0.87050050171E+02 -0.23822236988E+01 -0.80337685993E+01  0.87452430854E+02  0.00000000000E+00 0. -1.
         21    1    1    2  505  502  0.30142257295E+02 -0.19659562854E+02 -0.38742341707E+03  0.38909119520E+03  0.00000000000E+00 0.  1.
          3    1    1    2  501    0 -0.29618202836E+02  0.59276046181E+02  0.43228744298E+03  0.43733662201E+03  0.00000000000E+00 0.  1.
<scales pt_clust_3="14000.00000" pt_clust_4="74.62540" pt_clust_5="35.98686" pt_clust_6="65.25208"></scales>
<clustering>
<clus scale="   35.987">  2  5  1 -1</clus>
<clus scale="   65.252">  1  6  2 -1</clus>
<clus scale="   74.625">  2  4  1 -1</clus>
<clus scale="   35.987">  2  3  1 -1</clus>
</clustering>
</event>
<event>
 6    0  0.4190823E+002  0.1384276E+03  0.7546771E-02  0.1215460E+00
          2   -1    0    0  504    0 -0.00000000000E+00  0.00000000000E+00  0.19094774382E+04  0.19094774382E+04  0.00000000000E+00 0.  1.
         21   -1    0    0  501  502  0.00000000000E+00 -0.00000000000E+00 -0.62180326909E+03  0.62180326909E+03  0.00000000000E+00 0. -1.
         21    1    1    2  503  505  0.43886349426E+02  0.60237095264E+02 -0.14492156893E+03  0.16296251242E+03  0.00000000000E+00 0.  1.
         21    1    1    2  504  503 -0.11515432805E+03 -0.96691845978E+02  0.56748778320E+03  0.58707087854E+03  0.00000000000E+00 0.  1.
         21    1    1    2  505  502  0.40965813990E+02  0.53959114385E+02 -0.45533163449E+03  0.46034409012E+03  0.00000000000E+00 0. -1.
          2    1    1    2  501    0  0.30302164634E+02 -0.17504363671E+02  0.13204395893E+04  0.13209032262E+04  0.00000000000E+00 0.  1.
<scales pt_clust_3="138.42763" pt_clust_4="14000.00000" pt_clust_5="67.76675" pt_clust_6="34.99463"></scales>
<clustering>
<clus scale="   34.995">  1  6  2 -1</clus>
<clus scale="   67.767">  2  5  1 -1</clus>
<clus scale="  138.428">  2  3  1 -1</clus>
<clus scale="   67.767">  2  3  1 -1</clus>
</clustering>
</event>
<event>
 6    0  0.3584505E+002  0.1003029E+03  0.7546771E-02  0.1279660E+00
         21   -1    0    0  503  502  0.00000000000E+00  0.00000000000E+00  0.11230683542E+03  0.11230683542E+03  0.00000000000E+00 0. -1.
          1   -1    0    0  505    0 -0.00000000000E+00 -0.00000000000E+00 -0.92557145281E+03  0.92557145281E+03  0.00000000000E+00 0. -1.
         21    1    1    2  503  501 -0.54147242919E+02 -0.24786179311E+02 -0.14155979033E+02  0.61210050996E+02  0.00000000000E+00 0. -1.
         21    1    1    2  504  502  0.82239118134E+01  0.60303368792E+02  0.57923309444E+02  0.84019276301E+02  0.00000000000E+00 0. -1.
         21    1    1    2  505  504  0.13617832426E+03 -0.25720085355E+02 -0.33101350879E+03  0.35885373314E+03  0.00000000000E+00 0. -1.
          1    1    1    2  501    0 -0.90254993154E+02 -0.97971041264E+01 -0.52601843902E+03  0.53379522780E+03  0.00000000000E+00 0. -1.
<scales pt_clust_3="59.55064" pt_clust_4="53.56024" pt_clust_5="14000.00000" pt_clust_6="100.30290"></scales>
<clustering>
<clus scale="   59.551">  1  3  2 -1</clus>
<clus scale="   53.560">  1  4  2 -1</clus>
<clus scale="  100.303">  2  6  1 -1</clus>
<clus scale="   59.551">  1  3  2 -1</clus>
</clustering>
</event>
<event>
 6    0  0.3584505E+002  0.1975400E+03  0.7546771E-02  0.1151831E+00
          2   -1    0    0  505    0 -0.00000000000E+00  0.00000000000E+00  0.32480860585E+04  0.32480860585E+04  0.00000000000E+00 0. -1.
         21   -1    0    0  503  502  0.00000000000E+00 -0.00000000000E+00 -0.15793300254E+03  0.15793300254E+03  0.00000000000E+00 0. -1.
         21    1    1    2  503  504  0.72562173815E+02 -0.26539606704E+01 -0.90430115281E+02  0.11597378292E+03  0.00000000000E+00 0. -1.
         21    1    1    2  504  501  0.71893252054E+02  0.10361178691E+03  0.89558259017E+02  0.15467619027E+03  0.00000000000E+00 0. -1.
         21    1    1    2  505  502  0.56889568934E+02 -0.46917175583E+02  0.54495592409E+02  0.91691951720E+02  0.00000000000E+00 0. -1.
          2    1    1    2  501    0 -0.20134499480E+03 -0.54040650655E+02  0.30365293198E+04  0.30436771361E+04  0.00000000000E+00 0. -1.
<scales pt_clust_3="72.61069" pt_clust_4="14000.00000" pt_clust_5="94.53340" pt_clust_6="197.53996"></scales>
<clustering>
<clus scale="   72.611">  2  3  1 -1</clus>
<clus scale="   94.533">  2  5  1 -1</clus>
<clus scale="  197.540">  1  6  2 -1</clus>
<clus scale="   72.611">  2  3  1 -1</clus>
</clustering>
</event>
<event>
 6    0  0.3584505E+002  0.6499111E+02  0.7546771E-02  0.1378005E+00
          2   -1    0    0  505    0 -0.00000000000E+00  0.00000000000E+00  0.71775043798E+03  0.71775043798E+03  0.00000000000E+00 0. -1.
         21   -1    0    0  501  502  0.00000000000E+00 -0.00000000000E+00 -0.74935954573E+03  0.74935954573E+03  0.00000000000E+00 0.  1.
         21    1    1    2  503  504  0.49567701403E+02  0.36994426093E+02 -0.17441993255E+03  0.18506176659E+03  0.00000000000E+00 0.  1.
         21    1    1    2  504  502  0.13356277737E+02 -0.40892470773E+02 -0.54985268924E+03  0.55153292212E+03  0.00000000000E+00 0.  1.
         21    1    1    2  505  503 -0.57657106088E+02  0.68522335068E+02  0.99686357634E+02  0.13400381406E+03  0.00000000000E+00 0.  1.
          2    1    1    2  501    0 -0.52668730523E+01 -0.64624290388E+02  0.59297715640E+03  0.59651148092E+03  0.00000000000E+00 0. -1.
<scales pt_clust_3="61.65160" pt_clust_4="43.01842" pt_clust_5="14000.00000" pt_clust_6="64.99111"></scales>
<clustering>
<clus scale="   43.018">  2  4  1 -1</clus>
<clus scale="   61.652">  2  3  1 -1</clus>
<clus scale="   64.991">  1  6  2 -1</clus>
<clus scale="   43.018">  2  3  1 -1</clus>
</clustering>
</event>
<event>
 6    0  0.3584505E+002  0.2521646E+03  0.7546771E-02  0.1111944E+00
          1   -1    0    0  503    0 -0.00000000000E+00  0.00000000000E+00  0.20588256985E+04  0.20588256985E+04  0.00000000000E+00 0.  1.
         21   -1    0    0  504  502  0.00000000000E+00 -0.00000000000E+00 -0.33138100996E+03  0.33138100996E+03  0.00000000000E+00 0. -1.
         21    1    1    2  503  505 -0.18554964901E+02  0.54383524505E+02  0.48957339876E+03  0.49293403944E+03  0.00000000000E+00 0.  1.
         21    1    1    2  504  501 -0.16609389148E+03 -0.12618876923E+03  0.23870682475E+03  0.31700431298E+03  0.00000000000E+00 0.  1.
         21    1    1    2  505  502  0.22959959798E+03  0.12592629034E+03 -0.23033870608E+03  0.34875396128E+03  0.00000000000E+00 0. -1.
          1    1    1    2  501    0 -0.44950741591E+02 -0.54121045619E+02  0.12295031711E+04  0.12315143948E+04  0.00000000000E+00 0.  1.
<scales pt_clust_3="57.46177" pt_clust_4="252.16459" pt_clust_5="14000.00000" pt_clust_6="60.60382"></scales>
<clustering>
<clus scale="   57.462">  1  3  2 -1</clus>
<clus scale="   60.604">  1  6  2 -1</clus>
<clus scale="  252.165">  1  4  2 -1</clus>
<clus scale="  252.165">  2  3  1 -1</clus>
</clustering>
</event>
<event>
 6    0  0.3584505E+002  0.1432749E+03  0.7546771E-02  0.1208989E+00
         21   -1    0    0  504  502  0.00000000000E+00  0.00000000000E+00  0.14767122231E+03  0.14767122231E+03  0.00000000000E+00 0.  1.
          2   -1    0    0  503    0 -0.00000000000E+00 -0.00000000000E+00 -0.41181911306E+03  0.41181911306E+03  0.00000000000E+00 0.  1.
         21    1    1    2  503  505 -0.10786471967E+03  0.12043319838E+03 -0.83091804758E+02  0.18177788931E+03  0.00000000000E+00 0.  1.
         21    1    1    2  504  501  0.58801611305E+02 -0.71183706079E+02  0.25925717758E+02  0.95900429323E+02  0.00000000000E+00 0.  1.
         21    1    1    2  505  502  0.71723210947E+00  0.43634887982E+02  0.64136684100E+01  0.44109556942E+02  0.00000000000E+00 0. -1.
          2    1    1    2  501    0  0.48345876259E+02 -0.92884380286E+02 -0.21339547216E+03  0.23770245979E+03  0.00000000000E+00 0.  1.
<scales pt_clust_3="42.67458" pt_clust_4="92.32957" pt_clust_5="42.67458" pt_clust_6="117.39263"></scales>
<clustering>
<clus scale="   42.675">  3  5 -1 -1</clus>
<clus scale="   92.330">  1  4  2 -1</clus>
<clus scale="  117.393">  2  6  1 -1</clus>
<clus scale="   92.330">  1  3  2 -1</clus>
</clustering>
</event>
<event>
 6    0  0.3584505E+002  0.8273706E+02  0.7546771E-02  0.1321459E+00
         21   -1    0    0  504  502  0.00000000000E+00  0.00000000000E+00  0.69468225007E+03  0.69468225007E+03  0.00000000000E+00 0. -1.
          1   -1    0    0  503    0 -0.00000000000E+00 -0.00000000000E+00 -0.26569125241E+03  0.26569125241E+03  0.00000000000E+00 0.  1.
         21    1    1    2  503  502 -0.48964958824E+02 -0.35965418725E+02  0.26605156878E+02  0.66324301046E+02  0.00000000000E+00 0. -1.
         21    1    1    2  504  505  0.27630581200E+02  0.44432576128E+02  0.47187445470E+03  0.47476647295E+03  0.00000000000E+00 0. -1.
         21    1    1    2  505  501  0.66706516506E+02  0.60479585046E+02  0.15546930178E+03  0.17966146874E+03  0.00000000000E+00 0. -1.
          1    1    1    2  501    0 -0.45372138882E+02 -0.68946742450E+02 -0.22495791570E+03  0.23962125974E+03  0.00000000000E+00 0.  1.
<scales pt_clust_3="50.72338" pt_clust_4="52.32306" pt_clust_5="82.73706" pt_clust_6="14000.00000"></scales>
<clustering>
<clus scale="   52.323">  1  4  2 -1</clus>
<clus scale="   50.723">  1  3  2 -1</clus>
<clus scale="   82.737">  1  5  2 -1</clus>
<clus scale="   52.323">  1  3  2 -1</clus>
</clustering>
</event>
<event>
 6    0  0.3584505E+002  0.2736300E+03  0.7546771E-02  0.1099220E+00
          2   -1    0    0  504    0 -0.00000000000E+00  0.00000000000E+00  0.26581349623E+04  0.26581349623E+04  0.00000000000E+00 0. -1.
         21   -1    0    0  503  502  0.00000000000E+00 -0.00000000000E+00 -0.50131540911E+03  0.50131540911E+03  0.00000000000E+00 0.  1.
         21    1    1    2  503  505  0.31936114832E+02 -0.51902965638E+02 -0.94655981972E+02  0.11257703227E+03  0.00000000000E+00 0. -1.
         21    1    1    2  504  502 -0.48483953445E+02  0.30296562807E+03 -0.20480631102E+03  0.36889631412E+03  0.00000000000E+00 0.  1.
         21    1    1    2  505  501  0.59921342955E+02 -0.27262119087E+03  0.65508162390E+02  0.28671274892E+03  0.00000000000E+00 0. -1.
          2    1    1    2  501    0 -0.43373504342E+02  0.21558528434E+02  0.23907736838E+04  0.23912642761E+04  0.00000000000E+00 0. -1.
<scales pt_clust_3="59.56903" pt_clust_4="273.62999" pt_clust_5="14000.00000" pt_clust_6="48.43584"></scales>
<clustering>
<clus scale="   48.436">  1  6  2 -1</clus>
<clus scale="   59.569">  2  3  1 -1</clus>
<clus scale="  273.630">  2  4  1 -1</clus>
<clus scale="   59.569">  2  3  1 -1</clus>
</clustering>
</event>
<event>
 6    0  0.3584505E+002  0.8566629E+02  0.7546771E-02  0.1313699E+00
         21   -1    0    0  503  502  0.00000000000E+00  0.00000000000E+00  0.12819320675E+02  0.12819320675E+02  0.00000000000E+00 0.  1.
          2   -1    0    0  504    0 -0.00000000000E+00 -0.00000000000E+00 -0.31295711870E+04  0.31295711870E+04  0.00000000000E+00 0.  1.
         21    1    1    2  503  505 -0.72911663080E+01 -0.44013581021E+02 -0.85613413192E+02  0.96540214102E+02  0.00000000000E+00 0.  1.
         21    1    1    2  504  502  0.14622429682E+02  0.79735490163E+02 -0.10044596384E+04  0.10077255226E+04  0.00000000000E+00 0.  1.
         21    1    1    2  505  501  0.41899603285E+02  0.41361600276E+02 -0.18427107261E+03  0.19344815050E+03  0.00000000000E+00 0.  1.
          2    1    1    2  501    0 -0.49230866659E+02 -0.77083509418E+02 -0.18424077422E+04  0.18446766205E+04  0.00000000000E+00 0.  1.
<scales pt_clust_3="44.61341" pt_clust_4="14000.00000" pt_clust_5="39.85624" pt_clust_6="85.66629"></scales>
<clustering>
<clus scale="   44.613">  1  3  2 -1</clus>
<clus scale="   39.856">  1  5  2 -1</clus>
<clus scale="   85.666">  2  6  1 -1</clus>
<clus scale="   44.613">  1  3  2 -1</clus>
</clustering>
</event>
<event>
 6    0  0.3584505E+002  0.2007427E+03  0.7546771E-02  0.1149114E+00
          1   -1    0    0  503    0 -0.00000000000E+00  0.00000000000E+00  0.39298636985E+03  0.39298636985E+03  0.00000000000E+00 0. -1.
         21   -1    0    0  504  502  0.00000000000E+00 -0.00000000000E+00 -0.55775556112E+03  0.55775556112E+03  0.00000000000E+00 0.  1.
         21    1    1    2  503  505  0.44979947927E+02 -0.14770386128E+02  0.20017363729E+03  0.20569600163E+03  0.00000000000E+00 0. -1.
         21    1    1    2  504  501 -0.28371506493E+03  0.83737889771E+02 -0.31442340316E+03  0.43170400589E+03  0.00000000000E+00 0.  1.
         21    1    1    2  505  502  0.11311638975E+03  0.28108154612E+02 -0.92872687690E+02  0.14903262094E+03  0.00000000000E+00 0.  1.
          1    1    1    2  501    0  0.12561872725E+03 -0.97075658256E+02  0.42353262292E+02  0.16430930250E+03  0.00000000000E+00 0. -1.
<scales pt_clust_3="47.34300" pt_clust_4="14000.00000" pt_clust_5="122.53620" pt_clust_6="200.74273"></scales>
<clustering>
<clus scale="   47.343">  1  3  2 -1</clus>
<clus scale="  122.536">  2  5  1 -1</clus>
<clus scale="  200.743">  1  6  2 -1</clus>
<clus scale="  122.536">  2  3  1 -1</clus>
</clustering>
</event>
<event>
 6    0  0.3584505E+002  0.1520776E+03  0.7546771E-02  0.1197943E+00
          2   -1    0    0  503    0 -0.00000000000E+00  0.00000000000E+00  0.25884161372E+04  0.25884161372E+04  0.00000000000E+00 0.  1.
         21   -1    0    0  505  502  0.00000000000E+00 -0.00000000000E+00 -0.32605615638E+02  0.32605615638E+02  0.00000000000E+00 0.  1.
         21    1    1    2  503  504 -0.13108936352E+02 -0.83310670716E+02  0.64872558076E+03  0.65418452382E+03  0.00000000000E+00 0. -1.
         21    1    1    2  504  502  0.28046135059E+02 -0.12074700814E+03  0.14310237231E+03  0.18932700448E+03  0.00000000000E+00 0.  1.
         21    1    1    2  505  501  0.20966544756E+02  0.34491582508E+02  0.20609654596E+03  0.21001202708E+03  0.00000000000E+00 0.  1.
          2    1    1    2  501    0 -0.35903743463E+02  0.16956609635E+03  0.15578860225E+04  0.15674981975E+04  0.00000000000E+00 0.  1.
<scales pt_clust_3="84.33571" pt_clust_4="130.69873" pt_clust_5="37.52154" pt_clust_6="37.52154"></scales>
<clustering>
<clus scale="   37.522">  5  6 -1 -1</clus>
<clus scale="   84.336">  1  3  2 -1</clus>
<clus scale="  130.699">  2  4  1 -1</clus>
<clus scale="  130.699">  2  3  1 -1</clus>
</clustering>
</event>
<event>
 6    0  0.3584505E+002  0.1573357E+03  0.7546771E-02  0.1191738E+00
          1   -1    0    0  504    0 -0.00000000000E+00  0.00000000000E+00  0.20384668827E+04  0.20384668827E+04  0.00000000000E+00 0. -1.
         21   -1    0    0  503  502  0.00000000000E+00 -0.00000000000E+00 -0.41078059935E+03  0.41078059935E+03  0.00000000000E+00 0. -1.
         21    1    1    2  503  501 -0.56821042948E+02 -0.23536812878E+02 -0.23054165074E+03  0.23860441154E+03  0.00000000000E+00 0. -1.
         21    1    1    2  504  505 -0.13568761639E+02 -0.95156656059E+02  0.67309941754E+03  0.67992773614E+03  0.00000000000E+00 0. -1.
         21    1    1    2  505  502  0.19110147281E+02  0.18074941888E+03 -0.12341552617E+03  0.21969738791E+03  0.00000000000E+00 0. -1.
          1    1    1    2  501    0  0.51279657306E+02 -0.62055949941E+02  0.13085440427E+04  0.13110179464E+04  0.00000000000E+00 0. -1.
<scales pt_clust_3="61.50295" pt_clust_4="157.33566" pt_clust_5="14000.00000" pt_clust_6="80.37617"></scales>
<clustering>
<clus scale="   61.503">  2  3  1 -1</clus>
<clus scale="   80.376">  1  6  2 -1</clus>
<clus scale="  157.336">  1  4  2 -1</clus>
<clus scale="   61.503">  2  3  1 -1</clus>
</clustering>
</event>
<event>
 6    0  0.3700481E+002  0.7179920E+02  0.7546771E-02  0.1354079E+00
          2   -1    0    0  504    0 -0.00000000000E+00  0.00000000000E+00  0.21864593625E+04  0.21864593625E+04  0.00000000000E+00 0.  1.
         21   -1    0    0  505  502  0.00000000000E+00 -0.00000000000E+00 -0.27354553142E+03  0.27354553142E+03  0.00000000000E+00 0. -1.
         21    1    1    2  503  502  0.75474868540E+02  0.45009682931E+02  0.13165983890E+03  0.15829289472E+03  0.00000000000E+00 0.  1.
         21    1    1    2  504  503 -0.44965754102E+02 -0.24815845595E+02  0.16893750348E+03  0.17657187012E+03  0.00000000000E+00 0. -1.
         21    1    1    2  505  501 -0.70238161863E+02  0.16094641651E+02 -0.25095316245E+03  0.26109371233E+03  0.00000000000E+00 0. -1.
          2    1    1    2  501    0  0.39729047425E+02 -0.36288478988E+02  0.18632696512E+04  0.18640464168E+04  0.00000000000E+00 0.  1.
<scales pt_clust_3="71.79920" pt_clust_4="51.35898" pt_clust_5="14000.00000" pt_clust_6="59.28524"></scales>
<clustering>
<clus scale="   51.359">  1  4  2 -1</clus>
<clus scale="   59.285">  1  6  2 -1</clus>
<clus scale="   71.799">  1  3  2 -1</clus>
<clus scale="   71.799">  2  3  1 -1</clus>
</clustering>
</event>
<event>
 6    0  0.3584505E+002  0.1270721E+03  0.7546771E-02  0.1231866E+00
          2   -1    0    0  505    0 -0.00000000000E+00  0.00000000000E+00  0.10153701900E+04  0.10153701900E+04  0.00000000000E+00 0.  1.
         21   -1    0    0  504  502  0.00000000000E+00 -0.00000000000E+00 -0.11764175655E+04  0.11764175655E+04  0.00000000000E+00 0.  1.
         21    1    1    2  503  501  0.63136565172E+02 -0.99533494528E+02  0.34650367278E+02  0.12285678796E+03  0.00000000000E+00 0.  1.
         21    1    1    2  504  503  0.36047933865E+02 -0.96480383808E+01 -0.10577235534E+04  0.10583816200E+04  0.00000000000E+00 0.  1.
         21    1    1    2  505  502 -0.69537639868E+02  0.12497022134E+03 -0.47790383246E+01  0.14309395092E+03  0.00000000000E+00 0.  1.
          2    1    1    2  501    0 -0.29646859169E+02 -0.15788688436E+02  0.86680484892E+03  0.86745539658E+03  0.00000000000E+00 0.  1.
<scales pt_clust_3="14000.00000" pt_clust_4="37.26226" pt_clust_5="127.07213" pt_clust_6="33.58897"></scales>
<clustering>
<clus scale="   33.589">  1  6  2 -1</clus>
<clus scale="   37.262">  2  4  1 -1</clus>
<clus scale="  127.072">  2  5  1 -1</clus>
<clus scale="   37.262">  2  3  1 -1</clus>
</clustering>
</event>
<event>
 6    0  0.3584505E+002  0.9542113E+02  0.7546771E-02  0.1290230E+00
         21   -1    0    0  505  502  0.00000000000E+00  0.00000000000E+00  0.37179177782E+03  0.37179177782E+03  0.00000000000E+00 0.  1.
          1   -1    0    0  502    0 -0.00000000000E+00 -0.00000000000E+00 -0.49786193123E+03  0.49786193123E+03  0.00000000000E+00 0. -1.
         21    1    1    2  503  501 -0.68308306085E+02  0.18047985892E+02 -0.57211201433E+02  0.90911363670E+02  0.00000000000E+00 0. -1.
         21    1    1    2  504  503 -0.42264352112E+02  0.25248973489E+02  0.78130782817E+02  0.92348282849E+02  0.00000000000E+00 0.  1.
         21    1    1    2  505  504  0.31930421966E+02  0.32036223997E+02  0.26060530682E+03  0.26450141292E+03  0.00000000000E+00 0.  1.
          1    1    1    2  501    0  0.78642236231E+02 -0.75333183377E+02 -0.40759504162E+03  0.42189264960E+03  0.00000000000E+00 0. -1.
<scales pt_clust_3="14000.00000" pt_clust_4="53.15778" pt_clust_5="45.23131" pt_clust_6="95.42113"></scales>
<clustering>
<clus scale="   45.231">  1  5  2 -1</clus>
<clus scale="   53.158">  1  4  2 -1</clus>
<clus scale="   95.421">  2  6  1 -1</clus>
<clus scale="   45.231">  1  3  2 -1</clus>
</clustering>
</event>
<event>
 6    0  0.3584505E+002  0.1529853E+03  0.7546771E-02  0.1196852E+00
          2   -1    0    0  505    0 -0.00000000000E+00  0.00000000000E+00  0.13705454816E+04  0.13705454816E+04  0.00000000000E+00 0.  1.
         21   -1    0    0  503  502  0.00000000000E+00 -0.00000000000E+00 -0.33931963761E+02  0.33931963761E+02  0.00000000000E+00 0.  1.
         21    1    1    2  503  504 -0.14731278137E+02 -0.83995749179E+02  0.12132179923E+03  0.14829455622E+03  0.00000000000E+00 0.  1.
         21    1    1    2  504  501 -0.19085750306E+02  0.26345430035E+02  0.87510057834E+02  0.93361436207E+02  0.00000000000E+00 0. -1.
         21    1    1    2  505  502  0.14192789077E+03  0.63628141636E+01  0.38324849669E+03  0.40873392543E+03  0.00000000000E+00 0.  1.
          2    1    1    2  501    0 -0.10811086232E+03  0.51287504981E+02  0.74453316406E+03  0.75408752749E+03  0.00000000000E+00 0.  1.
<scales pt_clust_3="85.27776" pt_clust_4="31.57888" pt_clust_5="140.48672" pt_clust_6="31.57888"></scales>
<clustering>
<clus scale="   31.579">  4  6 -1 -1</clus>
<clus scale="   85.278">  2  3  1 -1</clus>
<clus scale="  140.487">  2  5  1 -1</clus>
<clus scale="   85.278">  2  3  1 -1</clus>
</clustering>
</event>
<event>
 6    0  0.3584505E+002  0.8963613E+02  0.7546771E-02  0.1303735E+00
         21   -1    0    0  505  502  0.00000000000E+00  0.00000000000E+00  0.42005110341E+03  0.42005110341E+03  0.00000000000E+00 0.  1.
          1   -1    0    0  504    0 -0.00000000000E+00 -0.00000000000E+00 -0.10737889632E+04  0.10737889632E+04  0.00000000000E+00 0.  1.
         21    1    1    2  503  502 -0.42550862846E+02 -0.92852739075E+01  0.19181376162E+03  0.19669598722E+03  0.00000000000E+00 0.  1.
         21    1    1    2  504  503 -0.22310407991E+02  0.57078301589E+02  0.20265157813E+03  0.21171525438E+03  0.00000000000E+00 0. -1.
         21    1    1    2  505  501  0.43581055400E+02  0.39566387766E+02 -0.35494046417E+02  0.68735978655E+02  0.00000000000E+00 0. -1.
          1    1    1    2  501    0  0.21280215438E+02 -0.87359415447E+02 -0.10127091531E+04  0.10166928463E+04  0.00000000000E+00 0.  1.
<scales pt_clust_3="43.55218" pt_clust_4="14000.00000" pt_clust_5="56.10695" pt_clust_6="89.63613"></scales>
<clustering>
<clus scale="   43.552">  1  3  2 -1</clus>
<clus scale="   56.107">  1  5  2 -1</clus>
<clus scale="   89.636">  2  6  1 -1</clus>
<clus scale="   43.552">  1  3  2 -1</clus>
</clustering>
</event>
<event>
 6    0  0.3584505E+002  0.1124550E+03  0.7546771E-02  0.1256090E+00
          1   -1    0    0  502    0 -0.00000000000E+00  0.00000000000E+00  0.25175715212E+04  0.25175715212E+04  0.00000000000E+00 0.  1.
         21   -1    0    0  505  502  0.00000000000E+00 -0.00000000000E+00 -0.30454017250E+03  0.30454017250E+03  0.00000000000E+00 0. -1.
         21    1    1    2  503  501 -0.83832829960E+02 -0.54540026001E+02  0.84740977594E+02  0.13108619721E+03  0.00000000000E+00 0.  1.
         21    1    1    2  504  503 -0.56873339887E+02 -0.34917978978E+01  0.11021341034E+03  0.12407161344E+03  0.00000000000E+00 0.  1.
         21    1    1    2  505  504  0.91538475539E+02 -0.79820305799E+01 -0.26598512134E+03  0.28140911515E+03  0.00000000000E+00 0. -1.
          1    1    1    2  501    0  0.49167694308E+02  0.66013854479E+02  0.22840620821E+04  0.22855447679E+04  0.00000000000E+00 0.  1.
<scales pt_clust_3="47.33285" pt_clust_4="47.33285" pt_clust_5="93.34753" pt_clust_6="82.31216"></scales>
<clustering>
<clus scale="   47.333">  3  4 -1 -1</clus>
<clus scale="   82.312">  1  6  2 -1</clus>
<clus scale="   93.348">  2  5  1 -1</clus>
<clus scale="   93.348">  2  3  1 -1</clus>
</clustering>
</event>
<event>
 6    0  0.3584505E+002  0.1747717E+03  0.7546771E-02  0.1172961E+00
          2   -1    0    0  505    0 -0.00000000000E+00  0.00000000000E+00  0.39658681154E+03  0.39658681154E+03  0.00000000000E+00 0. -1.
         21   -1    0    0  504  502  0.00000000000E+00 -0.00000000000E+00 -0.36863574766E+03  0.36863574766E+03  0.00000000000E+00 0. -1.
         21    1    1    2  503  501 -0.53678968480E+02 -0.36864798090E+02  0.85801990387E+02  0.10771456053E+03  0.00000000000E+00 0. -1.
         21    1    1    2  504  503  0.10239267675E+02  0.17477252212E+03 -0.21725106774E+03  0.27901308845E+03  0.00000000000E+00 0. -1.
         21    1    1    2  505  502  0.38078209556E+02 -0.17461590657E+03 -0.33695260544E+02  0.18186818153E+03  0.00000000000E+00 0. -1.
          2    1    1    2  501    0  0.53614912495E+01  0.36708182540E+02  0.19309540177E+03  0.19662672870E+03  0.00000000000E+00 0. -1.
<scales pt_clust_3="54.61514" pt_clust_4="174.77167" pt_clust_5="14000.00000" pt_clust_6="37.09766"></scales>
<clustering>
<clus scale="   37.098">  1  6  2 -1</clus>
<clus scale="   54.615">  1  3  2 -1</clus>
<clus scale="  174.772">  2  4  1 -1</clus>
<clus scale="  174.772">  2  3  1 -1</clus>
</clustering>
</event>
<event>
 6    0  0.3584505E+002  0.1328593E+03  0.7546771E-02  0.1223274E+00
         21   -1    0    0  505  502  0.00000000000E+00  0.00000000000E+00  0.89956684032E+03  0.89956684032E+03  0.00000000000E+00 0.  1.
          2   -1    0    0  504    0 -0.00000000000E+00 -0.00000000000E+00 -0.46232354736E+03  0.46232354736E+03  0.00000000000E+00 0. -1.
         21    1    1    2  503  501 -0.89700686703E+02 -0.13215186069E+02  0.21637108998E+03  0.23460030460E+03  0.00000000000E+00 0. -1.
         21    1    1    2  504  502  0.36691934690E+02 -0.22896261718E+02 -0.21678121791E+02  0.48378485263E+02  0.00000000000E+00 0. -1.
         21    1    1    2  505  503 -0.48897196559E+02  0.20030778470E+02  0.65328499311E+03  0.65541853052E+03  0.00000000000E+00 0.  1.
          2    1    1    2  501    0  0.10190594857E+03  0.16080669316E+02 -0.41073466834E+03  0.42349306731E+03  0.00000000000E+00 0. -1.
<scales pt_clust_3="132.85925" pt_clust_4="43.24970" pt_clust_5="52.73454" pt_clust_6="14000.00000"></scales>
<clustering>
<clus scale="   43.250">  2  4  1 -1</clus>
<clus scale="   52.735">  1  5  2 -1</clus>
<clus scale="  132.859">  1  3  2 -1</clus>
<clus scale="   52.735">  1  3  2 -1</clus>
</clustering>
</event>
<event>
 6    0  0.3584505E+002  0.6891697E+02  0.7546771E-02  0.1363815E+00
          1   -1    0    0  503    0 -0.00000000000E+00  0.00000000000E+00  0.77738036895E+03  0.77738036895E+03  0.00000000000E+00 0. -1.
         21   -1    0    0  505  502  0.00000000000E+00 -0.00000000000E+00 -0.15396678077E+03  0.15396678077E+03  0.00000000000E+00 0. -1.
         21    1    1    2  503  502  0.49825349137E+02 -0.48371466743E+02 -0.33110056099E+02  0.76932698031E+02  0.00000000000E+00 0. -1.
         21    1    1    2  504  501 -0.67130934493E+02  0.27519700409E+02 -0.66971679092E+01  0.72861157927E+02  0.00000000000E+00 0. -1.
         21    1    1    2  505  504  0.66004045941E+02  0.14457885491E+02 -0.38732938789E+02  0.77883278569E+02  0.00000000000E+00 0. -1.
          1    1    1    2  501    0 -0.48698460585E+02  0.63938808440E+01  0.70195375097E+03  0.70367001519E+03  0.00000000000E+00 0. -1.
<scales pt_clust_3="68.91697" pt_clust_4="14000.00000" pt_clust_5="55.61258" pt_clust_6="49.11641"></scales>
<clustering>
<clus scale="   49.116">  1  6  2 -1</clus>
<clus scale="   55.613">  2  5  1 -1</clus>
<clus scale="   68.917">  1  3  2 -1</clus>
<clus scale="   55.613">  2  3  1 -1</clus>
</clustering>
</event>
<event>
 6    0  0.3584505E+002  0.8423104E+02  0.7546771E-02  0.1317456E+00
         21   -1    0    0  503  502  0.00000000000E+00  0.00000000000E+00  0.98421285483E+03  0.98421285483E+03  0.00000000000E+00 0.  1.
          1   -1    0    0  504    0 -0.00000000000E+00 -0.00000000000E+00 -0.90633203278E+03  0.90633203278E+03  0.00000000000E+00 0. -1.
         21    1    1    2  503  505 -0.16931214383E+02 -0.87917613326E+02  0.20419207883E+03  0.22295869081E+03  0.00000000000E+00 0.  1.
         21    1    1    2  504  502  0.41835350265E+02  0.72708372163E+02  0.76278462822E+03  0.76738327644E+03  0.00000000000E+00 0.  1.
         21    1    1    2  505  501 -0.55149323296E+02  0.85178773774E+01 -0.14356722324E+03  0.15403100234E+03  0.00000000000E+00 0.  1.
          1    1    1    2  501    0  0.30245187414E+02  0.66913637860E+01 -0.74552866177E+03  0.74617191801E+03  0.00000000000E+00 0. -1.
<scales pt_clust_3="84.23104" pt_clust_4="14000.00000" pt_clust_5="30.84592" pt_clust_6="30.97653"></scales>
<clustering>
<clus scale="   30.977">  2  6  1 -1</clus>
<clus scale="   30.846">  2  5  1 -1</clus>
<clus scale="   84.231">  2  3  1 -1</clus>
<clus scale="   84.231">  1  3  2 -1</clus>
</clustering>
</event>
<event>
 6    0  0.3584505E+002  0.1002806E+03  0.7546771E-02  0.1279707E+00
         21   -1    0    0  504  502  0.00000000000E+00  0.00000000000E+00  0.47164737186E+02  0.47164737186E+02  0.00000000000E+00 0. -1.
          2   -1    0    0  505    0 -0.00000000000E+00 -0.00000000000E+00 -0.17310515362E+04  0.17310515362E+04  0.00000000000E+00 0. -1.
         21    1    1    2  503  502  0.36311604464E+02 -0.90417911618E+01  0.10214354291E+02  0.38789426907E+02  0.00000000000E+00 0. -1.
         21    1    1    2  504  501 -0.13701148102E+03  0.78549374987E+01 -0.22819335343E+03  0.26628190424E+03  0.00000000000E+00 0. -1.
         21    1    1    2  505  503  0.48121140322E+02 -0.20365071432E+02 -0.22707247120E+03  0.23300705452E+03  0.00000000000E+00 0.  1.
          2    1    1    2  501    0  0.52578736237E+02  0.21551925095E+02 -0.12388353287E+04  0.12401378878E+04  0.00000000000E+00 0. -1.
<scales pt_clust_3="37.42040" pt_clust_4="14000.00000" pt_clust_5="57.09793" pt_clust_6="100.28058"></scales>
<clustering>
<clus scale="   37.420">  1  3  2 -1</clus>
<clus scale="   57.098">  2  5  1 -1</clus>
<clus scale="  100.281">  2  6  1 -1</clus>
<clus scale="   37.420">  1  3  2 -1</clus>
</clustering>
</event>
<event>
 6    0  0.3584505E+002  0.5749905E+02  0.7546771E-02  0.1408637E+00
         21   -1    0    0  505  502  0.00000000000E+00  0.00000000000E+00  0.13288870047E+03  0.13288870047E+03  0.00000000000E+00 0.  1.
          2   -1    0    0  504    0 -0.00000000000E+00 -0.00000000000E+00 -0.28863842250E+04  0.28863842250E+04  0.00000000000E+00 0. -1.
         21    1    1    2  503  502 -0.35722430735E+02  0.36237699215E+01  0.11326382709E+03  0.11881884654E+03  0.00000000000E+00 0.  1.
         21    1    1    2  504  503  0.76446606590E+02  0.93066888800E+02 -0.23855179402E+03  0.26723115066E+03  0.00000000000E+00 0.  1.
         21    1    1    2  505  501 -0.29389156033E+02 -0.41522126179E+02 -0.29628802000E+03  0.30062335281E+03  0.00000000000E+00 0.  1.
          2    1    1    2  501    0 -0.11335019822E+02 -0.55168532543E+02 -0.23319195376E+04  0.23325995754E+04  0.00000000000E+00 0. -1.
<scales pt_clust_3="35.90576" pt_clust_4="14000.00000" pt_clust_5="53.29720" pt_clust_6="57.49905"></scales>
<clustering>
<clus scale="   35.906">  1  3  2 -1</clus>
<clus scale="   53.297">  1  5  2 -1</clus>
<clus scale="   57.499">  2  6  1 -1</clus>
<clus scale="   35.906">  1  3  2 -1</clus>
</clustering>
</event>
<event>
 6    0  0.3584505E+002  0.8859029E+02  0.7546771E-02  0.1306302E+00
         21   -1    0    0  504  502  0.00000000000E+00  0.00000000000E+00  0.92867593564E+03  0.92867593564E+03  0.00000000000E+00 0. -1.
          2   -1    0    0  505    0 -0.00000000000E+00 -0.00000000000E+00 -0.10576033129E+04  0.10576033129E+04  0.00000000000E+00 0. -1.
         21    1    1    2  503  502  0.44808848643E+02 -0.49522360851E+02 -0.40493079361E+02  0.78102411084E+02  0.00000000000E+00 0. -1.
         21    1    1    2  504  501 -0.17072302210E+02 -0.32598044556E+02  0.88972447695E+03  0.89048511549E+03  0.00000000000E+00 0. -1.
         21    1    1    2  505  503 -0.60312675611E+02  0.11812846735E+03 -0.21250757050E+03  0.25050233763E+03  0.00000000000E+00 0. -1.
          2    1    1    2  501    0  0.32576129178E+02 -0.36008061938E+02 -0.76565120434E+03  0.76718938433E+03  0.00000000000E+00 0. -1.
<scales pt_clust_3="88.59029" pt_clust_4="36.79804" pt_clust_5="14000.00000" pt_clust_6="48.81551"></scales>
<clustering>
<clus scale="   36.798">  1  4  2 -1</clus>
<clus scale="   48.816">  2  6  1 -1</clus>
<clus scale="   88.590">  1  3  2 -1</clus>
<clus scale="   36.798">  1  3  2 -1</clus>
</clustering>
</event>
<event>
 6    0  0.3584505E+002  0.1590800E+03  0.7546771E-02  0.1189739E+00
          2   -1    0    0  503    0 -0.00000000000E+00  0.00000000000E+00  0.81438473988E+03  0.81438473988E+03  0.00000000000E+00 0.  1.
         21   -1    0    0  505  502  0.00000000000E+00 -0.00000000000E+00 -0.85448093880E+02  0.85448093880E+02  0.00000000000E+00 0.  1.
         21    1    1    2  503  502 -0.13591044961E+03 -0.29358646145E+02  0.30711791258E+03  0.33712756138E+03  0.00000000000E+00 0.  1.
         21    1    1    2  504  501  0.17064322683E+03  0.48510897396E+02  0.21645479464E+03  0.27986621116E+03  0.00000000000E+00 0.  1.
         21    1    1    2  505  504 -0.17727294881E+02  0.26429689026E+02 -0.29255784656E+02  0.43228305329E+02  0.00000000000E+00 0.  1.
          2    1    1    2  501    0 -0.17005482333E+02 -0.45581940276E+02  0.23461972344E+03  0.23961075589E+03  0.00000000000E+00 0.  1.
<scales pt_clust_3="159.08000" pt_clust_4="14000.00000" pt_clust_5="31.82429" pt_clust_6="47.72721"></scales>
<clustering>
<clus scale="   31.824">  2  5  1 -1</clus>
<clus scale="   47.727">  1  6  2 -1</clus>
<clus scale="  159.080">  1  3  2 -1</clus>
<clus scale="   31.824">  2  3  1 -1</clus>
</clustering>
</event>
<event>
 6    0  0.3584505E+002  0.9304547E+02  0.7546771E-02  0.1295640E+00
          1   -1    0    0  504    0 -0.00000000000E+00  0.00000000000E+00  0.30453271781E+04  0.30453271781E+04  0.00000000000E+00 0. -1.
         21   -1    0    0  505  502  0.00000000000E+00 -0.00000000000E+00 -0.46258568783E+02  0.46258568783E+02  0.00000000000E+00 0. -1.
         21    1    1    2  503  501  0.12988797355E+03  0.39972398995E+02  0.37010565312E+03  0.39426751429E+03  0.00000000000E+00 0. -1.
         21    1    1    2  504  502 -0.67086535185E+02  0.39014939145E+02  0.10132177646E+03  0.12762786163E+03  0.00000000000E+00 0. -1.
         21    1    1    2  505  503 -0.23880028838E+02 -0.51820152591E+02  0.18329158512E+02  0.59929475583E+02  0.00000000000E+00 0. -1.
          1    1    1    2  501    0 -0.38921409527E+02 -0.27167185549E+02  0.25093120213E+04  0.25097608954E+04  0.00000000000E+00 0. -1.
<scales pt_clust_3="93.04547" pt_clust_4="14000.00000" pt_clust_5="60.07482" pt_clust_6="47.46506"></scales>
<clustering>
<clus scale="   47.465">  1  6  2 -1</clus>
<clus scale="   60.075">  2  5  1 -1</clus>
<clus scale="   93.045">  1  3  2 -1</clus>
<clus scale="   60.075">  2  3  1 -1</clus>
</clustering>
</event>
<event>
 6    0  0.3584505E+002  0.1074416E+03  0.7546771E-02  0.1265382E+00
         21   -1    0    0  504  502  0.00000000000E+00  0.00000000000E+00  0.13962938722E+03  0.13962938722E+03  0.00000000000E+00 0.  1.
          1   -1    0    0  503    0 -0.00000000000E+00 -0.00000000000E+00 -0.16665646710E+04  0.16665646710E+04  0.00000000000E+00 0. -1.
         21    1    1    2  503  505 -0.10151180425E+03 -0.97504943792E+02 -0.31686719372E+03  0.34672276955E+03  0.00000000000E+00 0.  1.
         21    1    1    2  504  501  0.93277097240E+02  0.91697137475E+02  0.76913805706E+02  0.15173897126E+03  0.00000000000E+00 0.  1.
         21    1    1    2  505  502 -0.13397876790E+02 -0.35368815322E+02 -0.26007599859E+02  0.45900451525E+02  0.00000000000E+00 0.  1.
          1    1    1    2  501    0  0.21632583802E+02  0.41176621639E+02 -0.12609742959E+04  0.12618318659E+04  0.00000000000E+00 0. -1.
<scales pt_clust_3="107.44158" pt_clust_4="14000.00000" pt_clust_5="37.82137" pt_clust_6="46.38913"></scales>
<clustering>
<clus scale="   37.821">  1  5  2 -1</clus>
<clus scale="   46.389">  2  6  1 -1</clus>
<clus scale="  107.442">  2  3  1 -1</clus>
<clus scale="   37.821">  1  3  2 -1</clus>
</clustering>
</event>
<event>
 6    0  0.3584505E+002  0.1010639E+03  0.7546771E-02  0.1278075E+00
         21   -1    0    0  503  502  0.00000000000E+00  0.00000000000E+00  0.97923941464E+02  0.97923941464E+02  0.00000000000E+00 0.  1.
          1   -1    0    0  505    0 -0.00000000000E+00 -0.00000000000E+00 -0.17675016625E+04  0.17675016625E+04  0.00000000000E+00 0. -1.
         21    1    1    2  503  501  0.55877087892E+02 -0.17220623208E+02 -0.19235041391E+02  0.61553112288E+02  0.00000000000E+00 0.  1.
         21    1    1    2  504  502  0.14318711362E+02  0.86031469672E+02 -0.32956322158E+02  0.93233891044E+02  0.00000000000E+00 0.  1.
         21    1    1    2  505  504 -0.10571423190E+03 -0.83374952870E+02 -0.51294614669E+02  0.14407643488E+03  0.00000000000E+00 0.  1.
          1    1    1    2  501    0  0.35518432648E+02  0.14564106407E+02 -0.15660917428E+04  0.15665621657E+04  0.00000000000E+00 0. -1.
<scales pt_clust_3="64.61038" pt_clust_4="101.06388" pt_clust_5="14000.00000" pt_clust_6="38.38844"></scales>
<clustering>
<clus scale="   38.388">  2  6  1 -1</clus>
<clus scale="   64.610">  1  3  2 -1</clus>
<clus scale="  101.064">  1  4  2 -1</clus>
<clus scale="   64.610">  1  3  2 -1</clus>
</clustering>
</event>
<event>
 6    0  0.3584505E+002  0.4024359E+03  0.7546771E-02  0.1042939E+00
          1   -1    0    0  504    0 -0.00000000000E+00  0.00000000000E+00  0.34551328323E+04  0.34551328323E+04  0.00000000000E+00 0. -1.
         21   -1    0    0  503  502  0.00000000000E+00 -0.00000000000E+00 -0.47146315105E+03  0.47146315105E+03  0.00000000000E+00 0. -1.
         21    1    1    2  503  505 -0.15150196553E+02 -0.26024237348E+02 -0.54105976581E+02  0.61921289448E+02  0.00000000000E+00 0.  1.
         21    1    1    2  504  502 -0.30680482600E+03  0.21373822053E+03  0.10742617155E+03  0.38904191356E+03  0.00000000000E+00 0. -1.
         21    1    1    2  505  501  0.17579308562E+03  0.19633100462E+03 -0.19219168995E+03  0.32616976870E+03  0.00000000000E+00 0. -1.
          1    1    1    2  501    0  0.14616193693E+03 -0.38404498781E+03  0.31225411763E+04  0.31494630117E+04  0.00000000000E+00 0. -1.
<scales pt_clust_3="30.11294" pt_clust_4="14000.00000" pt_clust_5="245.07234" pt_clust_6="402.43587"></scales>
<clustering>
<clus scale="   30.113">  2  3  1 -1</clus>
<clus scale="  245.072">  2  5  1 -1</clus>
<clus scale="  402.436">  1  6  2 -1</clus>
<clus scale="   30.113">  2  3  1 -1</clus>
</clustering>
</event>
<event>
 6    0  0.3584505E+002  0.1119206E+03  0.7546771E-02  0.1257054E+00
         21   -1    0    0  504  502  0.00000000000E+00  0.00000000000E+00  0.26210698902E+03  0.26210698902E+03  0.00000000000E+00 0. -1.
          1   -1    0    0  503    0 -0.00000000000E+00 -0.00000000000E+00 -0.14725991361E+04  0.14725991361E+04  0.00000000000E+00 0.  1.
         21    1    1    2  503  505  0.26085567221E+02 -0.13387320024E+03 -0.18675346901E+03  0.23125602424E+03  0.00000000000E+00 0.  1.
         21    1    1    2  504  501 -0.93873676026E+02  0.71714374739E+02  0.18080346503E+03  0.21597479381E+03  0.00000000000E+00 0. -1.
         21    1    1    2  505  502  0.55552220654E+02  0.29671856548E+02  0.17163343072E+02  0.65276708219E+02  0.00000000000E+00 0. -1.
          1    1    1    2  501    0  0.12235888151E+02  0.32486968949E+02 -0.12217054861E+04  0.12221985988E+04  0.00000000000E+00 0.  1.
<scales pt_clust_3="111.92060" pt_clust_4="14000.00000" pt_clust_5="65.52164" pt_clust_6="34.71484"></scales>
<clustering>
<clus scale="   34.715">  2  6  1 -1</clus>
<clus scale="   65.522">  1  5  2 -1</clus>
<clus scale="  111.921">  2  3  1 -1</clus>
<clus scale="   65.522">  1  3  2 -1</clus>
</clustering>
</event>
<event>
 6    0  0.3584505E+002  0.9511330E+02  0.7546771E-02  0.1290921E+00
         -4   -1    0    0    0  501 -0.00000000000E+00  0.00000000000E+00  0.38817795622E+03  0.38817795622E+03  0.00000000000E+00 0.  1.
         21   -1    0    0  503  502  0.00000000000E+00 -0.00000000000E+00 -0.43716213881E+03  0.43716213881E+03  0.00000000000E+00 0. -1.
         21    1    1    2  503  501 -0.33897017334E+02  0.11288634015E+03  0.10245647020E+03  0.15617189845E+03  0.00000000000E+00 0.  1.
         21    1    1    2  504  502  0.33196529015E+02  0.95167984027E+01 -0.59865153205E+02  0.69111616669E+02  0.00000000000E+00 0.  1.
         21    1    1    2  505  504 -0.27193990301E+02 -0.10209205603E+03 -0.33650888457E+03  0.35270459368E+03  0.00000000000E+00 0. -1.
         -4    1    1    2    0  505  0.27894478620E+02 -0.20311082529E+02  0.24493338498E+03  0.24735198623E+03  0.00000000000E+00 0.  1.
<scales pt_clust_3="95.11330" pt_clust_4="35.23548" pt_clust_5="14000.00000" pt_clust_6="34.50568"></scales>
<clustering>
<clus scale="   34.506">  1  6  2 -1</clus>
<clus scale="   35.235">  2  4  1 -1</clus>
<clus scale="   95.113">  1  3  2 -1</clus>
<clus scale="   35.235">  2  3  1 -1</clus>
</clustering>
</event>
<event>
 6    0  0.3584505E+002  0.1402991E+03  0.7546771E-02  0.1212927E+00
         21   -1    0    0  504  502  0.00000000000E+00  0.00000000000E+00  0.11214421901E+03  0.11214421901E+03  0.00000000000E+00 0. -1.
          1   -1    0    0  505    0 -0.00000000000E+00 -0.00000000000E+00 -0.65800416449E+03  0.65800416449E+03  0.00000000000E+00 0. -1.
         21    1    1    2  503  502  0.32785332206E+02  0.13265940177E+02  0.66941420612E+02  0.75710084996E+02  0.00000000000E+00 0. -1.
         21    1    1    2  504  501 -0.11276842115E+02 -0.79472089993E+02 -0.24964396297E+03  0.26223098311E+03  0.00000000000E+00 0. -1.
         21    1    1    2  505  503  0.25488705547E+02  0.10759938611E+03 -0.66546926352E+02  0.12905733380E+03  0.00000000000E+00 0. -1.
          1    1    1    2  501    0 -0.46997195638E+02 -0.41393236293E+02 -0.29661047678E+03  0.30314998160E+03  0.00000000000E+00 0. -1.
<scales pt_clust_3="35.36754" pt_clust_4="50.14507" pt_clust_5="128.16557" pt_clust_6="50.14507"></scales>
<clustering>
<clus scale="   35.368">  1  3  2 -1</clus>
<clus scale="   50.145">  4  6 -1 -1</clus>
<clus scale="  128.166">  1  5  2 -1</clus>
<clus scale="   35.368">  1  3  2 -1</clus>
</clustering>
</event>
<event>
 6    0  0.3584505E+002  0.8899089E+02  0.7546771E-02  0.1305314E+00
          1   -1    0    0  503    0 -0.00000000000E+00  0.00000000000E+00  0.12132672387E+04  0.12132672387E+04  0.00000000000E+00 0. -1.
         21   -1    0    0  505  502  0.00000000000E+00 -0.00000000000E+00 -0.17320159582E+03  0.17320159582E+03  0.00000000000E+00 0. -1.
         21    1    1    2  503  504 -0.11929054543E+01  0.32187744263E+02  0.24752026987E+03  0.24960720722E+03  0.00000000000E+00 0. -1.
         21    1    1    2  504  502  0.67120391763E+02 -0.46857312580E+02  0.70536114834E+01  0.82161476177E+02  0.00000000000E+00 0. -1.
         21    1    1    2  505  501 -0.55774062974E+02  0.74006271524E+02 -0.11753252355E+03  0.14967153510E+03  0.00000000000E+00 0. -1.
          1    1    1    2  501    0 -0.10153423336E+02 -0.59336703208E+02  0.90302428511E+03  0.90502861604E+03  0.00000000000E+00 0. -1.
<scales pt_clust_3="32.20984" pt_clust_4="88.99089" pt_clust_5="14000.00000" pt_clust_6="31.27513"></scales>
<clustering>
<clus scale="   32.210">  1  3  2 -1</clus>
<clus scale="   31.275">  1  6  2 -1</clus>
<clus scale="   88.991">  1  4  2 -1</clus>
<clus scale="   88.991">  2  3  1 -1</clus>
</clustering>
</event>
<event>
 6    0  0.3584505E+002  0.1794211E+03  0.7546771E-02  0.1168364E+00
         21   -1    0    0  503  502  0.00000000000E+00  0.00000000000E+00  0.10171482955E+04  0.10171482955E+04  0.00000000000E+00 0. -1.
          2   -1    0    0  505    0 -0.00000000000E+00 -0.00000000000E+00 -0.38762254285E+03  0.38762254285E+03  0.00000000000E+00 0.  1.
         21    1    1    2  503  501 -0.98585304486E+02 -0.82475346870E+02 -0.23976549920E+03  0.27204547360E+03  0.00000000000E+00 0.  1.
         21    1    1    2  504  502 -0.32761447358E+02 -0.37903478073E+02  0.19436124681E+03  0.20071442486E+03  0.00000000000E+00 0.  1.
         21    1    1    2  505  504  0.18031802745E+03  0.11434401004E+03  0.78386386629E+03  0.81242335302E+03  0.00000000000E+00 0. -1.
          2    1    1    2  501    0 -0.48971275610E+02  0.60348148998E+01 -0.10893386121E+03  0.11958758691E+03  0.00000000000E+00 0.  1.
<scales pt_clust_3="40.00536" pt_clust_4="50.09976" pt_clust_5="167.40019" pt_clust_6="40.00536"></scales>
<clustering>
<clus scale="   40.005">  3  6 -1 -1</clus>
<clus scale="   50.100">  1  4  2 -1</clus>
<clus scale="  167.400">  1  5  2 -1</clus>
<clus scale="   50.100">  1  3  2 -1</clus>
</clustering>
</event>
<event>
 6    0  0.3584505E+002  0.7145185E+02  0.7546771E-02  0.1355224E+00
         21   -1    0    0  505  502  0.00000000000E+00  0.00000000000E+00  0.34829043367E+03  0.34829043367E+03  0.00000000000E+00 0.  1.
          1   -1    0    0  504    0 -0.00000000000E+00 -0.00000000000E+00 -0.21204111227E+03  0.21204111227E+03  0.00000000000E+00 0.  1.
         21    1    1    2  503  501  0.56751316261E+02  0.27529485340E+01 -0.81492733564E+02  0.99344633709E+02  0.00000000000E+00 0. -1.
         21    1    1    2  504  502 -0.98136073402E+02 -0.25283872340E+02  0.97864518575E+02  0.14088089686E+03  0.00000000000E+00 0. -1.
         21    1    1    2  505  503  0.36480300067E+02  0.58769645370E+02  0.21093111427E+03  0.22198337433E+03  0.00000000000E+00 0.  1.
          1    1    1    2  501    0  0.49044570741E+01 -0.36238721564E+02 -0.91053577881E+02  0.98122641040E+02  0.00000000000E+00 0.  1.
<scales pt_clust_3="65.54205" pt_clust_4="14000.00000" pt_clust_5="71.45185" pt_clust_6="36.56909"></scales>
<clustering>
<clus scale="   36.569">  2  6  1 -1</clus>
<clus scale="   65.542">  2  3  1 -1</clus>
<clus scale="   71.452">  1  5  2 -1</clus>
<clus scale="   71.452">  1  3  2 -1</clus>
</clustering>
</event>
<event>
 6    0  0.3584505E+002  0.1340923E+03  0.7546771E-02  0.1221507E+00
          2   -1    0    0  503    0 -0.00000000000E+00  0.00000000000E+00  0.90869367353E+03  0.90869367353E+03  0.00000000000E+00 0.  1.
         21   -1    0    0  501  502  0.00000000000E+00 -0.00000000000E+00 -0.16978345737E+04  0.16978345737E+04  0.00000000000E+00 0. -1.
         21    1    1    2  503  504  0.31553186854E+02  0.11986239711E+03 -0.33164512437E+02  0.12830620689E+03  0.00000000000E+00 0.  1.
         21    1    1    2  504  505  0.41857909239E+02 -0.91665015627E+02 -0.44412046907E+03  0.45540921236E+03  0.00000000000E+00 0.  1.
         21    1    1    2  505  502  0.28777224640E+02 -0.47867370704E+02 -0.11634973033E+04  0.11648370652E+04  0.00000000000E+00 0. -1.
          2    1    1    2  501    0 -0.10218832073E+03  0.19669989224E+02  0.85164138464E+03  0.85797576271E+03  0.00000000000E+00 0.  1.
<scales pt_clust_3="134.09225" pt_clust_4="14000.00000" pt_clust_5="55.85171" pt_clust_6="103.84311"></scales>
<clustering>
<clus scale="   55.852">  2  5  1 -1</clus>
<clus scale="  103.843">  1  6  2 -1</clus>
<clus scale="  134.092">  1  3  2 -1</clus>
<clus scale="   55.852">  2  3  1 -1</clus>
</clustering>
</event>
<event>
 6    0  0.3584505E+002  0.1447997E+03  0.7546771E-02  0.1207013E+00
          2   -1    0    0  505    0 -0.00000000000E+00  0.00000000000E+00  0.80997090784E+03  0.80997090784E+03  0.00000000000E+00 0. -1.
         21   -1    0    0  503  502  0.00000000000E+00 -0.00000000000E+00 -0.94852791926E+03  0.94852791926E+03  0.00000000000E+00 0.  1.
         21    1    1    2  503  504 -0.21161574049E+02 -0.38141366914E+02 -0.53464125545E+02  0.68999918889E+02  0.00000000000E+00 0. -1.
         21    1    1    2  504  501 -0.11909980794E+03 -0.11927449780E+03  0.38415223116E+03  0.41950459686E+03  0.00000000000E+00 0. -1.
         21    1    1    2  505  502  0.10131735993E+03  0.15672320589E+03 -0.85862463750E+03  0.87867151929E+03  0.00000000000E+00 0.  1.
          2    1    1    2  501    0  0.38944022063E+02  0.69265882833E+00  0.38937952047E+03  0.39132279206E+03  0.00000000000E+00 0. -1.
<scales pt_clust_3="43.26206" pt_clust_4="14000.00000" pt_clust_5="144.79965" pt_clust_6="38.95018"></scales>
<clustering>
<clus scale="   38.950">  1  6  2 -1</clus>
<clus scale="   43.262">  2  3  1 -1</clus>
<clus scale="  144.800">  2  5  1 -1</clus>
<clus scale="   43.262">  2  3  1 -1</clus>
</clustering>
</event>
<event>
 6    0  0.3584505E+002  0.2185622E+03  0.7546771E-02  0.1134960E+00
         21   -1    0    0  503  502  0.00000000000E+00  0.00000000000E+00  0.72608246883E+02  0.72608246883E+02  0.00000000000E+00 0. -1.
          4   -1    0    0  504    0 -0.00000000000E+00 -0.00000000000E+00 -0.22550855692E+04  0.22550855692E+04  0.00000000000E+00 0.  1.
         21    1    1    2  503  505  0.15987514571E+03 -0.13741163843E+03 -0.41687496232E+03  0.46714746580E+03  0.00000000000E+00 0. -1.
         21    1    1    2  504  502 -0.25296162544E+01  0.31496435392E+02  0.13877591447E+02  0.34511040917E+02  0.00000000000E+00 0. -1.
         21    1    1    2  505  501 -0.17164198431E+03  0.17421719104E+03 -0.65137906172E+03  0.69577818483E+03  0.00000000000E+00 0. -1.
          4    1    1    2  501    0  0.14296454850E+02 -0.68301988003E+02 -0.11281008898E+04  0.11302571246E+04  0.00000000000E+00 0.  1.
<scales pt_clust_3="218.56219" pt_clust_4="31.59785" pt_clust_5="14000.00000" pt_clust_6="69.08417"></scales>
<clustering>
<clus scale="   31.598">  1  4  2 -1</clus>
<clus scale="   69.084">  2  6  1 -1</clus>
<clus scale="  218.562">  1  3  2 -1</clus>
<clus scale="   31.598">  1  3  2 -1</clus>
</clustering>
</event>
<event>
 6    0  0.3584505E+002  0.1122894E+03  0.7546771E-02  0.1256388E+00
          2   -1    0    0  503    0 -0.00000000000E+00  0.00000000000E+00  0.28279149831E+04  0.28279149831E+04  0.00000000000E+00 0.  1.
         21   -1    0    0  505  502  0.00000000000E+00 -0.00000000000E+00 -0.33973258752E+03  0.33973258752E+03  0.00000000000E+00 0. -1.
         21    1    1    2  503  502 -0.36190471423E+02  0.45699087343E+02 -0.62511188579E+02  0.85474004840E+02  0.00000000000E+00 0.  1.
         21    1    1    2  504  501 -0.59003597762E+02 -0.34984770982E+02  0.12754471873E+04  0.12772904471E+04  0.00000000000E+00 0.  1.
         21    1    1    2  505  504  0.12795794289E+03  0.20908830155E+01 -0.24914242064E+03  0.28008847299E+03  0.00000000000E+00 0. -1.
          2    1    1    2  501    0 -0.32763873702E+02 -0.12805199377E+02  0.15243888175E+04  0.15247946457E+04  0.00000000000E+00 0.  1.
<scales pt_clust_3="58.29371" pt_clust_4="31.16596" pt_clust_5="103.51249" pt_clust_6="31.16596"></scales>
<clustering>
<clus scale="   31.166">  4  6 -1 -1</clus>
<clus scale="   58.294">  2  3  1 -1</clus>
<clus scale="  103.512">  2  5  1 -1</clus>
<clus scale="   58.294">  2  3  1 -1</clus>
</clustering>
</event>
<event>
 6    0  0.3584505E+002  0.1118005E+03  0.7546771E-02  0.1257271E+00
         21   -1    0    0  504  502  0.00000000000E+00  0.00000000000E+00  0.41568135820E+03  0.41568135820E+03  0.00000000000E+00 0. -1.
          3   -1    0    0  505    0 -0.00000000000E+00 -0.00000000000E+00 -0.60444221124E+03  0.60444221124E+03  0.00000000000E+00 0.  1.
         21    1    1    2  503  501  0.16282418057E+02  0.84532802548E+02 -0.19256278285E+03  0.21092969725E+03  0.00000000000E+00 0.  1.
         21    1    1    2  504  503  0.38707700387E+02 -0.38124532493E+02  0.24768869447E+03  0.25357731644E+03  0.00000000000E+00 0. -1.
         21    1    1    2  505  502 -0.10207088413E+03 -0.60572510315E+02  0.13143110341E+03  0.17709214928E+03  0.00000000000E+00 0. -1.
          3    1    1    2  501    0  0.47080765684E+02  0.14164240260E+02 -0.37531786807E+03  0.37852440647E+03  0.00000000000E+00 0.  1.
<scales pt_clust_3="14000.00000" pt_clust_4="54.63846" pt_clust_5="111.80052" pt_clust_6="49.16527"></scales>
<clustering>
<clus scale="   49.165">  2  6  1 -1</clus>
<clus scale="   54.638">  1  4  2 -1</clus>
<clus scale="  111.801">  1  5  2 -1</clus>
<clus scale="   54.638">  1  3  2 -1</clus>
</clustering>
</event>
<event>
 6    0  0.3584505E+002  0.1190610E+03  0.7546771E-02  0.1244654E+00
          1   -1    0    0  504    0 -0.00000000000E+00  0.00000000000E+00  0.10773797789E+04  0.10773797789E+04  0.00000000000E+00 0. -1.
         21   -1    0    0  503  502  0.00000000000E+00 -0.00000000000E+00 -0.49947377049E+03  0.49947377049E+03  0.00000000000E+00 0. -1.
         21    1    1    2  503  501  0.38482995335E+02  0.33708324367E+02 -0.47507162791E+03  0.47781821199E+03  0.00000000000E+00 0. -1.
         21    1    1    2  504  505 -0.11358652478E+03 -0.48650996497E+02  0.68653455960E+03  0.69756613995E+03  0.00000000000E+00 0. -1.
         21    1    1    2  505  502  0.72542370212E+02  0.47629439024E+02  0.97466236449E+02  0.13050144131E+03  0.00000000000E+00 0.  1.
          1    1    1    2  501    0  0.25611592337E+01 -0.32686766895E+02  0.26897684026E+03  0.27096775613E+03  0.00000000000E+00 0. -1.
<scales pt_clust_3="51.12516" pt_clust_4="119.06099" pt_clust_5="14000.00000" pt_clust_6="32.78695"></scales>
<clustering>
<clus scale="   32.787">  1  6  2 -1</clus>
<clus scale="   51.125">  2  3  1 -1</clus>
<clus scale="  119.061">  1  4  2 -1</clus>
<clus scale="   51.125">  2  3  1 -1</clus>
</clustering>
</event>
<event>
 6    0  0.3584505E+002  0.8420073E+02  0.7546771E-02  0.1317536E+00
         21   -1    0    0  505  502  0.00000000000E+00  0.00000000000E+00  0.66825094010E+02  0.66825094010E+02  0.00000000000E+00 0. -1.
          2   -1    0    0  503    0 -0.00000000000E+00 -0.00000000000E+00 -0.12900158697E+04  0.12900158697E+04  0.00000000000E+00 0. -1.
         21    1    1    2  503  502  0.72126687297E+02 -0.34762482327E+01 -0.32702137799E+03  0.33489897728E+03  0.00000000000E+00 0. -1.
         21    1    1    2  504  501 -0.10608713098E+03  0.95856575183E+01 -0.19174733057E+03  0.21934767601E+03  0.00000000000E+00 0. -1.
         21    1    1    2  505  504  0.31349105747E+02  0.29640866322E+02  0.39090195156E+02  0.58218474257E+02  0.00000000000E+00 0. -1.
          2    1    1    2  501    0  0.26113379349E+01 -0.35750275607E+02 -0.74351226225E+03  0.74437583612E+03  0.00000000000E+00 0. -1.
<scales pt_clust_3="14000.00000" pt_clust_4="84.20073" pt_clust_5="42.74915" pt_clust_6="35.84552"></scales>
<clustering>
<clus scale="   35.846">  2  6  1 -1</clus>
<clus scale="   42.749">  1  5  2 -1</clus>
<clus scale="   84.201">  1  4  2 -1</clus>
<clus scale="   42.749">  1  3  2 -1</clus>
</clustering>
</event>
<event>
 6    0  0.3584505E+002  0.1774446E+03  0.7546771E-02  0.1170299E+00
          1   -1    0    0  505    0 -0.00000000000E+00  0.00000000000E+00  0.10083231989E+04  0.10083231989E+04  0.00000000000E+00 0.  1.
         21   -1    0    0  501  502  0.00000000000E+00 -0.00000000000E+00 -0.10235591589E+03  0.10235591589E+03  0.00000000000E+00 0.  1.
         21    1    1    2  503  502 -0.96969510973E+00 -0.37333052510E+02  0.37336403518E+01  0.37531815685E+02  0.00000000000E+00 0. -1.
         21    1    1    2  504  503  0.72907060616E+02  0.10098551911E+03  0.45247004235E+01  0.12463541821E+03  0.00000000000E+00 0.  1.
         21    1    1    2  505  504 -0.10670712673E+03 -0.15455453240E+03  0.73766767352E+03  0.76120109757E+03  0.00000000000E+00 0.  1.
          1    1    1    2  501    0  0.34769761220E+02  0.90902065795E+02  0.16004126868E+03  0.18731078331E+03  0.00000000000E+00 0.  1.
<scales pt_clust_3="37.34564" pt_clust_4="14000.00000" pt_clust_5="177.44460" pt_clust_6="91.72755"></scales>
<clustering>
<clus scale="   37.346">  2  3  1 -1</clus>
<clus scale="   91.728">  2  6  1 -1</clus>
<clus scale="  177.445">  1  5  2 -1</clus>
<clus scale="   37.346">  2  3  1 -1</clus>
</clustering>
</event>
<event>
 6    0  0.3584505E+002  0.1495440E+03  0.7546771E-02  0.1201034E+00
          1   -1    0    0  503    0 -0.00000000000E+00  0.00000000000E+00  0.22654347047E+04  0.22654347047E+04  0.00000000000E+00 0. -1.
         21   -1    0    0  504  502  0.00000000000E+00 -0.00000000000E+00 -0.12505297625E+03  0.12505297625E+03  0.00000000000E+00 0. -1.
         21    1    1    2  503  505  0.54688517901E+02  0.92657873314E+02 -0.80781352693E+01  0.10789611553E+03  0.00000000000E+00 0. -1.
         21    1    1    2  504  501 -0.98154903502E+01 -0.65228229294E+02  0.71580874850E+03  0.71884158907E+03  0.00000000000E+00 0.  1.
         21    1    1    2  505  502  0.46180848680E+01  0.34760649846E+02 -0.59725368515E+02  0.69258567194E+02  0.00000000000E+00 0. -1.
          1    1    1    2  501    0 -0.49491112419E+02 -0.62190293866E+02  0.14923764837E+04  0.14944914091E+04  0.00000000000E+00 0. -1.
<scales pt_clust_3="139.12300" pt_clust_4="49.79686" pt_clust_5="35.06607" pt_clust_6="49.79686"></scales>
<clustering>
<clus scale="   35.066">  2  5  1 -1</clus>
<clus scale="   49.797">  4  6 -1 -1</clus>
<clus scale="  139.123">  2  3  1 -1</clus>
<clus scale="   35.066">  2  3  1 -1</clus>
</clustering>
</event>
<event>
 6    0  0.3584505E+002  0.7340530E+02  0.7546771E-02  0.1348882E+00
          1   -1    0    0  503    0 -0.00000000000E+00  0.00000000000E+00  0.17022440350E+04  0.17022440350E+04  0.00000000000E+00 0.  1.
         21   -1    0    0  505  502  0.00000000000E+00 -0.00000000000E+00 -0.84941785032E+02  0.84941785032E+02  0.00000000000E+00 0.  1.
         21    1    1    2  503  502 -0.22410514551E+02  0.38805976163E+02 -0.30913223958E+02  0.54440447866E+02  0.00000000000E+00 0.  1.
         21    1    1    2  504  501  0.53507876970E+01  0.68575402930E+02  0.22184467289E+03  0.23226337573E+03  0.00000000000E+00 0. -1.
         21    1    1    2  505  504  0.49021182227E+02 -0.10248047949E+03  0.50650360752E+02  0.12438160647E+03  0.00000000000E+00 0. -1.
          1    1    1    2  501    0 -0.31961455374E+02 -0.49008996003E+01  0.13757204402E+04  0.13761003899E+04  0.00000000000E+00 0.  1.
<scales pt_clust_3="45.24845" pt_clust_4="73.40530" pt_clust_5="14000.00000" pt_clust_6="32.33502"></scales>
<clustering>
<clus scale="   32.335">  1  6  2 -1</clus>
<clus scale="   45.248">  2  3  1 -1</clus>
<clus scale="   73.405">  1  4  2 -1</clus>
<clus scale="   45.248">  2  3  1 -1</clus>
</clustering>
</event>
<event>
 6    0  0.3584505E+002  0.1071343E+03  0.7546771E-02  0.1265971E+00
         21   -1    0    0  505  502  0.00000000000E+00  0.00000000000E+00  0.59598857565E+02  0.59598857565E+02  0.00000000000E+00 0.  1.
          2   -1    0    0  504    0 -0.00000000000E+00 -0.00000000000E+00 -0.29291262558E+04  0.29291262558E+04  0.00000000000E+00 0.  1.
         21    1    1    2  503  502  0.24900711884E+02 -0.34146176856E+02 -0.10785812266E+03  0.11584205398E+03  0.00000000000E+00 0.  1.
         21    1    1    2  504  503  0.59443918677E+01 -0.29790015457E+02 -0.20186087748E+03  0.20413376661E+03  0.00000000000E+00 0. -1.
         21    1    1    2  505  501 -0.11815181217E+03  0.86764925139E+02 -0.46449893638E+02  0.15377124430E+03  0.00000000000E+00 0.  1.
          2    1    1    2  501    0  0.87306708422E+02 -0.22828732827E+02 -0.25133585045E+04  0.25149780485E+04  0.00000000000E+00 0.  1.
<scales pt_clust_3="43.39559" pt_clust_4="30.37731" pt_clust_5="107.13429" pt_clust_6="14000.00000"></scales>
<clustering>
<clus scale="   30.377">  2  4  1 -1</clus>
<clus scale="   43.396">  1  3  2 -1</clus>
<clus scale="  107.134">  1  5  2 -1</clus>
<clus scale="   43.396">  1  3  2 -1</clus>
</clustering>
</event>
<event>
 6    0  0.3584505E+002  0.1139723E+03  0.7546771E-02  0.1253386E+00
         21   -1    0    0  504  502  0.00000000000E+00  0.00000000000E+00  0.17783035497E+03  0.17783035497E+03  0.00000000000E+00 0. -1.
          2   -1    0    0  503    0 -0.00000000000E+00 -0.00000000000E+00 -0.24204207445E+04  0.24204207445E+04  0.00000000000E+00 0.  1.
         21    1    1    2  503  505  0.14787634092E+03 -0.40113403715E+02 -0.12064580433E+03  0.19501771064E+03  0.00000000000E+00 0. -1.
         21    1    1    2  504  501 -0.17312571400E+02  0.44435150454E+02 -0.10344452316E+02  0.48797698901E+02  0.00000000000E+00 0. -1.
         21    1    1    2  505  502 -0.22849537239E+02 -0.36704931107E+02  0.11610442392E+03  0.12389346461E+03  0.00000000000E+00 0. -1.
          2    1    1    2  501    0 -0.10771423228E+03  0.32383184368E+02 -0.22277045568E+04  0.22305422253E+04  0.00000000000E+00 0.  1.
<scales pt_clust_3="14000.00000" pt_clust_4="40.73551" pt_clust_5="43.23602" pt_clust_6="113.97225"></scales>
<clustering>
<clus scale="   43.236">  1  5  2 -1</clus>
<clus scale="   40.736">  1  4  2 -1</clus>
<clus scale="  113.972">  2  6  1 -1</clus>
<clus scale="   43.236">  1  3  2 -1</clus>
</clustering>
</event>
<event>
 6    0  0.3584505E+002  0.1279483E+03  0.7546771E-02  0.1230532E+00
          4   -1    0    0  502    0 -0.00000000000E+00  0.00000000000E+00  0.28036522075E+04  0.28036522075E+04  0.00000000000E+00 0. -1.
         21   -1    0    0  503  502  0.00000000000E+00 -0.00000000000E+00 -0.20231586762E+02  0.20231586762E+02  0.00000000000E+00 0. -1.
         21    1    1    2  503  504  0.34394533411E+02 -0.10639986779E+02  0.12669834124E+03  0.13171432314E+03  0.00000000000E+00 0. -1.
         21    1    1    2  504  505  0.34755388062E+02  0.49383921036E+02  0.27444972476E+03  0.28101487519E+03  0.00000000000E+00 0. -1.
         21    1    1    2  505  501  0.55192165714E+02  0.24317447648E+02  0.61289345928E+02  0.85987774367E+02  0.00000000000E+00 0. -1.
          4    1    1    2  501    0 -0.12434208719E+03 -0.63061381904E+02  0.23209832088E+04  0.23251668216E+04  0.00000000000E+00 0. -1.
<scales pt_clust_3="36.00268" pt_clust_4="62.76411" pt_clust_5="127.94827" pt_clust_6="14000.00000"></scales>
<clustering>
<clus scale="   36.003">  2  3  1 -1</clus>
<clus scale="   62.764">  2  4  1 -1</clus>
<clus scale="  127.948">  2  5  1 -1</clus>
<clus scale="   36.003">  2  3  1 -1</clus>
</clustering>
</event>
<event>
 6    0  0.3584505E+002  0.7069339E+02  0.7546771E-02  0.1357751E+00
         21   -1    0    0  503  502  0.00000000000E+00  0.00000000000E+00  0.11954148851E+04  0.11954148851E+04  0.00000000000E+00 0. -1.
         -2   -1    0    0    0  501 -0.00000000000E+00 -0.00000000000E+00 -0.29597186061E+02  0.29597186061E+02  0.00000000000E+00 0. -1.
         21    1    1    2  503  505 -0.95399960138E+02  0.24923165185E+02  0.29256377288E+03  0.30873269629E+03  0.00000000000E+00 0. -1.
         21    1    1    2  504  502  0.39939272800E+02 -0.36952262040E+02  0.67772632770E+03  0.67990704544E+03  0.00000000000E+00 0. -1.
         21    1    1    2  505  501  0.46995665047E+02 -0.31287167307E+02  0.18147375033E+03  0.19005315422E+03  0.00000000000E+00 0. -1.
         -2    1    1    2    0  504  0.84650222911E+01  0.43316264162E+02  0.14053848110E+02  0.46319175188E+02  0.00000000000E+00 0. -1.
<scales pt_clust_3="70.69339" pt_clust_4="52.62040" pt_clust_5="14000.00000" pt_clust_6="44.13565"></scales>
<clustering>
<clus scale="   44.136">  2  6  1 -1</clus>
<clus scale="   52.620">  1  4  2 -1</clus>
<clus scale="   70.693">  1  3  2 -1</clus>
<clus scale="   52.620">  1  3  2 -1</clus>
</clustering>
</event>
<event>
 6    0  0.3584505E+002  0.3466590E+03  0.7546771E-02  0.1063995E+00
         21   -1    0    0  504  502  0.00000000000E+00  0.00000000000E+00  0.10425550148E+04  0.10425550148E+04  0.00000000000E+00 0. -1.
          2   -1    0    0  505    0 -0.00000000000E+00 -0.00000000000E+00 -0.11977413683E+04  0.11977413683E+04  0.00000000000E+00 0. -1.
         21    1    1    2  503  501 -0.26664180483E+03  0.62919548228E+02  0.73953233852E+03  0.78864745061E+03  0.00000000000E+00 0. -1.
         21    1    1    2  504  503 -0.54283670511E+02  0.51221953911E+02  0.20743924050E+03  0.22045735176E+03  0.00000000000E+00 0. -1.
         21    1    1    2  505  502  0.28522929527E+03 -0.13343301656E+03 -0.32342435906E+03  0.45140163582E+03  0.00000000000E+00 0.  1.
          2    1    1    2  501    0  0.35696180073E+02  0.19291514418E+02 -0.77873357348E+03  0.77978994496E+03  0.00000000000E+00 0. -1.
<scales pt_clust_3="38.76431" pt_clust_4="38.76431" pt_clust_5="338.60975" pt_clust_6="40.57561"></scales>
<clustering>
<clus scale="   38.764">  3  4 -1 -1</clus>
<clus scale="   40.576">  2  6  1 -1</clus>
<clus scale="  338.610">  2  5  1 -1</clus>
<clus scale="  346.659">  1  3  2 -1</clus>
</clustering>
</event>
<event>
 6    0  0.3584505E+002  0.8669538E+02  0.7546771E-02  0.1311058E+00
         21   -1    0    0  503  502  0.00000000000E+00  0.00000000000E+00  0.64436685221E+03  0.64436685221E+03  0.00000000000E+00 0. -1.
          3   -1    0    0  505    0 -0.00000000000E+00 -0.00000000000E+00 -0.35597206097E+03  0.35597206097E+03  0.00000000000E+00 0.  1.
         21    1    1    2  503  504  0.26144793550E+02 -0.49369756796E+02  0.10254058614E+03  0.11677112195E+03  0.00000000000E+00 0. -1.
         21    1    1    2  504  501 -0.31782119947E+02 -0.36454273925E+02 -0.10309309911E+03  0.11387363312E+03  0.00000000000E+00 0.  1.
         21    1    1    2  505  502  0.53072318375E+02  0.94498984629E+02  0.52127076513E+03  0.53241895126E+03  0.00000000000E+00 0. -1.
          3    1    1    2  501    0 -0.47434991978E+02 -0.86749539081E+01 -0.23232346093E+03  0.23727520686E+03  0.00000000000E+00 0.  1.
<scales pt_clust_3="55.07805" pt_clust_4="14000.00000" pt_clust_5="86.69538" pt_clust_6="48.22171"></scales>
<clustering>
<clus scale="   48.222">  2  6  1 -1</clus>
<clus scale="   55.078">  1  3  2 -1</clus>
<clus scale="   86.695">  1  5  2 -1</clus>
<clus scale="   55.078">  1  3  2 -1</clus>
</clustering>
</event>
<event>
 6    0  0.3584505E+002  0.1172285E+03  0.7546771E-02  0.1247740E+00
         21   -1    0    0  503  502  0.00000000000E+00  0.00000000000E+00  0.16771105783E+04  0.16771105783E+04  0.00000000000E+00 0.  1.
         -1   -1    0    0    0  501 -0.00000000000E+00 -0.00000000000E+00 -0.91447817777E+02  0.91447817777E+02  0.00000000000E+00 0. -1.
         21    1    1    2  503  501  0.31543364018E+02  0.43303637154E+02 -0.16947458359E+02  0.56190792388E+02  0.00000000000E+00 0. -1.
         21    1    1    2  504  502 -0.35877807023E+02  0.98998313355E+01  0.31966438659E+03  0.32182377748E+03  0.00000000000E+00 0. -1.
         21    1    1    2  505  504 -0.18305847724E+02  0.94601226870E+02  0.12271766210E+04  0.12309536772E+04  0.00000000000E+00 0.  1.
         -1    1    1    2    0  505  0.22640290729E+02 -0.14780469536E+03  0.55769211239E+02  0.15959014900E+03  0.00000000000E+00 0. -1.
<scales pt_clust_3="53.38669" pt_clust_4="37.21859" pt_clust_5="14000.00000" pt_clust_6="117.22851"></scales>
<clustering>
<clus scale="   37.219">  1  4  2 -1</clus>
<clus scale="   53.387">  2  3  1 -1</clus>
<clus scale="  117.229">  2  6  1 -1</clus>
<clus scale="   37.219">  1  3  2 -1</clus>
</clustering>
</event>
<event>
 6    0  0.3584505E+002  0.1695944E+03  0.7546771E-02  0.1178271E+00
          2   -1    0    0  502    0 -0.00000000000E+00  0.00000000000E+00  0.54193428024E+03  0.54193428024E+03  0.00000000000E+00 0. -1.
         21   -1    0    0  503  502  0.00000000000E+00 -0.00000000000E+00 -0.35702623400E+03  0.35702623400E+03  0.00000000000E+00 0.  1.
         21    1    1    2  503  504 -0.44543607333E+02  0.22033427734E+02 -0.12455474464E+03  0.13410253280E+03  0.00000000000E+00 0.  1.
         21    1    1    2  504  505 -0.11214046815E+03 -0.15289830006E+02 -0.15841075313E+03  0.19468751939E+03  0.00000000000E+00 0.  1.
         21    1    1    2  505  501  0.17690777591E+03  0.39395940056E+02  0.11705902203E+03  0.21575730789E+03  0.00000000000E+00 0. -1.
          2    1    1    2  501    0 -0.20223700428E+02 -0.46139537785E+02  0.35081452198E+03  0.35441315415E+03  0.00000000000E+00 0. -1.
<scales pt_clust_3="38.85366" pt_clust_4="38.85366" pt_clust_5="159.13585" pt_clust_6="50.37713"></scales>
<clustering>
<clus scale="   38.854">  3  4 -1 -1</clus>
<clus scale="   50.377">  1  6  2 -1</clus>
<clus scale="  159.136">  1  5  2 -1</clus>
<clus scale="  169.594">  2  3  1 -1</clus>
</clustering>
</event>
<event>
 6    0  0.3584505E+002  0.1012719E+03  0.7546771E-02  0.1277644E+00
         -3   -1    0    0    0  501 -0.00000000000E+00  0.00000000000E+00  0.10387515928E+04  0.10387515928E+04  0.00000000000E+00 0.  1.
         21   -1    0    0  505  502  0.00000000000E+00 -0.00000000000E+00 -0.18259819943E+03  0.18259819943E+03  0.00000000000E+00 0.  1.
         21    1    1    2  503  501 -0.34159100217E+02 -0.19883629415E+01  0.12821574648E+03  0.13270295913E+03  0.00000000000E+00 0.  1.
         21    1    1    2  504  503  0.37563206199E+01 -0.78099606550E+02  0.78898449967E+02  0.11107935855E+03  0.00000000000E+00 0.  1.
         21    1    1    2  505  504  0.63340342634E+02  0.88081704766E+02 -0.14594977044E+03  0.18185632024E+03  0.00000000000E+00 0.  1.
         -3    1    1    2    0  502 -0.32937563037E+02 -0.79937352746E+01  0.79498896739E+03  0.79571115433E+03  0.00000000000E+00 0.  1.
<scales pt_clust_3="52.19145" pt_clust_4="14000.00000" pt_clust_5="101.27190" pt_clust_6="33.89370"></scales>
<clustering>
<clus scale="   33.894">  1  6  2 -1</clus>
<clus scale="   52.191">  1  3  2 -1</clus>
<clus scale="  101.272">  2  5  1 -1</clus>
<clus scale="  101.272">  2  3  1 -1</clus>
</clustering>
</event>
<event>
 6    0  0.3584505E+002  0.6750885E+02  0.7546771E-02  0.1368775E+00
         21   -1    0    0  505  502  0.00000000000E+00  0.00000000000E+00  0.12654122255E+03  0.12654122255E+03  0.00000000000E+00 0.  1.
          3   -1    0    0  503    0 -0.00000000000E+00 -0.00000000000E+00 -0.37627171327E+03  0.37627171327E+03  0.00000000000E+00 0. -1.
         21    1    1    2  503  502  0.45083170698E+02 -0.61765367847E+01 -0.60234223029E+02  0.75490419993E+02  0.00000000000E+00 0. -1.
         21    1    1    2  504  501 -0.55401108889E+02 -0.95969120204E+02 -0.18382889904E+01  0.11082749751E+03  0.00000000000E+00 0. -1.
         21    1    1    2  505  504  0.10912824691E+02  0.49800158973E+02  0.51030382862E+02  0.72133525849E+02  0.00000000000E+00 0.  1.
          3    1    1    2  501    0 -0.59488649912E+00  0.52345498017E+02 -0.23868836156E+03  0.24436149246E+03  0.00000000000E+00 0. -1.
<scales pt_clust_3="45.50431" pt_clust_4="14000.00000" pt_clust_5="51.12912" pt_clust_6="67.50885"></scales>
<clustering>
<clus scale="   45.504">  2  3  1 -1</clus>
<clus scale="   51.129">  1  5  2 -1</clus>
<clus scale="   67.509">  2  6  1 -1</clus>
<clus scale="   51.129">  1  3  2 -1</clus>
</clustering>
</event>
<event>
 6    0  0.3584505E+002  0.1672271E+03  0.7546771E-02  0.1180771E+00
          1   -1    0    0  505    0 -0.00000000000E+00  0.00000000000E+00  0.53498274199E+03  0.53498274199E+03  0.00000000000E+00 0.  1.
         21   -1    0    0  503  502  0.00000000000E+00 -0.00000000000E+00 -0.99839257276E+03  0.99839257276E+03  0.00000000000E+00 0. -1.
         21    1    1    2  503  501 -0.35947131301E+02  0.99300775452E+02 -0.12387981705E+03  0.16278528597E+03  0.00000000000E+00 0. -1.
         21    1    1    2  504  502 -0.24648834319E+02  0.27812364963E+02 -0.20274019479E+03  0.20611811968E+03  0.00000000000E+00 0.  1.
         21    1    1    2  505  504  0.11014238674E+03 -0.21558425219E+03 -0.62269484773E+03  0.66809938522E+03  0.00000000000E+00 0. -1.
          1    1    1    2  501    0 -0.49546421117E+02  0.88471111775E+02  0.48590502879E+03  0.49637252389E+03  0.00000000000E+00 0.  1.
<scales pt_clust_3="14000.00000" pt_clust_4="37.16306" pt_clust_5="167.22709" pt_clust_6="101.63949"></scales>
<clustering>
<clus scale="   37.163">  2  4  1 -1</clus>
<clus scale="  101.639">  1  6  2 -1</clus>
<clus scale="  167.227">  2  5  1 -1</clus>
<clus scale="   37.163">  2  3  1 -1</clus>
</clustering>
</event>
<event>
 6    0  0.3584505E+002  0.2328332E+03  0.7546771E-02  0.1124661E+00
          2   -1    0    0  505    0 -0.00000000000E+00  0.00000000000E+00  0.48934456918E+04  0.48934456918E+04  0.00000000000E+00 0.  1.
         21   -1    0    0  503  502  0.00000000000E+00 -0.00000000000E+00 -0.18601835952E+03  0.18601835952E+03  0.00000000000E+00 0. -1.
         21    1    1    2  503  504 -0.36016584141E+02  0.14420632627E+02 -0.41370334021E+02  0.56715549152E+02  0.00000000000E+00 0.  1.
         21    1    1    2  504  501  0.48044562645E+02  0.17686170881E+03 -0.55423099055E+02  0.19146818000E+03  0.00000000000E+00 0. -1.
         21    1    1    2  505  502 -0.62425506144E+02  0.37734200947E+02  0.11489045139E+03  0.13609051973E+03  0.00000000000E+00 0.  1.
          2    1    1    2  501    0  0.50397527641E+02 -0.22901654239E+03  0.46893303140E+04  0.46951898025E+04  0.00000000000E+00 0.  1.
<scales pt_clust_3="38.79625" pt_clust_4="232.83324" pt_clust_5="75.90804" pt_clust_6="14000.00000"></scales>
<clustering>
<clus scale="   38.796">  2  3  1 -1</clus>
<clus scale="   75.908">  2  5  1 -1</clus>
<clus scale="  232.833">  2  4  1 -1</clus>
<clus scale="   38.796">  2  3  1 -1</clus>
</clustering>
</event>
<event>
 6    0  0.3584505E+002  0.1650349E+03  0.7546771E-02  0.1183127E+00
          2   -1    0    0  505    0 -0.00000000000E+00  0.00000000000E+00  0.15808397700E+04  0.15808397700E+04  0.00000000000E+00 0.  1.
         21   -1    0    0  504  502  0.00000000000E+00 -0.00000000000E+00 -0.18432300212E+03  0.18432300212E+03  0.00000000000E+00 0.  1.
         21    1    1    2  503  502 -0.34424349679E+02 -0.91214452333E+00 -0.15761263895E+02  0.37871959258E+02  0.00000000000E+00 0.  1.
         21    1    1    2  504  501  0.36035490637E+02  0.13937675749E+03  0.18756102954E+03  0.23643937260E+03  0.00000000000E+00 0.  1.
         21    1    1    2  505  503 -0.28581743418E+02 -0.16166566935E+03 -0.82095449063E+02  0.18355480778E+03  0.00000000000E+00 0.  1.
          2    1    1    2  501    0  0.26970602460E+02  0.23201056381E+02  0.13068124513E+04  0.13072966325E+04  0.00000000000E+00 0.  1.
<scales pt_clust_3="34.43643" pt_clust_4="165.03486" pt_clust_5="14000.00000" pt_clust_6="35.53570"></scales>
<clustering>
<clus scale="   34.436">  2  3  1 -1</clus>
<clus scale="   35.536">  1  6  2 -1</clus>
<clus scale="  165.035">  1  4  2 -1</clus>
<clus scale="   34.436">  2  3  1 -1</clus>
</clustering>
</event>
<event>
 6    0  0.3584505E+002  0.1127585E+03  0.7546771E-02  0.1255545E+00
         21   -1    0    0  503  502  0.00000000000E+00  0.00000000000E+00  0.58718393024E+02  0.58718393024E+02  0.00000000000E+00 0. -1.
          2   -1    0    0  504    0 -0.00000000000E+00 -0.00000000000E+00 -0.88513315610E+03  0.88513315610E+03  0.00000000000E+00 0. -1.
         21    1    1    2  503  505  0.56159703716E+02  0.17578311642E+01 -0.18602999560E+02  0.59186771195E+02  0.00000000000E+00 0. -1.
         21    1    1    2  504  502 -0.13020619818E+03 -0.87721553759E+02 -0.25881644571E+03  0.30271220261E+03  0.00000000000E+00 0. -1.
         21    1    1    2  505  501  0.92930591485E+02 -0.64042218383E+01 -0.20317028527E+03  0.22350676435E+03  0.00000000000E+00 0. -1.
          2    1    1    2  501    0 -0.18884097023E+02  0.92367944433E+02 -0.34582503252E+03  0.35844581097E+03  0.00000000000E+00 0. -1.
<scales pt_clust_3="56.18721" pt_clust_4="14000.00000" pt_clust_5="112.75854" pt_clust_6="93.15897"></scales>
<clustering>
<clus scale="   56.187">  1  3  2 -1</clus>
<clus scale="   93.159">  2  6  1 -1</clus>
<clus scale="  112.759">  2  5  1 -1</clus>
<clus scale="   56.187">  1  3  2 -1</clus>
</clustering>
</event>
<event>
 6    0  0.3584505E+002  0.1359905E+03  0.7546771E-02  0.1218828E+00
          2   -1    0    0  505    0 -0.00000000000E+00  0.00000000000E+00  0.20141820619E+04  0.20141820619E+04  0.00000000000E+00 0. -1.
         21   -1    0    0  503  502  0.00000000000E+00 -0.00000000000E+00 -0.36855086628E+03  0.36855086628E+03  0.00000000000E+00 0. -1.
         21    1    1    2  503  504  0.11699250705E+01 -0.48712693957E+02 -0.62174240619E+02  0.78993236886E+02  0.00000000000E+00 0. -1.
         21    1    1    2  504  501  0.74912243008E+02 -0.64711073321E+02 -0.28549145166E+03  0.30216673565E+03  0.00000000000E+00 0. -1.
         21    1    1    2  505  502 -0.10625113220E+03  0.91404095856E+02  0.17256676936E+04  0.17313500514E+04  0.00000000000E+00 0. -1.
          2    1    1    2  501    0  0.30168964123E+02  0.22019671422E+02  0.26762919428E+03  0.27022290421E+03  0.00000000000E+00 0. -1.
<scales pt_clust_3="48.62439" pt_clust_4="14000.00000" pt_clust_5="135.99048" pt_clust_6="37.35013"></scales>
<clustering>
<clus scale="   37.350">  1  6  2 -1</clus>
<clus scale="   48.624">  2  3  1 -1</clus>
<clus scale="  135.990">  1  5  2 -1</clus>
<clus scale="   48.624">  2  3  1 -1</clus>
</clustering>
</event>
<event>
 6    0  0.3584505E+002  0.1257238E+03  0.7546771E-02  0.1233942E+00
          2   -1    0    0  504    0 -0.00000000000E+00  0.00000000000E+00  0.21860151860E+04  0.21860151860E+04  0.00000000000E+00 0.  1.
         21   -1    0    0  505  502  0.00000000000E+00 -0.00000000000E+00 -0.10620491247E+03  0.10620491247E+03  0.00000000000E+00 0. -1.
         21    1    1    2  503  502 -0.42181822507E+02 -0.12989361838E+03  0.18282050439E+02  0.13778930152E+03  0.00000000000E+00 0. -1.
         21    1    1    2  504  503  0.70215314309E+02  0.13982975162E+03  0.33394668889E+03  0.36878576548E+03  0.00000000000E+00 0.  1.
         21    1    1    2  505  501  0.25817978862E+02  0.15427818633E+02 -0.20597223859E+02  0.36453137739E+02  0.00000000000E+00 0. -1.
          2    1    1    2  501    0 -0.53851470663E+02 -0.25363951883E+02  0.17481787581E+04  0.17491918938E+04  0.00000000000E+00 0.  1.
<scales pt_clust_3="14000.00000" pt_clust_4="125.72380" pt_clust_5="30.07633" pt_clust_6="59.33053"></scales>
<clustering>
<clus scale="   30.076">  2  5  1 -1</clus>
<clus scale="   59.331">  1  6  2 -1</clus>
<clus scale="  125.724">  1  4  2 -1</clus>
<clus scale="   30.076">  2  3  1 -1</clus>
</clustering>
</event>
<event>
 6    0  0.3584505E+002  0.9805451E+02  0.7546771E-02  0.1284441E+00
          1   -1    0    0  503    0 -0.00000000000E+00  0.00000000000E+00  0.37747426140E+04  0.37747426140E+04  0.00000000000E+00 0. -1.
         21   -1    0    0  505  502  0.00000000000E+00 -0.00000000000E+00 -0.27163086063E+03  0.27163086063E+03  0.00000000000E+00 0. -1.
         21    1    1    2  503  504  0.24656903495E+02 -0.40108866182E+02  0.44584860334E+02  0.64842068192E+02  0.00000000000E+00 0.  1.
         21    1    1    2  504  502  0.35127308522E+02  0.39767408185E+01 -0.97503438030E+02  0.10371433218E+03  0.00000000000E+00 0.  1.
         21    1    1    2  505  501 -0.13458895826E+03 -0.27122688330E+02 -0.13083449464E+03  0.18965097652E+03  0.00000000000E+00 0. -1.
          1    1    1    2  501    0  0.74804746240E+02  0.63254813693E+02  0.36868648257E+04  0.36881660977E+04  0.00000000000E+00 0. -1.
<scales pt_clust_3="48.00798" pt_clust_4="35.35169" pt_clust_5="14000.00000" pt_clust_6="98.05451"></scales>
<clustering>
<clus scale="   35.352">  2  4  1 -1</clus>
<clus scale="   48.008">  2  3  1 -1</clus>
<clus scale="   98.055">  1  6  2 -1</clus>
<clus scale="   35.352">  2  3  1 -1</clus>
</clustering>
</event>
<event>
 6    0  0.3584505E+002  0.1019238E+03  0.7546771E-02  0.1276302E+00
          2   -1    0    0  503    0 -0.00000000000E+00  0.00000000000E+00  0.22752766265E+04  0.22752766265E+04  0.00000000000E+00 0.  1.
         21   -1    0    0  504  502  0.00000000000E+00 -0.00000000000E+00 -0.11760246470E+03  0.11760246470E+03  0.00000000000E+00 0. -1.
         21    1    1    2  503  502  0.28148256260E+02  0.10926436673E+02  0.76986912679E+01  0.31160571177E+02  0.00000000000E+00 0. -1.
         21    1    1    2  504  505 -0.12759171105E+03 -0.38445180945E+02 -0.58188468112E+02  0.14540830268E+03  0.00000000000E+00 0. -1.
         21    1    1    2  505  501  0.81428810513E+02 -0.38322822964E+02  0.60134957238E+03  0.60804654275E+03  0.00000000000E+00 0. -1.
          2    1    1    2  501    0  0.18014644274E+02  0.65841567237E+02  0.16068143663E+04  0.16082636746E+04  0.00000000000E+00 0.  1.
<scales pt_clust_3="30.19456" pt_clust_4="14000.00000" pt_clust_5="101.92375" pt_clust_6="68.38473"></scales>
<clustering>
<clus scale="   30.195">  2  3  1 -1</clus>
<clus scale="   68.385">  1  6  2 -1</clus>
<clus scale="  101.924">  1  5  2 -1</clus>
<clus scale="   30.195">  2  3  1 -1</clus>
</clustering>
</event>
<event>
 6    0  0.3584505E+002  0.8819364E+02  0.7546771E-02  0.1307286E+00
          2   -1    0    0  504    0 -0.00000000000E+00  0.00000000000E+00  0.11432035766E+04  0.11432035766E+04  0.00000000000E+00 0. -1.
         21   -1    0    0  501  502  0.00000000000E+00 -0.00000000000E+00 -0.47948779277E+02  0.47948779277E+02  0.00000000000E+00 0. -1.
         21    1    1    2  503  502 -0.37458469633E+01  0.49509753529E+02  0.36375979675E+02  0.61550458660E+02  0.00000000000E+00 0. -1.
         21    1    1    2  504  505  0.58461503497E+02  0.79392087708E+02  0.33890968098E+03  0.35295980343E+03  0.00000000000E+00 0. -1.
         21    1    1    2  505  503 -0.20700188724E+02 -0.11948231400E+03  0.10425623529E+03  0.15991836595E+03  0.00000000000E+00 0. -1.
          2    1    1    2  501    0 -0.34015467810E+02 -0.94195272392E+01  0.61571290141E+03  0.61672372786E+03  0.00000000000E+00 0. -1.
<scales pt_clust_3="49.12248" pt_clust_4="14000.00000" pt_clust_5="88.19364" pt_clust_6="35.29560"></scales>
<clustering>
<clus scale="   35.296">  1  6  2 -1</clus>
<clus scale="   49.122">  2  3  1 -1</clus>
<clus scale="   88.194">  2  5  1 -1</clus>
<clus scale="   49.122">  2  3  1 -1</clus>
</clustering>
</event>
<event>
 6    0  0.3584505E+002  0.1006410E+03  0.7546771E-02  0.1278954E+00
         -1   -1    0    0    0  501 -0.00000000000E+00  0.00000000000E+00  0.96534487042E+03  0.96534487042E+03  0.00000000000E+00 0.  1.
         21   -1    0    0  505  502  0.00000000000E+00 -0.00000000000E+00 -0.14505719666E+03  0.14505719666E+03  0.00000000000E+00 0. -1.
         21    1    1    2  503  504  0.11471782940E+02 -0.45303663074E+02 -0.74530037034E+02  0.87970166034E+02  0.00000000000E+00 0. -1.
         21    1    1    2  504  502 -0.13108670560E+02 -0.45969473316E+02 -0.34410692110E+02  0.58899282273E+02  0.00000000000E+00 0. -1.
         21    1    1    2  505  501 -0.35306444903E+02  0.16646143786E+03  0.58407661193E+03  0.60835963372E+03  0.00000000000E+00 0.  1.
         -1    1    1    2    0  503  0.36943332523E+02 -0.75188301469E+02  0.34515179097E+03  0.35517298505E+03  0.00000000000E+00 0.  1.
<scales pt_clust_3="36.58533" pt_clust_4="36.58533" pt_clust_5="93.59231" pt_clust_6="83.77404"></scales>
<clustering>
<clus scale="   36.585">  3  4 -1 -1</clus>
<clus scale="   83.774">  1  6  2 -1</clus>
<clus scale="   93.592">  1  5  2 -1</clus>
<clus scale="  100.641">  2  3  1 -1</clus>
</clustering>
</event>
<event>
 6    0  0.3584505E+002  0.1122687E+03  0.7546771E-02  0.1256425E+00
          2   -1    0    0  505    0 -0.00000000000E+00  0.00000000000E+00  0.15436295780E+04  0.15436295780E+04  0.00000000000E+00 0.  1.
         21   -1    0    0  504  502  0.00000000000E+00 -0.00000000000E+00 -0.12374202616E+03  0.12374202616E+03  0.00000000000E+00 0.  1.
         21    1    1    2  503  501  0.44618897009E+02 -0.52790729607E+02  0.15810568673E+03  0.17255467330E+03  0.00000000000E+00 0.  1.
         21    1    1    2  504  503 -0.66952995592E+02  0.10999093203E+03 -0.16923908366E+02  0.12987350547E+03  0.00000000000E+00 0.  1.
         21    1    1    2  505  502 -0.37036274186E+02 -0.27920875431E+02 -0.29562242618E+02  0.55001700693E+02  0.00000000000E+00 0.  1.
          2    1    1    2  501    0  0.59370372769E+02 -0.29279326995E+02  0.13082680161E+04  0.13099417247E+04  0.00000000000E+00 0.  1.
<scales pt_clust_3="112.26874" pt_clust_4="14000.00000" pt_clust_5="46.38169" pt_clust_6="65.98458"></scales>
<clustering>
<clus scale="   46.382">  2  5  1 -1</clus>
<clus scale="   65.985">  1  6  2 -1</clus>
<clus scale="  112.269">  1  3  2 -1</clus>
<clus scale="   46.382">  2  3  1 -1</clus>
</clustering>
</event>
<event>
 6    0  0.3584505E+002  0.7362285E+02  0.7546771E-02  0.1348189E+00
         21   -1    0    0  503  502  0.00000000000E+00  0.00000000000E+00  0.22353113515E+03  0.22353113515E+03  0.00000000000E+00 0.  1.
          2   -1    0    0  504    0 -0.00000000000E+00 -0.00000000000E+00 -0.27895444874E+03  0.27895444874E+03  0.00000000000E+00 0. -1.
         21    1    1    2  503  505 -0.93805395206E+01  0.29912614589E+02  0.85172354613E+02  0.90758410209E+02  0.00000000000E+00 0.  1.
         21    1    1    2  504  502  0.12200445756E+03 -0.27076633184E+02  0.57817419388E+02  0.13769925822E+03  0.00000000000E+00 0.  1.
         21    1    1    2  505  501 -0.48368790302E+02 -0.32205354137E+02  0.53588945841E+01  0.58356169010E+02  0.00000000000E+00 0.  1.
          2    1    1    2  501    0 -0.64255127738E+02  0.29369372732E+02 -0.20377198218E+03  0.21567174645E+03  0.00000000000E+00 0. -1.
<scales pt_clust_3="31.34899" pt_clust_4="14000.00000" pt_clust_5="56.49316" pt_clust_6="73.62285"></scales>
<clustering>
<clus scale="   31.349">  1  3  2 -1</clus>
<clus scale="   56.493">  1  5  2 -1</clus>
<clus scale="   73.623">  2  6  1 -1</clus>
<clus scale="   31.349">  1  3  2 -1</clus>
</clustering>
</event>
<event>
 6    0  0.3584505E+002  0.9107987E+02  0.7546771E-02  0.1300258E+00
          1   -1    0    0  505    0 -0.00000000000E+00  0.00000000000E+00  0.12548860865E+04  0.12548860865E+04  0.00000000000E+00 0. -1.
         21   -1    0    0  503  502  0.00000000000E+00 -0.00000000000E+00 -0.36138344894E+02  0.36138344894E+02  0.00000000000E+00 0. -1.
         21    1    1    2  503  501  0.27437908708E+02 -0.47076131752E+02  0.15423624414E+03  0.16357817710E+03  0.00000000000E+00 0. -1.
         21    1    1    2  504  502  0.71073274020E+02  0.55581125840E+02  0.58451318746E+02  0.10750455103E+03  0.00000000000E+00 0. -1.
         21    1    1    2  505  504 -0.79575628348E+02 -0.52252520357E+02  0.36836640795E+03  0.38046868073E+03  0.00000000000E+00 0. -1.
          1    1    1    2  501    0 -0.18935554379E+02  0.43747526269E+02  0.63769377081E+03  0.63947302257E+03  0.00000000000E+00 0. -1.
<scales pt_clust_3="42.30991" pt_clust_4="91.07987" pt_clust_5="14000.00000" pt_clust_6="47.66971"></scales>
<clustering>
<clus scale="   47.670">  1  6  2 -1</clus>
<clus scale="   42.310">  1  3  2 -1</clus>
<clus scale="   91.080">  2  4  1 -1</clus>
<clus scale="   91.080">  2  3  1 -1</clus>
</clustering>
</event>
<event>
 6    0  0.3584505E+002  0.1641219E+03  0.7546771E-02  0.1184120E+00
          1   -1    0    0  505    0 -0.00000000000E+00  0.00000000000E+00  0.62974560967E+03  0.62974560967E+03  0.00000000000E+00 0. -1.
         21   -1    0    0  503  502  0.00000000000E+00 -0.00000000000E+00 -0.20048730257E+04  0.20048730257E+04  0.00000000000E+00 0. -1.
         21    1    1    2  503  504 -0.20333388596E+02  0.58340051519E+02 -0.97423888255E+03  0.97619588637E+03  0.00000000000E+00 0. -1.
         21    1    1    2  504  501  0.23357310502E+02  0.42052763169E+02 -0.62972028232E+03  0.63155493253E+03  0.00000000000E+00 0. -1.
         21    1    1    2  505  502  0.53342774688E+02  0.47229020797E+02 -0.38576164439E+03  0.39228571004E+03  0.00000000000E+00 0. -1.
          1    1    1    2  501    0 -0.56366696594E+02 -0.14762183549E+03  0.61459339323E+03  0.63458210643E+03  0.00000000000E+00 0. -1.
<scales pt_clust_3="40.33812" pt_clust_4="40.33812" pt_clust_5="71.24628" pt_clust_6="157.62666"></scales>
<clustering>
<clus scale="   40.338">  3  4 -1 -1</clus>
<clus scale="   71.246">  2  5  1 -1</clus>
<clus scale="  157.627">  1  6  2 -1</clus>
<clus scale="   71.246">  2  3  1 -1</clus>
</clustering>
</event>
<event>
 6    0  0.3584505E+002  0.9582566E+02  0.7546771E-02  0.1289327E+00
         21   -1    0    0  505  502  0.00000000000E+00  0.00000000000E+00  0.88407516462E+03  0.88407516462E+03  0.00000000000E+00 0.  1.
          1   -1    0    0  504    0 -0.00000000000E+00 -0.00000000000E+00 -0.54181506956E+03  0.54181506956E+03  0.00000000000E+00 0.  1.
         21    1    1    2  503  502 -0.91838100471E+02  0.22036488373E+02  0.14623989738E+03  0.17408604511E+03  0.00000000000E+00 0.  1.
         21    1    1    2  504  503  0.18816922247E+02  0.45115211498E+02 -0.11011785247E+03  0.12047987510E+03  0.00000000000E+00 0.  1.
         21    1    1    2  505  501 -0.48626453265E+01 -0.29796431455E+02  0.71388764970E+03  0.71452575113E+03  0.00000000000E+00 0.  1.
          1    1    1    2  501    0  0.77883823550E+02 -0.37355268417E+02 -0.40774959954E+03  0.41679856283E+03  0.00000000000E+00 0.  1.
<scales pt_clust_3="14000.00000" pt_clust_4="47.98671" pt_clust_5="30.19061" pt_clust_6="95.82566"></scales>
<clustering>
<clus scale="   30.191">  1  5  2 -1</clus>
<clus scale="   47.987">  2  4  1 -1</clus>
<clus scale="   95.826">  2  6  1 -1</clus>
<clus scale="   30.191">  1  3  2 -1</clus>
</clustering>
</event>
<event>
 6    0  0.3584505E+002  0.1095541E+03  0.7546771E-02  0.1261398E+00
         21   -1    0    0  501  502  0.00000000000E+00  0.00000000000E+00  0.24348526058E+02  0.24348526058E+02  0.00000000000E+00 0. -1.
          2   -1    0    0  504    0 -0.00000000000E+00 -0.00000000000E+00 -0.31223630305E+04  0.31223630305E+04  0.00000000000E+00 0. -1.
         21    1    1    2  503  502 -0.81774116218E+02 -0.54681017873E+02 -0.16400318629E+03  0.19124347025E+03  0.00000000000E+00 0. -1.
         21    1    1    2  504  505 -0.45945396630E+02  0.44482866466E+01 -0.26780745298E+03  0.27175650609E+03  0.00000000000E+00 0. -1.
         21    1    1    2  505  503  0.11547734910E+03  0.11973297861E+03 -0.84926891765E+03  0.86540666672E+03  0.00000000000E+00 0. -1.
          2    1    1    2  501    0  0.12242163753E+02 -0.69500247386E+02 -0.18169349475E+04  0.18183049135E+04  0.00000000000E+00 0. -1.
<scales pt_clust_3="109.55405" pt_clust_4="46.16023" pt_clust_5="14000.00000" pt_clust_6="68.80755"></scales>
<clustering>
<clus scale="   46.160">  2  4  1 -1</clus>
<clus scale="   68.808">  2  6  1 -1</clus>
<clus scale="  109.554">  1  3  2 -1</clus>
<clus scale="  109.554">  1  3  2 -1</clus>
</clustering>
</event>
<event>
 6    0  0.3584505E+002  0.7040070E+02  0.7546771E-02  0.1358736E+00
         21   -1    0    0  504  502  0.00000000000E+00  0.00000000000E+00  0.44687505614E+02  0.44687505614E+02  0.00000000000E+00 0.  1.
          1   -1    0    0  505    0 -0.00000000000E+00 -0.00000000000E+00 -0.66675001735E+03  0.66675001735E+03  0.00000000000E+00 0.  1.
         21    1    1    2  503  502  0.20787344786E+02  0.41056984279E+02 -0.16577493150E+02  0.48914240671E+02  0.00000000000E+00 0.  1.
         21    1    1    2  504  501  0.12475121689E+02 -0.47735782121E+02 -0.10929027290E+03  0.11991120593E+03  0.00000000000E+00 0. -1.
         21    1    1    2  505  503 -0.72970290857E+02  0.61086602468E+02 -0.90372597795E+02  0.13123811482E+03  0.00000000000E+00 0.  1.
          1    1    1    2  501    0  0.39707824381E+02 -0.54407804626E+02 -0.40582214789E+03  0.41137396155E+03  0.00000000000E+00 0.  1.
<scales pt_clust_3="46.01945" pt_clust_4="43.29492" pt_clust_5="70.40070" pt_clust_6="14000.00000"></scales>
<clustering>
<clus scale="   46.019">  1  3  2 -1</clus>
<clus scale="   43.295">  1  4  2 -1</clus>
<clus scale="   70.401">  1  5  2 -1</clus>
<clus scale="   46.019">  1  3  2 -1</clus>
</clustering>
</event>
<event>
 6    0  0.3584505E+002  0.1292305E+03  0.7546771E-02  0.1228602E+00
          2   -1    0    0  505    0 -0.00000000000E+00  0.00000000000E+00  0.23980202978E+04  0.23980202978E+04  0.00000000000E+00 0.  1.
         21   -1    0    0  503  502  0.00000000000E+00 -0.00000000000E+00 -0.17720437680E+03  0.17720437680E+03  0.00000000000E+00 0.  1.
         21    1    1    2  503  504  0.61178499293E+02 -0.51506700932E+02 -0.93480585999E+02  0.12302182317E+03  0.00000000000E+00 0.  1.
         21    1    1    2  504  501  0.33852455807E+02 -0.87005259847E+02  0.37877613773E+02  0.10075027360E+03  0.00000000000E+00 0.  1.
         21    1    1    2  505  502 -0.63148669945E+02  0.15887989426E+03  0.15831612007E+03  0.23301195074E+03  0.00000000000E+00 0.  1.
          2    1    1    2  501    0 -0.31882285154E+02 -0.20367933479E+02  0.21181027732E+04  0.21184406271E+04  0.00000000000E+00 0.  1.
<scales pt_clust_3="79.40119" pt_clust_4="14000.00000" pt_clust_5="129.23047" pt_clust_6="37.83296"></scales>
<clustering>
<clus scale="   37.833">  1  6  2 -1</clus>
<clus scale="   79.401">  2  3  1 -1</clus>
<clus scale="  129.230">  2  5  1 -1</clus>
<clus scale="   79.401">  2  3  1 -1</clus>
</clustering>
</event>
<event>
 6    0  0.3584505E+002  0.7279073E+02  0.7546771E-02  0.1350852E+00
          2   -1    0    0  505    0 -0.00000000000E+00  0.00000000000E+00  0.13484130857E+04  0.13484130857E+04  0.00000000000E+00 0.  1.
         21   -1    0    0  504  502  0.00000000000E+00 -0.00000000000E+00 -0.55043911667E+02  0.55043911667E+02  0.00000000000E+00 0. -1.
         21    1    1    2  503  501 -0.67406054498E+01  0.66721793415E+02  0.98941991534E+02  0.11952719844E+03  0.00000000000E+00 0.  1.
         21    1    1    2  504  503 -0.35180821862E+02 -0.38643013013E+01 -0.29998351337E+02  0.46395302934E+02  0.00000000000E+00 0. -1.
         21    1    1    2  505  502 -0.42404256487E+02 -0.45855051818E+02  0.20051670710E+03  0.21001846721E+03  0.00000000000E+00 0.  1.
          2    1    1    2  501    0  0.84325683799E+02 -0.17002440297E+02  0.10239088267E+04  0.10275160288E+04  0.00000000000E+00 0.  1.
<scales pt_clust_3="70.28152" pt_clust_4="35.39242" pt_clust_5="72.79073" pt_clust_6="14000.00000"></scales>
<clustering>
<clus scale="   35.392">  2  4  1 -1</clus>
<clus scale="   70.282">  2  3  1 -1</clus>
<clus scale="   72.791">  2  5  1 -1</clus>
<clus scale="   35.392">  2  3  1 -1</clus>
</clustering>
</event>
<event>
 6    0  0.3584505E+002  0.9531854E+02  0.7546771E-02  0.1290460E+00
          1   -1    0    0  503    0 -0.00000000000E+00  0.00000000000E+00  0.48408111074E+03  0.48408111074E+03  0.00000000000E+00 0. -1.
         21   -1    0    0  505  502  0.00000000000E+00 -0.00000000000E+00 -0.23621464369E+03  0.23621464369E+03  0.00000000000E+00 0. -1.
         21    1    1    2  503  504  0.16977241626E+01 -0.48946157723E+02  0.88280183704E+02  0.10095543303E+03  0.00000000000E+00 0. -1.
         21    1    1    2  504  502 -0.95399076851E+02  0.88033614858E+02 -0.13441563563E+03  0.18686482899E+03  0.00000000000E+00 0. -1.
         21    1    1    2  505  501  0.57565385776E+02 -0.41878650275E+02 -0.49730667600E+02  0.86837401437E+02  0.00000000000E+00 0. -1.
          1    1    1    2  501    0  0.36135966912E+02  0.27911931412E+01  0.34373258658E+03  0.34563809098E+03  0.00000000000E+00 0. -1.
<scales pt_clust_3="53.86689" pt_clust_4="14000.00000" pt_clust_5="95.31854" pt_clust_6="36.24360"></scales>
<clustering>
<clus scale="   36.244">  1  6  2 -1</clus>
<clus scale="   53.867">  1  3  2 -1</clus>
<clus scale="   95.319">  2  5  1 -1</clus>
<clus scale="   95.319">  2  3  1 -1</clus>
</clustering>
</event>
<event>
 6    0  0.3584505E+002  0.1057063E+03  0.7546771E-02  0.1268734E+00
         21   -1    0    0  505  502  0.00000000000E+00  0.00000000000E+00  0.45195183070E+03  0.45195183070E+03  0.00000000000E+00 0.  1.
          1   -1    0    0  503    0 -0.00000000000E+00 -0.00000000000E+00 -0.30912853708E+04  0.30912853708E+04  0.00000000000E+00 0.  1.
         21    1    1    2  503  504  0.30976530693E+02 -0.35922633093E+02 -0.28769173949E+03  0.29157592149E+03  0.00000000000E+00 0.  1.
         21    1    1    2  504  502 -0.61161756294E+02  0.12452982782E+03  0.20536249665E+03  0.24783501262E+03  0.00000000000E+00 0.  1.
         21    1    1    2  505  501  0.61898118490E+02 -0.68477308131E+02  0.21374367100E+03  0.23282370089E+03  0.00000000000E+00 0. -1.
          1    1    1    2  501    0 -0.31712892889E+02 -0.20129886594E+02 -0.27707479682E+04  0.27710025665E+04  0.00000000000E+00 0.  1.
<scales pt_clust_3="54.16826" pt_clust_4="14000.00000" pt_clust_5="105.70626" pt_clust_6="37.56221"></scales>
<clustering>
<clus scale="   37.562">  2  6  1 -1</clus>
<clus scale="   54.168">  2  3  1 -1</clus>
<clus scale="  105.706">  1  5  2 -1</clus>
<clus scale="  105.706">  1  3  2 -1</clus>
</clustering>
</event>
<event>
 6    0  0.3584505E+002  0.1154092E+03  0.7546771E-02  0.1250869E+00
          1   -1    0    0  502    0 -0.00000000000E+00  0.00000000000E+00  0.42332341307E+03  0.42332341307E+03  0.00000000000E+00 0. -1.
         21   -1    0    0  505  502  0.00000000000E+00 -0.00000000000E+00 -0.26423647691E+04  0.26423647691E+04  0.00000000000E+00 0. -1.
         21    1    1    2  503  501  0.11236323152E+02  0.10063796627E+03  0.14844840934E+03  0.17969748314E+03  0.00000000000E+00 0. -1.
         21    1    1    2  504  503 -0.70058687566E+02 -0.60006272510E+02 -0.17158295804E+04  0.17183073420E+04  0.00000000000E+00 0. -1.
         21    1    1    2  505  504  0.59968393289E+01 -0.36812129622E+02 -0.90656624867E+03  0.90733315722E+03  0.00000000000E+00 0. -1.
          1    1    1    2  501    0  0.52825525085E+02 -0.38195641371E+01  0.25490606377E+03  0.26035019977E+03  0.00000000000E+00 0. -1.
<scales pt_clust_3="14000.00000" pt_clust_4="115.40918" pt_clust_5="37.29739" pt_clust_6="52.97701"></scales>
<clustering>
<clus scale="   37.297">  2  5  1 -1</clus>
<clus scale="   52.977">  1  6  2 -1</clus>
<clus scale="  115.409">  2  4  1 -1</clus>
<clus scale="   37.297">  2  3  1 -1</clus>
</clustering>
</event>
<event>
 6    0  0.3584505E+002  0.1041645E+03  0.7546771E-02  0.1271775E+00
         -2   -1    0    0    0  501 -0.00000000000E+00  0.00000000000E+00  0.11146902981E+03  0.11146902981E+03  0.00000000000E+00 0.  1.
         21   -1    0    0  505  502  0.00000000000E+00 -0.00000000000E+00 -0.17922046184E+04  0.17922046184E+04  0.00000000000E+00 0. -1.
         21    1    1    2  503  501 -0.71038136473E+01  0.37344343861E+02  0.14182911449E+02  0.40573626457E+02  0.00000000000E+00 0. -1.
         21    1    1    2  504  502  0.64894102168E+01  0.92985465112E+02 -0.13521141289E+03  0.16422708468E+03  0.00000000000E+00 0.  1.
         21    1    1    2  505  503  0.33762733729E+02 -0.10074510254E+03 -0.16202755648E+04  0.16237556478E+04  0.00000000000E+00 0. -1.
         -2    1    1    2    0  504 -0.33148330298E+02 -0.29584706427E+02  0.60568477674E+02  0.75117289246E+02  0.00000000000E+00 0.  1.
<scales pt_clust_3="38.01400" pt_clust_4="104.16452" pt_clust_5="14000.00000" pt_clust_6="38.88336"></scales>
<clustering>
<clus scale="   38.014">  1  3  2 -1</clus>
<clus scale="   38.883">  1  6  2 -1</clus>
<clus scale="  104.165">  1  4  2 -1</clus>
<clus scale="  104.165">  2  3  1 -1</clus>
</clustering>
</event>
<event>
 6    0  0.3584505E+002  0.1047477E+03  0.7546771E-02  0.1270618E+00
         21   -1    0    0  505  502  0.00000000000E+00  0.00000000000E+00  0.14078146574E+03  0.14078146574E+03  0.00000000000E+00 0. -1.
          3   -1    0    0  503    0 -0.00000000000E+00 -0.00000000000E+00 -0.69020760721E+03  0.69020760721E+03  0.00000000000E+00 0.  1.
         21    1    1    2  503  502  0.62108398477E+02  0.46431917371E+01 -0.30174611500E+01  0.62354770969E+02  0.00000000000E+00 0. -1.
         21    1    1    2  504  501 -0.54982716106E+02  0.56040436891E+02 -0.28558515726E+03  0.29617986374E+03  0.00000000000E+00 0.  1.
         21    1    1    2  505  504  0.37502772993E+02 -0.62373010656E+02  0.91723483901E+02  0.11708991391E+03  0.00000000000E+00 0. -1.
          3    1    1    2  501    0 -0.44628455364E+02  0.16893820275E+01 -0.35254700695E+03  0.35536452433E+03  0.00000000000E+00 0.  1.
<scales pt_clust_3="57.96987" pt_clust_4="104.74770" pt_clust_5="14000.00000" pt_clust_6="44.66042"></scales>
<clustering>
<clus scale="   44.660">  2  6  1 -1</clus>
<clus scale="   57.970">  1  3  2 -1</clus>
<clus scale="  104.748">  2  4  1 -1</clus>
<clus scale="   57.970">  1  3  2 -1</clus>
</clustering>
</event>
<event>
 6    0  0.3584505E+002  0.1065906E+03  0.7546771E-02  0.1267017E+00
         -2   -1    0    0    0  501 -0.00000000000E+00  0.00000000000E+00  0.57643436151E+03  0.57643436151E+03  0.00000000000E+00 0. -1.
         21   -1    0    0  504  502  0.00000000000E+00 -0.00000000000E+00 -0.15508551316E+04  0.15508551316E+04  0.00000000000E+00 0. -1.
         21    1    1    2  503  505 -0.14555510205E+03  0.33025930106E+02 -0.35837753199E+03  0.38821573285E+03  0.00000000000E+00 0. -1.
         21    1    1    2  504  501  0.45131815410E+02  0.32232973204E+02  0.27731048744E+02  0.62006905971E+02  0.00000000000E+00 0.  1.
         21    1    1    2  505  502  0.98391102750E+02  0.28538672937E+02 -0.11538730651E+04  0.11584119800E+04  0.00000000000E+00 0. -1.
         -2    1    1    2    0  503  0.20321838948E+01 -0.93797576247E+02  0.51009877826E+03  0.51865487433E+03  0.00000000000E+00 0. -1.
<scales pt_clust_3="14000.00000" pt_clust_4="55.46030" pt_clust_5="106.59063" pt_clust_6="77.51474"></scales>
<clustering>
<clus scale="   55.460">  1  4  2 -1</clus>
<clus scale="   77.515">  1  6  2 -1</clus>
<clus scale="  106.591">  2  5  1 -1</clus>
<clus scale="  106.591">  2  3  1 -1</clus>
</clustering>
</event>
<event>
 6    0  0.3584505E+002  0.1692072E+03  0.7546771E-02  0.1178677E+00
         21   -1    0    0  503  502  0.00000000000E+00  0.00000000000E+00  0.33924360040E+03  0.33924360040E+03  0.00000000000E+00 0.  1.
          1   -1    0    0  504    0 -0.00000000000E+00 -0.00000000000E+00 -0.32826921459E+03  0.32826921459E+03  0.00000000000E+00 0.  1.
         21    1    1    2  503  501 -0.56492177053E+02 -0.90952093159E+02 -0.12587162047E+03  0.16524924859E+03  0.00000000000E+00 0.  1.
         21    1    1    2  504  505  0.51326336627E+02  0.91169952845E+02  0.12955499612E+03  0.16652582428E+03  0.00000000000E+00 0.  1.
         21    1    1    2  505  502  0.41056822597E+02  0.32945329408E+02  0.16365651970E+03  0.17191426309E+03  0.00000000000E+00 0.  1.
          1    1    1    2  501    0 -0.35890982171E+02 -0.33163189094E+02 -0.15636550953E+03  0.16382347903E+03  0.00000000000E+00 0.  1.
<scales pt_clust_3="46.27498" pt_clust_4="169.02278" pt_clust_5="48.26237" pt_clust_6="46.27498"></scales>
<clustering>
<clus scale="   46.275">  3  6 -1 -1</clus>
<clus scale="   48.262">  4  5 -1 -1</clus>
<clus scale="  169.023">  1  4  2 -1</clus>
<clus scale="  169.023">  1  3  2 -1</clus>
</clustering>
</event>
<event>
 6    0  0.3584505E+002  0.8826001E+02  0.7546771E-02  0.1307121E+00
         21   -1    0    0  505  502  0.00000000000E+00  0.00000000000E+00  0.13839600250E+03  0.13839600250E+03  0.00000000000E+00 0.  1.
          2   -1    0    0  504    0 -0.00000000000E+00 -0.00000000000E+00 -0.52102068610E+03  0.52102068610E+03  0.00000000000E+00 0.  1.
         21    1    1    2  503  501 -0.10621852102E+01  0.67254874613E+02  0.13534545176E+02  0.68611444452E+02  0.00000000000E+00 0.  1.
         21    1    1    2  504  502  0.41676481113E+02 -0.11402909156E+03 -0.15585049462E+02  0.12240284542E+03  0.00000000000E+00 0.  1.
         21    1    1    2  505  503  0.24581483955E+02  0.24863923275E+02  0.33638551070E+02  0.48518204337E+02  0.00000000000E+00 0.  1.
          2    1    1    2  501    0 -0.65195779858E+02  0.21910293673E+02 -0.41421273038E+03  0.41988419438E+03  0.00000000000E+00 0.  1.
<scales pt_clust_3="14000.00000" pt_clust_4="88.26001" pt_clust_5="34.96375" pt_clust_6="68.33696"></scales>
<clustering>
<clus scale="   34.964">  1  5  2 -1</clus>
<clus scale="   68.337">  2  6  1 -1</clus>
<clus scale="   88.260">  2  4  1 -1</clus>
<clus scale="   34.964">  1  3  2 -1</clus>
</clustering>
</event>
<event>
 6    0  0.3584505E+002  0.2385309E+03  0.7546771E-02  0.1120775E+00
          2   -1    0    0  503    0 -0.00000000000E+00  0.00000000000E+00  0.25721008547E+04  0.25721008547E+04  0.00000000000E+00 0.  1.
         21   -1    0    0  504  502  0.00000000000E+00 -0.00000000000E+00 -0.21812845628E+04  0.21812845628E+04  0.00000000000E+00 0. -1.
         21    1    1    2  503  505 -0.85490674717E+02 -0.29116496538E+03 -0.99889084414E+01  0.30362060341E+03  0.00000000000E+00 0. -1.
         21    1    1    2  504  501 -0.97513379641E+02  0.22365853216E+03 -0.68238461664E+03  0.72469356506E+03  0.00000000000E+00 0. -1.
         21    1    1    2  505  502  0.32233010663E+02  0.10359685086E+01 -0.13179199358E+04  0.13183144531E+04  0.00000000000E+00 0. -1.
          2    1    1    2  501    0  0.15077104369E+03  0.66470464703E+02  0.24011097527E+04  0.24067567959E+04  0.00000000000E+00 0.  1.
<scales pt_clust_3="238.53090" pt_clust_4="14000.00000" pt_clust_5="32.24965" pt_clust_6="164.87112"></scales>
<clustering>
<clus scale="   32.250">  2  5  1 -1</clus>
<clus scale="  164.871">  1  6  2 -1</clus>
<clus scale="  238.531">  1  3  2 -1</clus>
<clus scale="   32.250">  2  3  1 -1</clus>
</clustering>
</event>
<event>
 6    0  0.3584505E+002  0.2361982E+03  0.7546771E-02  0.1122352E+00
         21   -1    0    0  501  502  0.00000000000E+00  0.00000000000E+00  0.39378887911E+03  0.39378887911E+03  0.00000000000E+00 0. -1.
          2   -1    0    0  503    0 -0.00000000000E+00 -0.00000000000E+00 -0.28443554077E+03  0.28443554077E+03  0.00000000000E+00 0. -1.
         21    1    1    2  503  504  0.54700200935E+02  0.25704194072E+03 -0.68882757999E+02  0.27167536808E+03  0.00000000000E+00 0. -1.
         21    1    1    2  504  505 -0.39844704259E+02 -0.17601799924E+03  0.15473730455E+03  0.23772582933E+03  0.00000000000E+00 0. -1.
         21    1    1    2  505  502 -0.23549982986E+01 -0.36262535711E+02  0.84589336171E+02  0.92064506228E+02  0.00000000000E+00 0. -1.
          2    1    1    2  501    0 -0.12500498377E+02 -0.44761405776E+02 -0.61090544374E+02  0.76758716239E+02  0.00000000000E+00 0. -1.
<scales pt_clust_3="226.16145" pt_clust_4="30.56808" pt_clust_5="30.56808" pt_clust_6="46.47414"></scales>
<clustering>
<clus scale="   30.568">  4  5 -1 -1</clus>
<clus scale="   46.474">  2  6  1 -1</clus>
<clus scale="  226.161">  2  3  1 -1</clus>
<clus scale="  236.198">  1  3  2 -1</clus>
</clustering>
</event>
<event>
 6    0  0.3584505E+002  0.1564175E+03  0.7546771E-02  0.1192802E+00
         21   -1    0    0  501  502  0.00000000000E+00  0.00000000000E+00  0.89556477895E+03  0.89556477895E+03  0.00000000000E+00 0.  1.
          2   -1    0    0  503    0 -0.00000000000E+00 -0.00000000000E+00 -0.13471578098E+04  0.13471578098E+04  0.00000000000E+00 0.  1.
         21    1    1    2  503  504  0.10128557048E+03  0.45148924701E+02 -0.21823787902E+03  0.24479575983E+03  0.00000000000E+00 0.  1.
         21    1    1    2  504  505 -0.19665445666E+02 -0.13013818794E+03  0.43866021434E+03  0.45797976086E+03  0.00000000000E+00 0.  1.
         21    1    1    2  505  502  0.14007346886E+02 -0.27881508680E+02  0.42844914247E+03  0.42958381252E+03  0.00000000000E+00 0.  1.
          2    1    1    2  501    0 -0.95627471698E+02  0.11287077192E+03 -0.11004645086E+04  0.11103632555E+04  0.00000000000E+00 0.  1.
<scales pt_clust_3="110.93730" pt_clust_4="14000.00000" pt_clust_5="31.20231" pt_clust_6="156.41751"></scales>
<clustering>
<clus scale="   31.202">  1  5  2 -1</clus>
<clus scale="  110.937">  2  3  1 -1</clus>
<clus scale="  156.418">  2  6  1 -1</clus>
<clus scale="   31.202">  1  3  2 -1</clus>
</clustering>
</event>
<event>
 6    0  0.3584505E+002  0.8229630E+02  0.7546771E-02  0.1322658E+00
         21   -1    0    0  503  502  0.00000000000E+00  0.00000000000E+00  0.48335085449E+03  0.48335085449E+03  0.00000000000E+00 0. -1.
          2   -1    0    0  504    0 -0.00000000000E+00 -0.00000000000E+00 -0.13634129911E+04  0.13634129911E+04  0.00000000000E+00 0.  1.
         21    1    1    2  503  501 -0.57681786512E+02  0.62949212213E+02  0.39878093122E+03  0.40781861522E+03  0.00000000000E+00 0. -1.
         21    1    1    2  504  505 -0.55418270328E+02 -0.27023751870E+02 -0.10940195063E+04  0.10957555148E+04  0.00000000000E+00 0.  1.
         21    1    1    2  505  502  0.81606341829E+02 -0.12754294166E+02  0.55626142041E+02  0.99581799165E+02  0.00000000000E+00 0.  1.
          2    1    1    2  501    0  0.31493715011E+02 -0.23171166177E+02 -0.24044970348E+03  0.24360791640E+03  0.00000000000E+00 0.  1.
<scales pt_clust_3="14000.00000" pt_clust_4="55.43835" pt_clust_5="82.29630" pt_clust_6="39.09932"></scales>
<clustering>
<clus scale="   39.099">  2  6  1 -1</clus>
<clus scale="   55.438">  2  4  1 -1</clus>
<clus scale="   82.296">  2  5  1 -1</clus>
<clus scale="   82.296">  1  3  2 -1</clus>
</clustering>
</event>
<event>
 6    0  0.3584505E+002  0.7515488E+02  0.7546771E-02  0.1343392E+00
          1   -1    0    0  503    0 -0.00000000000E+00  0.00000000000E+00  0.12071934814E+04  0.12071934814E+04  0.00000000000E+00 0. -1.
         21   -1    0    0  504  502  0.00000000000E+00 -0.00000000000E+00 -0.57247698923E+02  0.57247698923E+02  0.00000000000E+00 0. -1.
         21    1    1    2  503  505  0.39641428985E+02 -0.43506101463E+02  0.19248396076E+03  0.20128164076E+03  0.00000000000E+00 0.  1.
         21    1    1    2  504  501  0.67832993453E+02 -0.41910985691E+01 -0.48162216238E+01  0.68132784316E+02  0.00000000000E+00 0. -1.
         21    1    1    2  505  502 -0.31043844222E+02 -0.58879384772E+02  0.84806633921E+02  0.10780847542E+03  0.00000000000E+00 0. -1.
          1    1    1    2  501    0 -0.76430578216E+02  0.10657658480E+03  0.87747140943E+03  0.88721827984E+03  0.00000000000E+00 0. -1.
<scales pt_clust_3="58.85766" pt_clust_4="75.15488" pt_clust_5="68.67120" pt_clust_6="14000.00000"></scales>
<clustering>
<clus scale="   58.858">  1  3  2 -1</clus>
<clus scale="   68.671">  2  5  1 -1</clus>
<clus scale="   75.155">  2  4  1 -1</clus>
<clus scale="   68.671">  2  3  1 -1</clus>
</clustering>
</event>
<event>
 6    0  0.3584505E+002  0.1392256E+03  0.7546771E-02  0.1214375E+00
          2   -1    0    0  504    0 -0.00000000000E+00  0.00000000000E+00  0.27617052604E+04  0.27617052604E+04  0.00000000000E+00 0.  1.
         21   -1    0    0  505  502  0.00000000000E+00 -0.00000000000E+00 -0.48505713067E+03  0.48505713067E+03  0.00000000000E+00 0. -1.
         21    1    1    2  503  501  0.13410263986E+03  0.22825309157E+02 -0.14050955781E+03  0.19556954925E+03  0.00000000000E+00 0. -1.
         21    1    1    2  504  502 -0.21471490024E+02 -0.36494852645E+02 -0.50533565518E+02  0.65928297395E+02  0.00000000000E+00 0. -1.
         21    1    1    2  505  503 -0.13886653179E+03  0.53147546161E+02 -0.23720393191E+03  0.27995406878E+03  0.00000000000E+00 0. -1.
          2    1    1    2  501    0  0.26235381948E+02 -0.39478002673E+02  0.27048951850E+04  0.27053104756E+04  0.00000000000E+00 0.  1.
<scales pt_clust_3="139.22558" pt_clust_4="42.34264" pt_clust_5="14000.00000" pt_clust_6="47.40951"></scales>
<clustering>
<clus scale="   42.343">  2  4  1 -1</clus>
<clus scale="   47.410">  1  6  2 -1</clus>
<clus scale="  139.226">  1  3  2 -1</clus>
<clus scale="   42.343">  2  3  1 -1</clus>
</clustering>
</event>
<event>
 6    0  0.3584505E+002  0.4448115E+03  0.7546771E-02  0.1029281E+00
          1   -1    0    0  503    0 -0.00000000000E+00  0.00000000000E+00  0.28243723883E+04  0.28243723883E+04  0.00000000000E+00 0.  1.
         21   -1    0    0  504  502  0.00000000000E+00 -0.00000000000E+00 -0.18198947905E+03  0.18198947905E+03  0.00000000000E+00 0. -1.
         21    1    1    2  503  505  0.36733860191E+03 -0.34852175417E+03  0.14923187831E+04  0.15758871825E+04  0.00000000000E+00 0.  1.
         21    1    1    2  504  501 -0.12683440437E+03  0.33543211066E+03  0.22536878629E+03  0.42354782118E+03  0.00000000000E+00 0. -1.
         21    1    1    2  505  502 -0.24887119926E+03 -0.31152085387E+02  0.35064795278E+03  0.43111635672E+03  0.00000000000E+00 0.  1.
          1    1    1    2  501    0  0.83670017207E+01  0.44241728895E+02  0.57404738702E+03  0.57581050688E+03  0.00000000000E+00 0.  1.
<scales pt_clust_3="444.81149" pt_clust_4="14000.00000" pt_clust_5="248.52743" pt_clust_6="45.02596"></scales>
<clustering>
<clus scale="   45.026">  1  6  2 -1</clus>
<clus scale="  248.527">  2  5  1 -1</clus>
<clus scale="  444.811">  1  3  2 -1</clus>
<clus scale="  248.527">  2  3  1 -1</clus>
</clustering>
</event>
<event>
 6    0  0.3584505E+002  0.8030858E+02  0.7546771E-02  0.1328178E+00
         21   -1    0    0  503  502  0.00000000000E+00  0.00000000000E+00  0.29613997663E+03  0.29613997663E+03  0.00000000000E+00 0.  1.
          2   -1    0    0  505    0 -0.00000000000E+00 -0.00000000000E+00 -0.97086099793E+03  0.97086099793E+03  0.00000000000E+00 0.  1.
         21    1    1    2  503  501  0.98296134997E+01 -0.33352635093E+02 -0.13998429759E+02  0.37483004214E+02  0.00000000000E+00 0.  1.
         21    1    1    2  504  502  0.20066246853E+02  0.51669522215E+02  0.18207485163E+03  0.19032510446E+03  0.00000000000E+00 0.  1.
         21    1    1    2  505  504 -0.90064711339E+02  0.34590652179E+02  0.72319733705E+02  0.12057491169E+03  0.00000000000E+00 0.  1.
          2    1    1    2  501    0  0.60168850987E+02 -0.52907539301E+02 -0.91511717688E+03  0.91861795419E+03  0.00000000000E+00 0.  1.
<scales pt_clust_3="34.77096" pt_clust_4="39.90433" pt_clust_5="80.30858" pt_clust_6="14000.00000"></scales>
<clustering>
<clus scale="   34.771">  1  3  2 -1</clus>
<clus scale="   39.904">  1  4  2 -1</clus>
<clus scale="   80.309">  1  5  2 -1</clus>
<clus scale="   34.771">  1  3  2 -1</clus>
</clustering>
</event>
<event>
 6    0  0.3584505E+002  0.3386477E+03  0.7546771E-02  0.1067373E+00
         21   -1    0    0  504  502  0.00000000000E+00  0.00000000000E+00  0.61972731153E+03  0.61972731153E+03  0.00000000000E+00 0. -1.
          1   -1    0    0  505    0 -0.00000000000E+00 -0.00000000000E+00 -0.12062900568E+04  0.12062900568E+04  0.00000000000E+00 0. -1.
         21    1    1    2  503  501 -0.37322632389E+02 -0.18955565834E+03  0.25155507024E+03  0.31718177731E+03  0.00000000000E+00 0. -1.
         21    1    1    2  504  503  0.32237832536E+02 -0.26791853811E+02  0.26363765051E+03  0.26694923121E+03  0.00000000000E+00 0. -1.
         21    1    1    2  505  502 -0.28507182778E+02 -0.13602779045E+03 -0.79573635336E+02  0.16015050011E+03  0.00000000000E+00 0. -1.
          1    1    1    2  501    0  0.33591982631E+02  0.35237530260E+03 -0.10221818306E+04  0.10817358597E+04  0.00000000000E+00 0. -1.
<scales pt_clust_3="14000.00000" pt_clust_4="41.91755" pt_clust_5="141.27463" pt_clust_6="338.64769"></scales>
<clustering>
<clus scale="   41.918">  1  4  2 -1</clus>
<clus scale="  141.275">  1  5  2 -1</clus>
<clus scale="  338.648">  2  6  1 -1</clus>
<clus scale="   41.918">  1  3  2 -1</clus>
</clustering>
</event>
<event>
 6    0  0.3584505E+002  0.1795171E+03  0.7546771E-02  0.1168271E+00
         21   -1    0    0  505  502  0.00000000000E+00  0.00000000000E+00  0.52624260628E+02  0.52624260628E+02  0.00000000000E+00 0.  1.
          2   -1    0    0  504    0 -0.00000000000E+00 -0.00000000000E+00 -0.34363795105E+04  0.34363795105E+04  0.00000000000E+00 0.  1.
         21    1    1    2  503  502 -0.16295509512E+03  0.17306579784E+02 -0.16124027631E+03  0.22989629713E+03  0.00000000000E+00 0.  1.
         21    1    1    2  504  503 -0.30114254139E+02  0.26168299329E+02 -0.99139906380E+02  0.10686612760E+03  0.00000000000E+00 0. -1.
         21    1    1    2  505  501  0.94088071437E+02 -0.92967921912E+02 -0.31444730076E+03  0.34113443779E+03  0.00000000000E+00 0. -1.
          2    1    1    2  501    0  0.98981277818E+02  0.49493042799E+02 -0.28089277664E+04  0.28111069086E+04  0.00000000000E+00 0.  1.
<scales pt_clust_3="39.61229" pt_clust_4="39.61229" pt_clust_5="160.56501" pt_clust_6="110.66551"></scales>
<clustering>
<clus scale="   39.612">  3  4 -1 -1</clus>
<clus scale="  110.666">  2  6  1 -1</clus>
<clus scale="  160.565">  2  5  1 -1</clus>
<clus scale="  179.517">  1  3  2 -1</clus>
</clustering>
</event>
<event>
 6    0  0.3584505E+002  0.9376367E+02  0.7546771E-02  0.1293985E+00
         21   -1    0    0  504  502  0.00000000000E+00  0.00000000000E+00  0.21882690397E+03  0.21882690397E+03  0.00000000000E+00 0. -1.
          2   -1    0    0  505    0 -0.00000000000E+00 -0.00000000000E+00 -0.14072947824E+03  0.14072947824E+03  0.00000000000E+00 0. -1.
         21    1    1    2  503  501  0.54202868419E+01 -0.61241268274E+02  0.18693714404E+02  0.64259842884E+02  0.00000000000E+00 0. -1.
         21    1    1    2  504  503 -0.76848209264E+02  0.64074366364E+02  0.69064539464E+02  0.12157747449E+03  0.00000000000E+00 0. -1.
         21    1    1    2  505  502  0.10308296667E+03  0.10490373597E+02  0.41900277831E+02  0.11176662846E+03  0.00000000000E+00 0. -1.
          2    1    1    2  501    0 -0.31655044248E+02 -0.13323471687E+02 -0.51561105969E+02  0.61952436375E+02  0.00000000000E+00 0. -1.
<scales pt_clust_3="64.93346" pt_clust_4="93.76367" pt_clust_5="14000.00000" pt_clust_6="34.34468"></scales>
<clustering>
<clus scale="   34.345">  2  6  1 -1</clus>
<clus scale="   64.933">  2  3  1 -1</clus>
<clus scale="   93.764">  1  4  2 -1</clus>
<clus scale="   93.764">  1  3  2 -1</clus>
</clustering>
</event>
<event>
 6    0  0.3584505E+002  0.1728872E+03  0.7546771E-02  0.1174870E+00
         -1   -1    0    0    0  501 -0.00000000000E+00  0.00000000000E+00  0.27880548908E+03  0.27880548908E+03  0.00000000000E+00 0.  1.
         21   -1    0    0  505  502  0.00000000000E+00 -0.00000000000E+00 -0.71126808181E+03  0.71126808181E+03  0.00000000000E+00 0. -1.
         21    1    1    2  503  502  0.94284147451E+02 -0.17633689741E+02  0.66487682031E+02  0.11670929413E+03  0.00000000000E+00 0.  1.
         21    1    1    2  504  501 -0.13222349057E+03  0.46002731502E+02 -0.12401161859E+02  0.14054569214E+03  0.00000000000E+00 0. -1.
         21    1    1    2  505  504 -0.49106261823E+02 -0.54727695465E+02 -0.59029188573E+03  0.59485381058E+03  0.00000000000E+00 0. -1.
         -1    1    1    2    0  503  0.87045604940E+02  0.26358653704E+02  0.10374277283E+03  0.13796477405E+03  0.00000000000E+00 0.  1.
<scales pt_clust_3="52.65330" pt_clust_4="164.21362" pt_clust_5="73.52922" pt_clust_6="52.65330"></scales>
<clustering>
<clus scale="   52.653">  3  6 -1 -1</clus>
<clus scale="   73.529">  2  5  1 -1</clus>
<clus scale="  164.214">  2  4  1 -1</clus>
<clus scale="   73.529">  2  3  1 -1</clus>
</clustering>
</event>
<event>
 6    0  0.3584505E+002  0.9610628E+02  0.7546771E-02  0.1288704E+00
         -3   -1    0    0    0  501 -0.00000000000E+00  0.00000000000E+00  0.46381470050E+03  0.46381470050E+03  0.00000000000E+00 0. -1.
         21   -1    0    0  505  502  0.00000000000E+00 -0.00000000000E+00 -0.23100471381E+03  0.23100471381E+03  0.00000000000E+00 0.  1.
         21    1    1    2  503  504 -0.49266362465E+02  0.51074587601E+02  0.40924444346E+02  0.81918240424E+02  0.00000000000E+00 0.  1.
         21    1    1    2  504  502 -0.33359514591E+02 -0.13654716371E+02 -0.49433075544E+02  0.61179550919E+02  0.00000000000E+00 0.  1.
         21    1    1    2  505  501  0.11902704645E+03 -0.42594281063E+02 -0.12839402021E+03  0.18018527962E+03  0.00000000000E+00 0.  1.
         -3    1    1    2    0  503 -0.36401169396E+02  0.51744098336E+01  0.36971263811E+03  0.37153634335E+03  0.00000000000E+00 0. -1.
<scales pt_clust_3="14000.00000" pt_clust_4="36.04592" pt_clust_5="96.10628" pt_clust_6="36.92866"></scales>
<clustering>
<clus scale="   36.046">  2  4  1 -1</clus>
<clus scale="   36.929">  1  6  2 -1</clus>
<clus scale="   96.106">  2  5  1 -1</clus>
<clus scale="   36.046">  2  3  1 -1</clus>
</clustering>
</event>
<event>
 6    0  0.3584505E+002  0.8620062E+02  0.7546771E-02  0.1312322E+00
         21   -1    0    0  504  502  0.00000000000E+00  0.00000000000E+00  0.20847055042E+03  0.20847055042E+03  0.00000000000E+00 0. -1.
          2   -1    0    0  505    0 -0.00000000000E+00 -0.00000000000E+00 -0.11243855553E+03  0.11243855553E+03  0.00000000000E+00 0. -1.
         21    1    1    2  503  502 -0.39953342040E+02 -0.19603246852E+02  0.48118516329E+02  0.65543485115E+02  0.00000000000E+00 0. -1.
         21    1    1    2  504  501  0.71554134300E+02 -0.65346436826E+02  0.83515892196E+02  0.12792597543E+03  0.00000000000E+00 0. -1.
         21    1    1    2  505  503  0.25426622729E+02  0.32128199064E+02  0.21425002437E+01  0.41028339301E+02  0.00000000000E+00 0.  1.
          2    1    1    2  501    0 -0.57027414989E+02  0.52821484614E+02 -0.37744913878E+02  0.86411306094E+02  0.00000000000E+00 0. -1.
<scales pt_clust_3="41.07226" pt_clust_4="14000.00000" pt_clust_5="40.97236" pt_clust_6="86.20062"></scales>
<clustering>
<clus scale="   40.972">  2  5  1 -1</clus>
<clus scale="   41.072">  1  3  2 -1</clus>
<clus scale="   86.201">  2  6  1 -1</clus>
<clus scale="   41.072">  1  3  2 -1</clus>
</clustering>
</event>
<event>
 6    0  0.3584505E+002  0.9599071E+02  0.7546771E-02  0.1288960E+00
          2   -1    0    0  504    0 -0.00000000000E+00  0.00000000000E+00  0.14585627093E+04  0.14585627093E+04  0.00000000000E+00 0.  1.
         21   -1    0    0  501  502  0.00000000000E+00 -0.00000000000E+00 -0.22450471984E+03  0.22450471984E+03  0.00000000000E+00 0. -1.
         21    1    1    2  503  502 -0.90023393340E+02 -0.38419090774E+02 -0.19132155766E+03  0.21490504022E+03  0.00000000000E+00 0. -1.
         21    1    1    2  504  505 -0.43156209064E+01  0.51858835283E+02  0.34901335926E+03  0.35287148982E+03  0.00000000000E+00 0. -1.
         21    1    1    2  505  503  0.97019958481E+02 -0.63102876020E+02  0.15944434137E+03  0.19702117475E+03  0.00000000000E+00 0.  1.
          2    1    1    2  501    0 -0.26809442344E+01  0.49663131511E+02  0.91692184649E+03  0.91826972435E+03  0.00000000000E+00 0.  1.
<scales pt_clust_3="14000.00000" pt_clust_4="84.29462" pt_clust_5="95.99071" pt_clust_6="49.73544"></scales>
<clustering>
<clus scale="   49.735">  1  6  2 -1</clus>
<clus scale="   84.295">  1  4  2 -1</clus>
<clus scale="   95.991">  1  5  2 -1</clus>
<clus scale="   95.991">  2  3  1 -1</clus>
</clustering>
</event>
<event>
 6    0  0.3584505E+002  0.1110527E+03  0.7546771E-02  0.1258633E+00
          1   -1    0    0  504    0 -0.00000000000E+00  0.00000000000E+00  0.14647038212E+03  0.14647038212E+03  0.00000000000E+00 0.  1.
         21   -1    0    0  503  502  0.00000000000E+00 -0.00000000000E+00 -0.60090681511E+03  0.60090681511E+03  0.00000000000E+00 0.  1.
         21    1    1    2  503  505  0.28859042517E+02  0.11676800856E+03 -0.51865170326E+03  0.53241637978E+03  0.00000000000E+00 0.  1.
         21    1    1    2  504  502 -0.53437578303E+02 -0.17077798893E+02 -0.19764233787E+02  0.59479836307E+02  0.00000000000E+00 0.  1.
         21    1    1    2  505  501 -0.19355834284E+02 -0.57546842094E+02  0.13221714133E+02  0.62137758894E+02  0.00000000000E+00 0.  1.
          1    1    1    2  501    0  0.43934370070E+02 -0.42143367578E+02  0.70757789927E+02  0.93343222248E+02  0.00000000000E+00 0.  1.
<scales pt_clust_3="111.05272" pt_clust_4="56.10014" pt_clust_5="14000.00000" pt_clust_6="54.01790"></scales>
<clustering>
<clus scale="   56.100">  1  4  2 -1</clus>
<clus scale="   54.018">  1  6  2 -1</clus>
<clus scale="  111.053">  2  3  1 -1</clus>
<clus scale="  111.053">  2  3  1 -1</clus>
</clustering>
</event>
<event>
 6    0  0.3584505E+002  0.2175416E+03  0.7546771E-02  0.1135729E+00
         21   -1    0    0  505  502  0.00000000000E+00  0.00000000000E+00  0.11230945768E+04  0.11230945768E+04  0.00000000000E+00 0. -1.
          1   -1    0    0  503    0 -0.00000000000E+00 -0.00000000000E+00 -0.39283850377E+03  0.39283850377E+03  0.00000000000E+00 0. -1.
         21    1    1    2  503  504 -0.14028088076E+03  0.14432271944E+03  0.36283927942E+03  0.41492181859E+03  0.00000000000E+00 0. -1.
         21    1    1    2  504  502 -0.56902567475E+02 -0.16687825595E+02  0.48216418579E+03  0.48579696146E+03  0.00000000000E+00 0. -1.
         21    1    1    2  505  501  0.16207366546E+03 -0.15835211740E+03  0.19684325629E+03  0.30015085152E+03  0.00000000000E+00 0. -1.
          1    1    1    2  501    0  0.35109782777E+02  0.30717223548E+02 -0.31159064848E+03  0.31506344899E+03  0.00000000000E+00 0. -1.
<scales pt_clust_3="14000.00000" pt_clust_4="58.33372" pt_clust_5="217.54164" pt_clust_6="46.65024"></scales>
<clustering>
<clus scale="   46.650">  2  6  1 -1</clus>
<clus scale="   58.334">  1  4  2 -1</clus>
<clus scale="  217.542">  2  5  1 -1</clus>
<clus scale="   58.334">  1  3  2 -1</clus>
</clustering>
</event>
<event>
 6    0  0.3584505E+002  0.1370152E+03  0.7546771E-02  0.1217403E+00
         21   -1    0    0  504  502  0.00000000000E+00  0.00000000000E+00  0.12787431770E+03  0.12787431770E+03  0.00000000000E+00 0.  1.
         -1   -1    0    0    0  501 -0.00000000000E+00 -0.00000000000E+00 -0.94853770929E+03  0.94853770929E+03  0.00000000000E+00 0. -1.
         21    1    1    2  503  502 -0.64539272097E+02 -0.11824121714E+03 -0.71086018720E+02  0.15231390327E+03  0.00000000000E+00 0. -1.
         21    1    1    2  504  505 -0.35485435303E+01  0.78146595580E+02  0.13780206189E+02  0.79431584679E+02  0.00000000000E+00 0.  1.
         21    1    1    2  505  501  0.39703752771E+02  0.16877921177E+03 -0.19370305514E+03  0.25996862096E+03  0.00000000000E+00 0.  1.
         -1    1    1    2    0  503  0.28384062856E+02 -0.12868459022E+03 -0.56965452392E+03  0.58469791808E+03  0.00000000000E+00 0. -1.
<scales pt_clust_3="103.28608" pt_clust_4="78.22712" pt_clust_5="14000.00000" pt_clust_6="137.01521"></scales>
<clustering>
<clus scale="   78.227">  1  4  2 -1</clus>
<clus scale="  103.286">  1  3  2 -1</clus>
<clus scale="  137.015">  2  6  1 -1</clus>
<clus scale="   78.227">  1  3  2 -1</clus>
</clustering>
</event>
<event>
 6    0  0.3584505E+002  0.1508485E+03  0.7546771E-02  0.1199434E+00
          2   -1    0    0  504    0 -0.00000000000E+00  0.00000000000E+00  0.14955762123E+04  0.14955762123E+04  0.00000000000E+00 0. -1.
         21   -1    0    0  505  502  0.00000000000E+00 -0.00000000000E+00 -0.89060513310E+02  0.89060513310E+02  0.00000000000E+00 0. -1.
         21    1    1    2  503  501  0.92364116884E+02 -0.75854979986E+02  0.48427948002E+03  0.49881030748E+03  0.00000000000E+00 0. -1.
         21    1    1    2  504  502 -0.18076941404E+03  0.51060014751E+02  0.23656768355E+03  0.30207445284E+03  0.00000000000E+00 0. -1.
         21    1    1    2  505  503  0.45205891902E+02  0.31667740450E+02 -0.32633060662E+02  0.64119693512E+02  0.00000000000E+00 0. -1.
          2    1    1    2  501    0  0.43199405257E+02 -0.68727752140E+01  0.71830159608E+03  0.71963227178E+03  0.00000000000E+00 0. -1.
<scales pt_clust_3="150.84852" pt_clust_4="14000.00000" pt_clust_5="55.83509" pt_clust_6="43.74270"></scales>
<clustering>
<clus scale="   43.743">  1  6  2 -1</clus>
<clus scale="   55.835">  2  5  1 -1</clus>
<clus scale="  150.849">  1  3  2 -1</clus>
<clus scale="   55.835">  2  3  1 -1</clus>
</clustering>
</event>
<event>
 6    0  0.3584505E+002  0.8621676E+02  0.7546771E-02  0.1312281E+00
         21   -1    0    0  503  502  0.00000000000E+00  0.00000000000E+00  0.15811383321E+03  0.15811383321E+03  0.00000000000E+00 0.  1.
         -3   -1    0    0    0  501 -0.00000000000E+00 -0.00000000000E+00 -0.53756485722E+03  0.53756485722E+03  0.00000000000E+00 0. -1.
         21    1    1    2  503  501 -0.49062693190E+02  0.74401502862E+02  0.11078169740E+03  0.14218057522E+03  0.00000000000E+00 0.  1.
         21    1    1    2  504  502  0.10438531630E+02 -0.79805033230E+02 -0.43477899552E+02  0.91477505546E+02  0.00000000000E+00 0. -1.
         21    1    1    2  505  504  0.34500714781E+02  0.55171661955E+02 -0.20196335597E+03  0.21218720215E+03  0.00000000000E+00 0. -1.
         -3    1    1    2    0  505  0.41234467790E+01 -0.49768131587E+02 -0.24479146589E+03  0.24983340751E+03  0.00000000000E+00 0. -1.
<scales pt_clust_3="86.21676" pt_clust_4="14000.00000" pt_clust_5="42.29271" pt_clust_6="49.93866"></scales>
<clustering>
<clus scale="   49.939">  2  6  1 -1</clus>
<clus scale="   42.293">  2  5  1 -1</clus>
<clus scale="   86.217">  1  3  2 -1</clus>
<clus scale="   86.217">  1  3  2 -1</clus>
</clustering>
</event>
<event>
 6    0  0.3584505E+002  0.1441698E+03  0.7546771E-02  0.1207826E+00
         21   -1    0    0  501  502  0.00000000000E+00  0.00000000000E+00  0.16411146678E+03  0.16411146678E+03  0.00000000000E+00 0. -1.
          2   -1    0    0  505    0 -0.00000000000E+00 -0.00000000000E+00 -0.20825975212E+04  0.20825975212E+04  0.00000000000E+00 0.  1.
         21    1    1    2  503  502  0.69990138182E+01  0.34830359067E+02  0.86710054228E+02  0.93705782166E+02  0.00000000000E+00 0.  1.
         21    1    1    2  504  503 -0.63031676347E+02 -0.16837095010E+03 -0.49990714656E+02  0.18660343141E+03  0.00000000000E+00 0. -1.
         21    1    1    2  505  504  0.26324544944E+02  0.11453537735E+03 -0.63869876642E+03  0.64942085627E+03  0.00000000000E+00 0.  1.
          2    1    1    2  501    0  0.29708117585E+02  0.19005213690E+02 -0.13165066276E+04  0.13169789182E+04  0.00000000000E+00 0.  1.
<scales pt_clust_3="35.63863" pt_clust_4="14000.00000" pt_clust_5="144.16978" pt_clust_6="35.26713"></scales>
<clustering>
<clus scale="   35.267">  2  6  1 -1</clus>
<clus scale="   35.639">  1  3  2 -1</clus>
<clus scale="  144.170">  2  5  1 -1</clus>
<clus scale="   35.639">  1  3  2 -1</clus>
</clustering>
</event>
<event>
 6    0  0.3584505E+002  0.2223978E+03  0.7546771E-02  0.1132108E+00
          2   -1    0    0  505    0 -0.00000000000E+00  0.00000000000E+00  0.12459556041E+04  0.12459556041E+04  0.00000000000E+00 0. -1.
         21   -1    0    0  501  502  0.00000000000E+00 -0.00000000000E+00 -0.61881525819E+03  0.61881525819E+03  0.00000000000E+00 0. -1.
         21    1    1    2  503  502 -0.15914070675E+01 -0.15040483088E+03 -0.43254954244E+03  0.45795551355E+03  0.00000000000E+00 0. -1.
         21    1    1    2  504  503 -0.50516367365E+02 -0.49386410334E+02 -0.15177051461E+03  0.16740731765E+03  0.00000000000E+00 0. -1.
         21    1    1    2  505  504  0.13874106623E+01  0.19506309515E+03  0.74277215290E+03  0.76795963899E+03  0.00000000000E+00 0. -1.
          2    1    1    2  501    0  0.50720363771E+02  0.47281460699E+01  0.46868825009E+03  0.47144839212E+03  0.00000000000E+00 0. -1.
<scales pt_clust_3="57.26267" pt_clust_4="57.26267" pt_clust_5="206.01893" pt_clust_6="50.94027"></scales>
<clustering>
<clus scale="   50.940">  1  6  2 -1</clus>
<clus scale="   57.263">  3  4 -1 -1</clus>
<clus scale="  206.019">  1  5  2 -1</clus>
<clus scale="  222.398">  2  3  1 -1</clus>
</clustering>
</event>
<event>
 6    0  0.3584505E+002  0.9563421E+02  0.7546771E-02  0.1289754E+00
         21   -1    0    0  503  502  0.00000000000E+00  0.00000000000E+00  0.12550861275E+03  0.12550861275E+03  0.00000000000E+00 0. -1.
          1   -1    0    0  504    0 -0.00000000000E+00 -0.00000000000E+00 -0.13553673034E+04  0.13553673034E+04  0.00000000000E+00 0.  1.
         21    1    1    2  503  501  0.61395184199E+01  0.45842725336E+02  0.94594875511E+02  0.10529691176E+03  0.00000000000E+00 0. -1.
         21    1    1    2  504  505  0.74469596480E+02 -0.48182595479E+02 -0.79718436507E+03  0.80210360629E+03  0.00000000000E+00 0.  1.
         21    1    1    2  505  502 -0.10170329331E+03 -0.22917999481E+02 -0.98438380310E+02  0.14338378322E+03  0.00000000000E+00 0. -1.
          1    1    1    2  501    0  0.21094178415E+02  0.25257869625E+02 -0.42883082075E+03  0.43009161485E+03  0.00000000000E+00 0.  1.
<scales pt_clust_3="46.41299" pt_clust_4="14000.00000" pt_clust_5="95.63421" pt_clust_6="32.90782"></scales>
<clustering>
<clus scale="   32.908">  2  6  1 -1</clus>
<clus scale="   46.413">  1  3  2 -1</clus>
<clus scale="   95.634">  1  5  2 -1</clus>
<clus scale="   46.413">  1  3  2 -1</clus>
</clustering>
</event>
<event>
 6    0  0.3584505E+002  0.3640588E+03  0.7546771E-02  0.1056988E+00
         21   -1    0    0  501  502  0.00000000000E+00  0.00000000000E+00  0.26929515059E+04  0.26929515059E+04  0.00000000000E+00 0.  1.
          2   -1    0    0  503    0 -0.00000000000E+00 -0.00000000000E+00 -0.38573898549E+03  0.38573898549E+03  0.00000000000E+00 0.  1.
         21    1    1    2  503  505  0.36666643475E+03  0.89754037923E+02  0.73284449554E+02  0.38453955875E+03  0.00000000000E+00 0.  1.
         21    1    1    2  504  502  0.82562077255E+01 -0.33217951469E+02  0.15108046475E+04  0.15111923372E+04  0.00000000000E+00 0.  1.
         21    1    1    2  505  504 -0.36448479766E+03 -0.23100877792E+02  0.91642044835E+03  0.98651368791E+03  0.00000000000E+00 0.  1.
          2    1    1    2  501    0 -0.10437844814E+02 -0.33435208662E+02 -0.19329702501E+03  0.19644490745E+03  0.00000000000E+00 0.  1.
<scales pt_clust_3="364.05884" pt_clust_4="34.22860" pt_clust_5="14000.00000" pt_clust_6="35.06554"></scales>
<clustering>
<clus scale="   34.229">  1  4  2 -1</clus>
<clus scale="   35.066">  2  6  1 -1</clus>
<clus scale="  364.059">  2  3  1 -1</clus>
<clus scale="   34.229">  1  3  2 -1</clus>
</clustering>
</event>
<event>
 6    0  0.3584505E+002  0.1645734E+03  0.7546771E-02  0.1183628E+00
          2   -1    0    0  503    0 -0.00000000000E+00  0.00000000000E+00  0.22446042413E+04  0.22446042413E+04  0.00000000000E+00 0.  1.
         21   -1    0    0  505  502  0.00000000000E+00 -0.00000000000E+00 -0.30192389546E+02  0.30192389546E+02  0.00000000000E+00 0.  1.
         21    1    1    2  503  502  0.15934913506E+03  0.34848144747E+02  0.72011327426E+03  0.73835605760E+03  0.00000000000E+00 0.  1.
         21    1    1    2  504  501 -0.14713304398E+03 -0.75319113888E+02  0.54057324410E+03  0.56527916447E+03  0.00000000000E+00 0.  1.
         21    1    1    2  505  504 -0.14425012613E+02 -0.29770837236E+02  0.29669791169E+02  0.44437374434E+02  0.00000000000E+00 0.  1.
          2    1    1    2  501    0  0.22089215393E+01  0.70241806377E+02  0.92405554221E+03  0.92672403432E+03  0.00000000000E+00 0.  1.
<scales pt_clust_3="164.57341" pt_clust_4="14000.00000" pt_clust_5="33.08147" pt_clust_6="68.51389"></scales>
<clustering>
<clus scale="   33.081">  2  5  1 -1</clus>
<clus scale="   68.514">  1  6  2 -1</clus>
<clus scale="  164.573">  1  3  2 -1</clus>
<clus scale="   33.081">  2  3  1 -1</clus>
</clustering>
</event>
<event>
 6    0  0.3584505E+002  0.6581737E+02  0.7546771E-02  0.1374923E+00
         21   -1    0    0  504  502  0.00000000000E+00  0.00000000000E+00  0.23869603115E+02  0.23869603115E+02  0.00000000000E+00 0. -1.
          1   -1    0    0  502    0 -0.00000000000E+00 -0.00000000000E+00 -0.34371273801E+04  0.34371273801E+04  0.00000000000E+00 0. -1.
         21    1    1    2  503  505  0.10529459546E+02 -0.60138108074E+02 -0.19032145669E+03  0.19987425656E+03  0.00000000000E+00 0. -1.
         21    1    1    2  504  503 -0.51274304022E+02  0.18219242564E+02 -0.36357866117E+02  0.65443788713E+02  0.00000000000E+00 0. -1.
         21    1    1    2  505  501  0.73428627508E+02  0.77165339965E+02 -0.65193000328E+03  0.66057473628E+03  0.00000000000E+00 0. -1.
          1    1    1    2  501    0 -0.32683783032E+02 -0.35246474455E+02 -0.25346484509E+04  0.25351042016E+04  0.00000000000E+00 0. -1.
<scales pt_clust_3="65.81737" pt_clust_4="55.54259" pt_clust_5="14000.00000" pt_clust_6="48.06811"></scales>
<clustering>
<clus scale="   48.068">  2  6  1 -1</clus>
<clus scale="   55.543">  1  4  2 -1</clus>
<clus scale="   65.817">  1  3  2 -1</clus>
<clus scale="   55.543">  1  3  2 -1</clus>
</clustering>
</event>
<event>
 6    0  0.3584505E+002  0.1307164E+03  0.7546771E-02  0.1226397E+00
          1   -1    0    0  505    0 -0.00000000000E+00  0.00000000000E+00  0.24426931517E+04  0.24426931517E+04  0.00000000000E+00 0.  1.
         21   -1    0    0  504  502  0.00000000000E+00 -0.00000000000E+00 -0.12997936156E+03  0.12997936156E+03  0.00000000000E+00 0.  1.
         21    1    1    2  503  501 -0.21556502939E+02  0.11257077356E+03  0.38895619952E+03  0.40549203078E+03  0.00000000000E+00 0.  1.
         21    1    1    2  504  503 -0.16271671719E+02 -0.32385239820E+02  0.39578488673E+02  0.53665890698E+02  0.00000000000E+00 0.  1.
         21    1    1    2  505  502 -0.91057029867E+01 -0.10385641300E+03 -0.90548626901E+02  0.13808737155E+03  0.00000000000E+00 0.  1.
          1    1    1    2  501    0  0.46933877645E+02  0.23670879252E+02  0.19747277288E+04  0.19754272202E+04  0.00000000000E+00 0.  1.
<scales pt_clust_3="14000.00000" pt_clust_4="36.24322" pt_clust_5="130.71641" pt_clust_6="52.48241"></scales>
<clustering>
<clus scale="   36.243">  2  4  1 -1</clus>
<clus scale="   52.482">  1  6  2 -1</clus>
<clus scale="  130.716">  2  5  1 -1</clus>
<clus scale="   36.243">  2  3  1 -1</clus>
</clustering>
</event>
<event>
 6    0  0.3584505E+002  0.8911453E+02  0.7546771E-02  0.1305010E+00
          2   -1    0    0  504    0 -0.00000000000E+00  0.00000000000E+00  0.11078623047E+04  0.11078623047E+04  0.00000000000E+00 0. -1.
         21   -1    0    0  505  502  0.00000000000E+00 -0.00000000000E+00 -0.91807807076E+03  0.91807807076E+03  0.00000000000E+00 0.  1.
         21    1    1    2  503  501  0.59177865556E+01  0.11711569114E+03 -0.13982672651E+03  0.18249005111E+03  0.00000000000E+00 0. -1.
         21    1    1    2  504  502  0.50131350316E+02 -0.11246028110E+03  0.36514726448E+02  0.12842816030E+03  0.00000000000E+00 0. -1.
         21    1    1    2  505  503  0.37471210772E+01 -0.42223683700E+02 -0.70908752663E+03  0.71035343372E+03  0.00000000000E+00 0.  1.
          2    1    1    2  501    0 -0.59796257949E+02  0.37568273660E+02  0.10021837606E+04  0.10046687303E+04  0.00000000000E+00 0. -1.
<scales pt_clust_3="89.11453" pt_clust_4="14000.00000" pt_clust_5="42.38963" pt_clust_6="70.46588"></scales>
<clustering>
<clus scale="   42.390">  2  5  1 -1</clus>
<clus scale="   70.466">  1  6  2 -1</clus>
<clus scale="   89.115">  2  3  1 -1</clus>
<clus scale="   42.390">  2  3  1 -1</clus>
</clustering>
</event>
<event>
 6    0  0.3584505E+002  0.8698674E+02  0.7546771E-02  0.1310317E+00
         21   -1    0    0  503  502  0.00000000000E+00  0.00000000000E+00  0.12261391090E+03  0.12261391090E+03  0.00000000000E+00 0.  1.
          2   -1    0    0  505    0 -0.00000000000E+00 -0.00000000000E+00 -0.41377243727E+03  0.41377243727E+03  0.00000000000E+00 0.  1.
         21    1    1    2  503  501 -0.40861212917E+02  0.63154249089E+02  0.77265647110E+01  0.75616120644E+02  0.00000000000E+00 0.  1.
         21    1    1    2  504  502  0.48899611942E+02  0.33729010603E+02  0.58860863079E+02  0.83626666840E+02  0.00000000000E+00 0.  1.
         21    1    1    2  505  504  0.24293281806E+02 -0.78254740050E+02 -0.23713337040E+03  0.25089081936E+03  0.00000000000E+00 0.  1.
          2    1    1    2  501    0 -0.32331680831E+02 -0.18628519641E+02 -0.12061258377E+03  0.12625274133E+03  0.00000000000E+00 0.  1.
<scales pt_clust_3="86.98674" pt_clust_4="57.81779" pt_clust_5="14000.00000" pt_clust_6="37.31433"></scales>
<clustering>
<clus scale="   37.314">  2  6  1 -1</clus>
<clus scale="   57.818">  1  4  2 -1</clus>
<clus scale="   86.987">  1  3  2 -1</clus>
<clus scale="   57.818">  1  3  2 -1</clus>
</clustering>
</event>
<event>
 6    0  0.3584505E+002  0.1194067E+03  0.7546771E-02  0.1244079E+00
         21   -1    0    0  505  502  0.00000000000E+00  0.00000000000E+00  0.25119874912E+03  0.25119874912E+03  0.00000000000E+00 0.  1.
          2   -1    0    0  504    0 -0.00000000000E+00 -0.00000000000E+00 -0.95599680165E+03  0.95599680165E+03  0.00000000000E+00 0. -1.
         21    1    1    2  503  502  0.12552447571E+03  0.12931883489E+02  0.20911969308E+03  0.24424306264E+03  0.00000000000E+00 0.  1.
         21    1    1    2  504  503 -0.46383474536E+02  0.22529023732E+02 -0.13408004023E+02  0.53279998050E+02  0.00000000000E+00 0. -1.
         21    1    1    2  505  501 -0.50386866404E+02 -0.19844823771E+02 -0.16971415373E+03  0.17814473697E+03  0.00000000000E+00 0.  1.
          2    1    1    2  501    0 -0.28754134772E+02 -0.15616083451E+02 -0.73079558786E+03  0.73152775310E+03  0.00000000000E+00 0. -1.
<scales pt_clust_3="119.40671" pt_clust_4="54.53230" pt_clust_5="14000.00000" pt_clust_6="32.72098"></scales>
<clustering>
<clus scale="   32.721">  2  6  1 -1</clus>
<clus scale="   54.532">  2  4  1 -1</clus>
<clus scale="  119.407">  1  3  2 -1</clus>
<clus scale="  119.407">  1  3  2 -1</clus>
</clustering>
</event>
<event>
 6    0  0.3584505E+002  0.1289879E+03  0.7546771E-02  0.1228965E+00
         21   -1    0    0  501  502  0.00000000000E+00  0.00000000000E+00  0.93135553843E+03  0.93135553843E+03  0.00000000000E+00 0. -1.
          2   -1    0    0  503    0 -0.00000000000E+00 -0.00000000000E+00 -0.13803540865E+04  0.13803540865E+04  0.00000000000E+00 0.  1.
         21    1    1    2  503  504 -0.19134671521E+03 -0.46553995311E+02  0.38693942704E+03  0.43416927586E+03  0.00000000000E+00 0. -1.
         21    1    1    2  504  505  0.92645211353E+02 -0.44283818943E+02  0.23552583999E+03  0.25693698276E+03  0.00000000000E+00 0. -1.
         21    1    1    2  505  502  0.12628955067E+02  0.51991273277E+02  0.27028800582E+03  0.27553255542E+03  0.00000000000E+00 0. -1.
          2    1    1    2  501    0  0.86072548788E+02  0.38846540976E+02 -0.13417518210E+04  0.13450708109E+04  0.00000000000E+00 0.  1.
<scales pt_clust_3="128.98795" pt_clust_4="14000.00000" pt_clust_5="53.50311" pt_clust_6="94.51569"></scales>
<clustering>
<clus scale="   53.503">  1  5  2 -1</clus>
<clus scale="   94.516">  2  6  1 -1</clus>
<clus scale="  128.988">  2  3  1 -1</clus>
<clus scale="   53.503">  1  3  2 -1</clus>
</clustering>
</event>
<event>
 6    0  0.3584505E+002  0.1175416E+03  0.7546771E-02  0.1247209E+00
          3   -1    0    0  504    0 -0.00000000000E+00  0.00000000000E+00  0.58070187914E+03  0.58070187914E+03  0.00000000000E+00 0.  1.
         21   -1    0    0  505  502  0.00000000000E+00 -0.00000000000E+00 -0.16788948862E+03  0.16788948862E+03  0.00000000000E+00 0.  1.
         21    1    1    2  503  501 -0.24206185026E+02  0.52133807383E+02 -0.37680084923E+02  0.68728902694E+02  0.00000000000E+00 0.  1.
         21    1    1    2  504  502 -0.17228540097E+02 -0.10878986059E+03  0.48924378953E+03  0.50148932387E+03  0.00000000000E+00 0.  1.
         21    1    1    2  505  503  0.80167809353E+01  0.51121807900E+02 -0.97601581333E+02  0.11047070516E+03  0.00000000000E+00 0.  1.
          3    1    1    2  501    0  0.33417944188E+02  0.55342453068E+01  0.58850267238E+02  0.67902436030E+02  0.00000000000E+00 0.  1.
<scales pt_clust_3="51.16915" pt_clust_4="104.53932" pt_clust_5="51.16915" pt_clust_6="33.87310"></scales>
<clustering>
<clus scale="   33.873">  1  6  2 -1</clus>
<clus scale="   51.169">  3  5 -1 -1</clus>
<clus scale="  104.539">  1  4  2 -1</clus>
<clus scale="  117.542">  2  3  1 -1</clus>
</clustering>
</event>
<event>
 6    0  0.3584505E+002  0.1326989E+03  0.7546771E-02  0.1223505E+00
         21   -1    0    0  505  502  0.00000000000E+00  0.00000000000E+00  0.75098793802E+03  0.75098793802E+03  0.00000000000E+00 0. -1.
          2   -1    0    0  503    0 -0.00000000000E+00 -0.00000000000E+00 -0.20061629424E+04  0.20061629424E+04  0.00000000000E+00 0. -1.
         21    1    1    2  503  504 -0.91518385769E+02 -0.10193572325E+03 -0.13218652901E+03  0.19036750001E+03  0.00000000000E+00 0.  1.
         21    1    1    2  504  502  0.90122313721E+02  0.89283719559E+02  0.20432858998E+03  0.24050735268E+03  0.00000000000E+00 0. -1.
         21    1    1    2  505  501 -0.36795386374E+02  0.34613055575E+02  0.49793569153E+03  0.50049167523E+03  0.00000000000E+00 0. -1.
          2    1    1    2  501    0  0.38191458422E+02 -0.21961051887E+02 -0.18252527569E+04  0.18257843525E+04  0.00000000000E+00 0. -1.
<scales pt_clust_3="14000.00000" pt_clust_4="132.69886" pt_clust_5="50.21377" pt_clust_6="44.05537"></scales>
<clustering>
<clus scale="   44.055">  2  6  1 -1</clus>
<clus scale="   50.214">  1  5  2 -1</clus>
<clus scale="  132.699">  1  4  2 -1</clus>
<clus scale="   50.214">  1  3  2 -1</clus>
</clustering>
</event>
<event>
 6    0  0.3584505E+002  0.1235717E+03  0.7546771E-02  0.1237319E+00
          2   -1    0    0  503    0 -0.00000000000E+00  0.00000000000E+00  0.65398991835E+03  0.65398991835E+03  0.00000000000E+00 0.  1.
         21   -1    0    0  504  502  0.00000000000E+00 -0.00000000000E+00 -0.18318508441E+03  0.18318508441E+03  0.00000000000E+00 0.  1.
         21    1    1    2  503  505 -0.63757928148E+02 -0.94360782213E+02  0.17069130334E+01  0.11389444312E+03  0.00000000000E+00 0.  1.
         21    1    1    2  504  501  0.56077005659E+02  0.12347629952E+03  0.42105574299E+02  0.14199967075E+03  0.00000000000E+00 0.  1.
         21    1    1    2  505  502  0.38674719716E+02 -0.29942598990E+02 -0.68858445115E+02  0.84461699267E+02  0.00000000000E+00 0.  1.
          2    1    1    2  501    0 -0.30993797227E+02  0.82708168152E+00  0.49585079172E+03  0.49681918962E+03  0.00000000000E+00 0.  1.
<scales pt_clust_3="123.57169" pt_clust_4="14000.00000" pt_clust_5="47.68188" pt_clust_6="31.00483"></scales>
<clustering>
<clus scale="   31.005">  1  6  2 -1</clus>
<clus scale="   47.682">  2  5  1 -1</clus>
<clus scale="  123.572">  2  3  1 -1</clus>
<clus scale="   47.682">  2  3  1 -1</clus>
</clustering>
</event>
<event>
 6    0  0.3584505E+002  0.7736855E+02  0.7546771E-02  0.1336689E+00
          2   -1    0    0  504    0 -0.00000000000E+00  0.00000000000E+00  0.12668284816E+04  0.12668284816E+04  0.00000000000E+00 0.  1.
         21   -1    0    0  503  502  0.00000000000E+00 -0.00000000000E+00 -0.45299458004E+03  0.45299458004E+03  0.00000000000E+00 0.  1.
         21    1    1    2  503  501 -0.12574127449E+03  0.51567796479E+02  0.36209718400E+03  0.38676152395E+03  0.00000000000E+00 0.  1.
         21    1    1    2  504  505  0.24415495124E+02 -0.58125742728E+02  0.33056138731E+03  0.33651976041E+03  0.00000000000E+00 0.  1.
         21    1    1    2  505  502  0.72918405233E+02  0.25169500158E+02 -0.43376116009E+03  0.44056706818E+03  0.00000000000E+00 0.  1.
          2    1    1    2  501    0  0.28407374134E+02 -0.18611553909E+02  0.55493649037E+03  0.55597470913E+03  0.00000000000E+00 0.  1.
<scales pt_clust_3="14000.00000" pt_clust_4="76.76668" pt_clust_5="77.36855" pt_clust_6="33.96128"></scales>
<clustering>
<clus scale="   33.961">  1  6  2 -1</clus>
<clus scale="   76.767">  1  4  2 -1</clus>
<clus scale="   77.369">  2  5  1 -1</clus>
<clus scale="   77.369">  2  3  1 -1</clus>
</clustering>
</event>
<event>
 6    0  0.3584505E+002  0.8974200E+02  0.7546771E-02  0.1303478E+00
         21   -1    0    0  503  502  0.00000000000E+00  0.00000000000E+00  0.95658460085E+02  0.95658460085E+02  0.00000000000E+00 0.  1.
         -3   -1    0    0    0  501 -0.00000000000E+00 -0.00000000000E+00 -0.21524465113E+04  0.21524465113E+04  0.00000000000E+00 0.  1.
         21    1    1    2  503  505  0.40329004048E+02  0.60716895435E+02 -0.63569830905E+03  0.63986350896E+03  0.00000000000E+00 0.  1.
         21    1    1    2  504  502 -0.79950475359E+02  0.42806501551E+02  0.66940028917E+02  0.11271842155E+03  0.00000000000E+00 0.  1.
         21    1    1    2  505  501  0.38896477644E+02 -0.27416963603E+02 -0.21424624077E+03  0.21946771414E+03  0.00000000000E+00 0.  1.
         -3    1    1    2    0  504  0.72499366727E+00 -0.76106433383E+02 -0.12737835304E+04  0.12760553268E+04  0.00000000000E+00 0.  1.
<scales pt_clust_3="74.13210" pt_clust_4="14000.00000" pt_clust_5="47.58809" pt_clust_6="89.74200"></scales>
<clustering>
<clus scale="   47.588">  2  5  1 -1</clus>
<clus scale="   74.132">  2  3  1 -1</clus>
<clus scale="   89.742">  2  6  1 -1</clus>
<clus scale="   89.742">  1  3  2 -1</clus>
</clustering>
</event>
<event>
 6    0  0.3584505E+002  0.9057309E+02  0.7546771E-02  0.1301470E+00
         21   -1    0    0  505  502  0.00000000000E+00  0.00000000000E+00  0.28705012499E+04  0.28705012499E+04  0.00000000000E+00 0. -1.
          1   -1    0    0  503    0 -0.00000000000E+00 -0.00000000000E+00 -0.35410137835E+03  0.35410137835E+03  0.00000000000E+00 0.  1.
         21    1    1    2  503  504 -0.97448968314E+02  0.26642332921E+02 -0.24426764933E+03  0.26433463609E+03  0.00000000000E+00 0. -1.
         21    1    1    2  504  502 -0.91712035250E+01 -0.69436116906E+02  0.26877907165E+04  0.26887031113E+04  0.00000000000E+00 0. -1.
         21    1    1    2  505  501  0.28667457098E+02  0.21386205604E+02  0.15337035685E+03  0.15748542550E+03  0.00000000000E+00 0. -1.
          1    1    1    2  501    0  0.77952714742E+02  0.21407578381E+02 -0.80493552433E+02  0.11407945534E+03  0.00000000000E+00 0.  1.
<scales pt_clust_3="14000.00000" pt_clust_4="51.94502" pt_clust_5="35.76581" pt_clust_6="90.57309"></scales>
<clustering>
<clus scale="   35.766">  1  5  2 -1</clus>
<clus scale="   51.945">  1  4  2 -1</clus>
<clus scale="   90.573">  1  6  2 -1</clus>
<clus scale="   35.766">  1  3  2 -1</clus>
</clustering>
</event>
<event>
 6    0  0.3584505E+002  0.1538935E+03  0.7546771E-02  0.1195769E+00
          1   -1    0    0  505    0 -0.00000000000E+00  0.00000000000E+00  0.68575944437E+03  0.68575944437E+03  0.00000000000E+00 0. -1.
         21   -1    0    0  504  502  0.00000000000E+00 -0.00000000000E+00 -0.11837292677E+03  0.11837292677E+03  0.00000000000E+00 0.  1.
         21    1    1    2  503  502 -0.17151847094E+02 -0.43231540059E+02 -0.47164716732E+02  0.66239432509E+02  0.00000000000E+00 0.  1.
         21    1    1    2  504  501 -0.16772618990E+03 -0.24976420759E+02  0.15555699349E+03  0.23011708888E+03  0.00000000000E+00 0.  1.
         21    1    1    2  505  503  0.54261803601E+02 -0.80872359354E+01  0.61190430104E+02  0.82182817252E+02  0.00000000000E+00 0. -1.
          1    1    1    2  501    0  0.13061623339E+03  0.76295196754E+02  0.39780381074E+03  0.42559303250E+03  0.00000000000E+00 0. -1.
<scales pt_clust_3="46.50970" pt_clust_4="153.89352" pt_clust_5="53.61544" pt_clust_6="14000.00000"></scales>
<clustering>
<clus scale="   46.510">  2  3  1 -1</clus>
<clus scale="   53.615">  2  5  1 -1</clus>
<clus scale="  153.894">  2  4  1 -1</clus>
<clus scale="   46.510">  2  3  1 -1</clus>
</clustering>
</event>
<event>
 6    0  0.3584505E+002  0.1107737E+03  0.7546771E-02  0.1259144E+00
          1   -1    0    0  503    0 -0.00000000000E+00  0.00000000000E+00  0.14259443639E+04  0.14259443639E+04  0.00000000000E+00 0. -1.
         21   -1    0    0  504  502  0.00000000000E+00 -0.00000000000E+00 -0.26983174619E+02  0.26983174619E+02  0.00000000000E+00 0. -1.
         21    1    1    2  503  502  0.72460332016E+02  0.13130518717E+03  0.86764189215E+03  0.88050781082E+03  0.00000000000E+00 0. -1.
         21    1    1    2  504  505 -0.18844836128E+02 -0.44937605038E+02  0.89808060161E+02  0.10217633711E+03  0.00000000000E+00 0. -1.
         21    1    1    2  505  501 -0.28883671114E+02 -0.39284600036E+02  0.34400746895E+02  0.59673760096E+02  0.00000000000E+00 0. -1.
          1    1    1    2  501    0 -0.24731824773E+02 -0.47082982093E+02  0.40711049010E+03  0.41056963053E+03  0.00000000000E+00 0. -1.
<scales pt_clust_3="104.28127" pt_clust_4="37.35433" pt_clust_5="37.35433" pt_clust_6="53.18337"></scales>
<clustering>
<clus scale="   37.354">  4  5 -1 -1</clus>
<clus scale="   53.183">  1  6  2 -1</clus>
<clus scale="  104.281">  1  3  2 -1</clus>
<clus scale="  110.774">  2  3  1 -1</clus>
</clustering>
</event>
<event>
 6    0  0.3584505E+002  0.1151263E+03  0.7546771E-02  0.1251361E+00
          1   -1    0    0  505    0 -0.00000000000E+00  0.00000000000E+00  0.74602035229E+03  0.74602035229E+03  0.00000000000E+00 0. -1.
         21   -1    0    0  503  502  0.00000000000E+00 -0.00000000000E+00 -0.39985885265E+03  0.39985885265E+03  0.00000000000E+00 0.  1.
         21    1    1    2  503  501 -0.28439842069E+02 -0.21191168794E+02 -0.43176286358E+02  0.55875593558E+02  0.00000000000E+00 0. -1.
         21    1    1    2  504  502  0.37013438780E+02 -0.29177619558E+02 -0.32755151934E+03  0.33092495517E+03  0.00000000000E+00 0.  1.
         21    1    1    2  505  504 -0.13894750525E+02  0.14842386631E+03  0.38087788405E+03  0.40901182225E+03  0.00000000000E+00 0. -1.
          1    1    1    2  501    0  0.53211538143E+01 -0.98055077958E+02  0.33601142130E+03  0.35006683395E+03  0.00000000000E+00 0. -1.
<scales pt_clust_3="35.46675" pt_clust_4="50.15881" pt_clust_5="14000.00000" pt_clust_6="115.12627"></scales>
<clustering>
<clus scale="   35.467">  2  3  1 -1</clus>
<clus scale="   50.159">  2  4  1 -1</clus>
<clus scale="  115.126">  1  6  2 -1</clus>
<clus scale="   35.467">  2  3  1 -1</clus>
</clustering>
</event>
<event>
 6    0  0.3584505E+002  0.9422241E+02  0.7546771E-02  0.1292937E+00
         -4   -1    0    0    0  501 -0.00000000000E+00  0.00000000000E+00  0.13997641649E+03  0.13997641649E+03  0.00000000000E+00 0. -1.
         21   -1    0    0  504  502  0.00000000000E+00 -0.00000000000E+00 -0.29948161950E+03  0.29948161950E+03  0.00000000000E+00 0.  1.
         21    1    1    2  503  502  0.20748364209E+02 -0.64823766426E+02 -0.47519298239E+02  0.83010234406E+02  0.00000000000E+00 0.  1.
         21    1    1    2  504  505  0.57955597179E+02 -0.31632147174E+02 -0.14086517275E+03  0.15557133693E+03  0.00000000000E+00 0.  1.
         21    1    1    2  505  501 -0.71370500261E+02 -0.11097414571E+02 -0.29804399625E+02  0.78135799444E+02  0.00000000000E+00 0. -1.
         -4    1    1    2    0  503 -0.73334611266E+01  0.10755332817E+03  0.58683667608E+02  0.12274066521E+03  0.00000000000E+00 0. -1.
<scales pt_clust_3="94.22241" pt_clust_4="66.02609" pt_clust_5="55.41413" pt_clust_6="14000.00000"></scales>
<clustering>
<clus scale="   66.026">  2  4  1 -1</clus>
<clus scale="   55.414">  2  5  1 -1</clus>
<clus scale="   94.222">  2  3  1 -1</clus>
<clus scale="   66.026">  2  3  1 -1</clus>
</clustering>
</event>
<event>
 6    0  0.3584505E+002  0.8870956E+02  0.7546771E-02  0.1306007E+00
          1   -1    0    0  504    0 -0.00000000000E+00  0.00000000000E+00  0.26848698752E+04  0.26848698752E+04  0.00000000000E+00 0.  1.
         21   -1    0    0  503  502  0.00000000000E+00 -0.00000000000E+00 -0.46023908385E+03  0.46023908385E+03  0.00000000000E+00 0.  1.
         21    1    1    2  503  505  0.50318353300E+02 -0.40399602232E+02 -0.44776271593E+03  0.45238867616E+03  0.00000000000E+00 0.  1.
         21    1    1    2  504  502  0.27712395972E+02 -0.19632420128E+02  0.21976170392E+03  0.22237044615E+03  0.00000000000E+00 0.  1.
         21    1    1    2  505  501 -0.10234581402E+03  0.10670745498E+03  0.63617423927E+03  0.65313000950E+03  0.00000000000E+00 0.  1.
          1    1    1    2  501    0  0.24315064750E+02 -0.46675432618E+02  0.18164575641E+04  0.18172198273E+04  0.00000000000E+00 0.  1.
<scales pt_clust_3="64.56139" pt_clust_4="33.96187" pt_clust_5="88.70956" pt_clust_6="14000.00000"></scales>
<clustering>
<clus scale="   33.962">  1  4  2 -1</clus>
<clus scale="   64.561">  2  3  1 -1</clus>
<clus scale="   88.710">  2  5  1 -1</clus>
<clus scale="   64.561">  2  3  1 -1</clus>
</clustering>
</event>
<event>
 6    0  0.3584505E+002  0.7074740E+02  0.7546771E-02  0.1357570E+00
          1   -1    0    0  504    0 -0.00000000000E+00  0.00000000000E+00  0.11520257843E+04  0.11520257843E+04  0.00000000000E+00 0.  1.
         21   -1    0    0  505  502  0.00000000000E+00 -0.00000000000E+00 -0.99285060016E+03  0.99285060016E+03  0.00000000000E+00 0.  1.
         21    1    1    2  503  501  0.16749939084E+02  0.91111259411E+02 -0.52065432486E+02  0.10626679308E+03  0.00000000000E+00 0.  1.
         21    1    1    2  504  502 -0.20099424575E+02 -0.75413917063E+02 -0.18173822957E+03  0.19778784048E+03  0.00000000000E+00 0.  1.
         21    1    1    2  505  503 -0.26536071181E+02  0.30710283739E+02 -0.72266971243E+03  0.72380853674E+03  0.00000000000E+00 0.  1.
          1    1    1    2  501    0  0.29885556672E+02 -0.46407626088E+02  0.11156485586E+04  0.11170132141E+04  0.00000000000E+00 0.  1.
<scales pt_clust_3="70.74740" pt_clust_4="14000.00000" pt_clust_5="40.58675" pt_clust_6="55.09625"></scales>
<clustering>
<clus scale="   40.587">  2  5  1 -1</clus>
<clus scale="   55.096">  1  6  2 -1</clus>
<clus scale="   70.747">  1  3  2 -1</clus>
<clus scale="   40.587">  2  3  1 -1</clus>
</clustering>
</event>
<event>
 6    0  0.3584505E+002  0.9574314E+02  0.7546771E-02  0.1289511E+00
          2   -1    0    0  503    0 -0.00000000000E+00  0.00000000000E+00  0.23876774339E+03  0.23876774339E+03  0.00000000000E+00 0.  1.
         21   -1    0    0  505  502  0.00000000000E+00 -0.00000000000E+00 -0.18522343577E+03  0.18522343577E+03  0.00000000000E+00 0. -1.
         21    1    1    2  503  504 -0.72689675011E+02  0.41746498409E+02 -0.11834477290E+03  0.14502428850E+03  0.00000000000E+00 0. -1.
         21    1    1    2  504  502 -0.18820277866E+02  0.38837070152E+02 -0.51031909715E+01  0.43457605031E+02  0.00000000000E+00 0.  1.
         21    1    1    2  505  501  0.31377385887E+02 -0.39657239894E+01 -0.20462854913E+01  0.31693131688E+02  0.00000000000E+00 0. -1.
          2    1    1    2  501    0  0.60132566990E+02 -0.76617844572E+02  0.17903855698E+03  0.20381615394E+03  0.00000000000E+00 0.  1.
<scales pt_clust_3="14000.00000" pt_clust_4="40.84808" pt_clust_5="31.62700" pt_clust_6="95.74314"></scales>
<clustering>
<clus scale="   31.627">  2  5  1 -1</clus>
<clus scale="   40.848">  2  4  1 -1</clus>
<clus scale="   95.743">  1  6  2 -1</clus>
<clus scale="   31.627">  2  3  1 -1</clus>
</clustering>
</event>
<event>
 6    0  0.3584505E+002  0.2098505E+03  0.7546771E-02  0.1141684E+00
         21   -1    0    0  503  502  0.00000000000E+00  0.00000000000E+00  0.41958396931E+03  0.41958396931E+03  0.00000000000E+00 0. -1.
          2   -1    0    0  504    0 -0.00000000000E+00 -0.00000000000E+00 -0.21642262923E+04  0.21642262923E+04  0.00000000000E+00 0. -1.
         21    1    1    2  503  501  0.13647207456E+03 -0.15813060776E+03  0.78592069761E+02  0.22317398969E+03  0.00000000000E+00 0. -1.
         21    1    1    2  504  505  0.21040687248E+02  0.28737475047E+03 -0.10620989140E+04  0.11004912816E+04  0.00000000000E+00 0. -1.
         21    1    1    2  505  502 -0.45104904545E+02  0.20142697020E+02  0.23830401772E+03  0.24337005880E+03  0.00000000000E+00 0. -1.
          2    1    1    2  501    0 -0.11240785727E+03 -0.14938683973E+03 -0.99943949645E+03  0.10167749315E+04  0.00000000000E+00 0. -1.
<scales pt_clust_3="172.04447" pt_clust_4="209.85052" pt_clust_5="49.39818" pt_clust_6="14000.00000"></scales>
<clustering>
<clus scale="   49.398">  1  5  2 -1</clus>
<clus scale="  172.044">  1  3  2 -1</clus>
<clus scale="  209.851">  1  4  2 -1</clus>
<clus scale="   49.398">  1  3  2 -1</clus>
</clustering>
</event>
<event>
 6    0  0.3584505E+002  0.1524485E+03  0.7546771E-02  0.1197496E+00
          2   -1    0    0  505    0 -0.00000000000E+00  0.00000000000E+00  0.51460509684E+03  0.51460509684E+03  0.00000000000E+00 0.  1.
         21   -1    0    0  504  502  0.00000000000E+00 -0.00000000000E+00 -0.18744389617E+04  0.18744389617E+04  0.00000000000E+00 0.  1.
         21    1    1    2  503  502  0.29723747595E+02  0.56498373291E+02 -0.85609739366E+03  0.85847441126E+03  0.00000000000E+00 0.  1.
         21    1    1    2  504  501  0.43050635729E+02 -0.13723236615E+03 -0.48765581392E+02  0.15186889571E+03  0.00000000000E+00 0. -1.
         21    1    1    2  505  503 -0.33447854794E+02  0.80745132116E+02 -0.91391012361E+03  0.91807965308E+03  0.00000000000E+00 0.  1.
          2    1    1    2  501    0 -0.39326528530E+02 -0.11139255330E-01  0.45893923385E+03  0.46062109845E+03  0.00000000000E+00 0.  1.
<scales pt_clust_3="56.12510" pt_clust_4="137.37710" pt_clust_5="56.12510" pt_clust_6="39.32653"></scales>
<clustering>
<clus scale="   39.327">  1  6  2 -1</clus>
<clus scale="   56.125">  3  5 -1 -1</clus>
<clus scale="  137.377">  1  4  2 -1</clus>
<clus scale="  152.449">  2  3  1 -1</clus>
</clustering>
</event>
<event>
 6    0  0.3584505E+002  0.9482775E+02  0.7546771E-02  0.1291565E+00
         21   -1    0    0  505  502  0.00000000000E+00  0.00000000000E+00  0.11015374427E+03  0.11015374427E+03  0.00000000000E+00 0. -1.
          2   -1    0    0  504    0 -0.00000000000E+00 -0.00000000000E+00 -0.16976084379E+04  0.16976084379E+04  0.00000000000E+00 0. -1.
         21    1    1    2  503  502  0.31373842063E+02 -0.34527439547E+01 -0.15042499521E+02  0.34964499116E+02  0.00000000000E+00 0.  1.
         21    1    1    2  504  503  0.34525054739E+02  0.73915783768E+02 -0.87197665618E+02  0.11941086795E+03  0.00000000000E+00 0. -1.
         21    1    1    2  505  501 -0.10315603120E+03 -0.63969269350E+02  0.39925285540E+02  0.12777817740E+03  0.00000000000E+00 0. -1.
          2    1    1    2  501    0  0.37257134403E+02 -0.64937704637E+01 -0.15251398140E+04  0.15256086377E+04  0.00000000000E+00 0. -1.
<scales pt_clust_3="31.56326" pt_clust_4="94.82775" pt_clust_5="14000.00000" pt_clust_6="37.89252"></scales>
<clustering>
<clus scale="   31.563">  1  3  2 -1</clus>
<clus scale="   37.893">  2  6  1 -1</clus>
<clus scale="   94.828">  2  4  1 -1</clus>
<clus scale="   31.563">  1  3  2 -1</clus>
</clustering>
</event>
<event>
 6    0  0.3584505E+002  0.2832027E+03  0.7546771E-02  0.1093952E+00
          3   -1    0    0  504    0 -0.00000000000E+00  0.00000000000E+00  0.29771681463E+04  0.29771681463E+04  0.00000000000E+00 0. -1.
         21   -1    0    0  503  502  0.00000000000E+00 -0.00000000000E+00 -0.97592534443E+02  0.97592534443E+02  0.00000000000E+00 0. -1.
         21    1    1    2  503  501 -0.20859242178E+02  0.79559027703E+02 -0.16359665056E+02  0.83859319781E+02  0.00000000000E+00 0. -1.
         21    1    1    2  504  505  0.13130230903E+03 -0.26273362417E+03  0.23472967675E+04  0.23656016927E+04  0.00000000000E+00 0. -1.
         21    1    1    2  505  502  0.21443483808E+02 -0.30537797114E+02  0.26069616285E+02  0.45519281009E+02  0.00000000000E+00 0.  1.
          3    1    1    2  501    0 -0.13188655066E+03  0.21371239358E+03  0.52256889310E+03  0.57978038726E+03  0.00000000000E+00 0. -1.
<scales pt_clust_3="62.74025" pt_clust_4="283.20267" pt_clust_5="37.31461" pt_clust_6="14000.00000"></scales>
<clustering>
<clus scale="   37.315">  2  5  1 -1</clus>
<clus scale="   62.740">  2  3  1 -1</clus>
<clus scale="  283.203">  1  4  2 -1</clus>
<clus scale="   37.315">  2  3  1 -1</clus>
</clustering>
</event>
<event>
 6    0  0.3584505E+002  0.1560056E+03  0.7546771E-02  0.1193282E+00
          2   -1    0    0  503    0 -0.00000000000E+00  0.00000000000E+00  0.10156591046E+04  0.10156591046E+04  0.00000000000E+00 0.  1.
         21   -1    0    0  505  502  0.00000000000E+00 -0.00000000000E+00 -0.97110487681E+02  0.97110487681E+02  0.00000000000E+00 0.  1.
         21    1    1    2  503  502  0.79427453604E+02  0.17803549867E+03  0.14772297753E+03  0.24459647843E+03  0.00000000000E+00 0.  1.
         21    1    1    2  504  501 -0.28438543104E+02 -0.11744321773E+03  0.33384973854E+03  0.35504550138E+03  0.00000000000E+00 0.  1.
         21    1    1    2  505  504 -0.12909352654E+02 -0.30143000914E+02 -0.29501644448E+02  0.44108943709E+02  0.00000000000E+00 0.  1.
          2    1    1    2  501    0 -0.38079557846E+02 -0.30449280020E+02  0.46647754527E+03  0.46901866873E+03  0.00000000000E+00 0.  1.
<scales pt_clust_3="14000.00000" pt_clust_4="156.00564" pt_clust_5="32.79103" pt_clust_6="49.36677"></scales>
<clustering>
<clus scale="   32.791">  2  5  1 -1</clus>
<clus scale="   49.367">  1  6  2 -1</clus>
<clus scale="  156.006">  1  4  2 -1</clus>
<clus scale="   32.791">  2  3  1 -1</clus>
</clustering>
</event>
<event>
 6    0  0.3584505E+002  0.9834270E+02  0.7546771E-02  0.1283820E+00
         -2   -1    0    0    0  501 -0.00000000000E+00  0.00000000000E+00  0.15866259970E+04  0.15866259970E+04  0.00000000000E+00 0. -1.
         21   -1    0    0  505  502  0.00000000000E+00 -0.00000000000E+00 -0.23016776521E+03  0.23016776521E+03  0.00000000000E+00 0. -1.
         21    1    1    2  503  501 -0.33578831577E+02  0.15800618263E+03  0.98306597990E+03  0.99624907152E+03  0.00000000000E+00 0. -1.
         21    1    1    2  504  502 -0.20725329163E+02  0.30946734470E+02 -0.20089278177E+03  0.20431629747E+03  0.00000000000E+00 0. -1.
         21    1    1    2  505  503  0.51869629279E+02 -0.98241068910E+02  0.17908861863E+03  0.21074747777E+03  0.00000000000E+00 0. -1.
         -2    1    1    2    0  504  0.24345314605E+01 -0.90711848193E+02  0.39519641500E+03  0.40548091542E+03  0.00000000000E+00 0. -1.
<scales pt_clust_3="14000.00000" pt_clust_4="37.24567" pt_clust_5="98.34270" pt_clust_6="84.95043"></scales>
<clustering>
<clus scale="   37.246">  2  4  1 -1</clus>
<clus scale="   84.950">  1  6  2 -1</clus>
<clus scale="   98.343">  2  5  1 -1</clus>
<clus scale="   37.246">  2  3  1 -1</clus>
</clustering>
</event>
<event>
 6    0  0.3584505E+002  0.1458805E+03  0.7546771E-02  0.1205628E+00
         21   -1    0    0  505  502  0.00000000000E+00  0.00000000000E+00  0.17012154819E+03  0.17012154819E+03  0.00000000000E+00 0.  1.
         -2   -1    0    0    0  501 -0.00000000000E+00 -0.00000000000E+00 -0.10850257970E+04  0.10850257970E+04  0.00000000000E+00 0.  1.
         21    1    1    2  503  501 -0.29559525146E+02  0.10961498772E+02 -0.51421694303E+02  0.60316752458E+02  0.00000000000E+00 0. -1.
         21    1    1    2  504  502 -0.29981929090E+02 -0.17391825569E+03 -0.15403902187E+03  0.23425305973E+03  0.00000000000E+00 0.  1.
         21    1    1    2  505  503  0.55493422860E+02  0.12903266033E+03  0.85805439996E+02  0.16459502102E+03  0.00000000000E+00 0.  1.
         -2    1    1    2    0  504  0.40480313758E+01  0.33924096590E+02 -0.79524897263E+03  0.79598251197E+03  0.00000000000E+00 0.  1.
<scales pt_clust_3="31.52650" pt_clust_4="145.88050" pt_clust_5="14000.00000" pt_clust_6="46.38086"></scales>
<clustering>
<clus scale="   31.526">  2  3  1 -1</clus>
<clus scale="   46.381">  2  6  1 -1</clus>
<clus scale="  145.880">  2  4  1 -1</clus>
<clus scale="  145.880">  1  3  2 -1</clus>
</clustering>
</event>
<event>
 6    0  0.3584505E+002  0.1056697E+03  0.7546771E-02  0.1268806E+00
         -1   -1    0    0    0  501 -0.00000000000E+00  0.00000000000E+00  0.35940888858E+03  0.35940888858E+03  0.00000000000E+00 0. -1.
         21   -1    0    0  504  502  0.00000000000E+00 -0.00000000000E+00 -0.15089029671E+03  0.15089029671E+03  0.00000000000E+00 0. -1.
         21    1    1    2  503  501  0.37779922027E+02 -0.35005235369E+02  0.35800853503E+02  0.62724717004E+02  0.00000000000E+00 0. -1.
         21    1    1    2  504  505 -0.39957895552E+02 -0.87228435795E+02 -0.44766477197E+02  0.10587478882E+03  0.00000000000E+00 0. -1.
         21    1    1    2  505  503  0.98477773250E+02  0.13401650152E+03  0.14412431373E+03  0.22006842643E+03  0.00000000000E+00 0. -1.
         -1    1    1    2    0  502 -0.96299799725E+02 -0.11782830357E+02  0.73359901831E+02  0.12163125304E+03  0.00000000000E+00 0. -1.
<scales pt_clust_3="51.50426" pt_clust_4="14000.00000" pt_clust_5="105.66972" pt_clust_6="87.44470"></scales>
<clustering>
<clus scale="   51.504">  1  3  2 -1</clus>
<clus scale="   87.445">  1  6  2 -1</clus>
<clus scale="  105.670">  1  5  2 -1</clus>
<clus scale="  105.670">  2  3  1 -1</clus>
</clustering>
</event>
<event>
 6    0  0.3584505E+002  0.7908320E+02  0.7546771E-02  0.1331673E+00
         21   -1    0    0  503  502  0.00000000000E+00  0.00000000000E+00  0.59989000675E+03  0.59989000675E+03  0.00000000000E+00 0. -1.
          2   -1    0    0  504    0 -0.00000000000E+00 -0.00000000000E+00 -0.10754863386E+04  0.10754863386E+04  0.00000000000E+00 0. -1.
         21    1    1    2  503  501  0.64148239493E+02  0.98826063429E+01  0.54676965814E+03  0.55060850121E+03  0.00000000000E+00 0. -1.
         21    1    1    2  504  505  0.57623697035E+01  0.40693951894E+02 -0.20008933802E+03  0.20426684953E+03  0.00000000000E+00 0.  1.
         21    1    1    2  505  502 -0.53286577678E+02  0.67833233624E+02  0.32874780282E+01  0.86322734296E+02  0.00000000000E+00 0.  1.
          2    1    1    2  501    0 -0.16624031519E+02 -0.11840979186E+03 -0.82556413004E+03  0.83417826035E+03  0.00000000000E+00 0. -1.
<scales pt_clust_3="64.93122" pt_clust_4="41.09991" pt_clust_5="79.08320" pt_clust_6="14000.00000"></scales>
<clustering>
<clus scale="   41.100">  2  4  1 -1</clus>
<clus scale="   64.931">  1  3  2 -1</clus>
<clus scale="   79.083">  1  5  2 -1</clus>
<clus scale="   64.931">  1  3  2 -1</clus>
</clustering>
</event>
<event>
 6    0  0.3584505E+002  0.1555319E+03  0.7546771E-02  0.1193836E+00
         21   -1    0    0  504  502  0.00000000000E+00  0.00000000000E+00  0.38184201503E+03  0.38184201503E+03  0.00000000000E+00 0.  1.
          2   -1    0    0  503    0 -0.00000000000E+00 -0.00000000000E+00 -0.49863737691E+03  0.49863737691E+03  0.00000000000E+00 0.  1.
         21    1    1    2  503  505 -0.57528127650E+02 -0.36773682107E+02 -0.54046529627E+02  0.87079369149E+02  0.00000000000E+00 0.  1.
         21    1    1    2  504  501  0.91750252525E+02  0.20813402623E+03  0.25465333203E+03  0.34144721587E+03  0.00000000000E+00 0.  1.
         21    1    1    2  505  502 -0.21562252789E+02 -0.67922075708E+02  0.38576793498E+02  0.81033993548E+02  0.00000000000E+00 0.  1.
          2    1    1    2  501    0 -0.12659872086E+02 -0.10343826842E+03 -0.35597895778E+03  0.37091881337E+03  0.00000000000E+00 0.  1.
<scales pt_clust_3="68.27730" pt_clust_4="155.53190" pt_clust_5="73.89562" pt_clust_6="14000.00000"></scales>
<clustering>
<clus scale="   68.277">  2  3  1 -1</clus>
<clus scale="   73.896">  1  5  2 -1</clus>
<clus scale="  155.532">  1  4  2 -1</clus>
<clus scale="   73.896">  1  3  2 -1</clus>
</clustering>
</event>
<event>
 6    0  0.3584505E+002  0.9980677E+02  0.7546771E-02  0.1280703E+00
         21   -1    0    0  503  502  0.00000000000E+00  0.00000000000E+00  0.42161996845E+02  0.42161996845E+02  0.00000000000E+00 0. -1.
          2   -1    0    0  504    0 -0.00000000000E+00 -0.00000000000E+00 -0.18839952714E+04  0.18839952714E+04  0.00000000000E+00 0. -1.
         21    1    1    2  503  501  0.32712987397E+02 -0.67264659233E+02 -0.22238091818E+02  0.78033368848E+02  0.00000000000E+00 0. -1.
         21    1    1    2  504  505 -0.14428905728E+02  0.50643383379E+02 -0.23162010935E+03  0.23753067308E+03  0.00000000000E+00 0. -1.
         21    1    1    2  505  502 -0.36281239532E+02  0.74636071235E+02 -0.15072969757E+03  0.17206485173E+03  0.00000000000E+00 0. -1.
          2    1    1    2  501    0  0.17997157863E+02 -0.58014795381E+02 -0.14372453758E+04  0.14385283745E+04  0.00000000000E+00 0. -1.
<scales pt_clust_3="81.55203" pt_clust_4="45.83392" pt_clust_5="45.83392" pt_clust_6="60.74219"></scales>
<clustering>
<clus scale="   45.834">  4  5 -1 -1</clus>
<clus scale="   60.742">  2  6  1 -1</clus>
<clus scale="   81.552">  1  3  2 -1</clus>
<clus scale="   81.552">  1  3  2 -1</clus>
</clustering>
</event>
<event>
 6    0  0.3584505E+002  0.9402281E+02  0.7546771E-02  0.1293392E+00
          2   -1    0    0  503    0 -0.00000000000E+00  0.00000000000E+00  0.19545264659E+04  0.19545264659E+04  0.00000000000E+00 0. -1.
         21   -1    0    0  505  502  0.00000000000E+00 -0.00000000000E+00 -0.45348435417E+03  0.45348435417E+03  0.00000000000E+00 0.  1.
         21    1    1    2  503  502  0.79766559185E+01  0.12292890832E+03 -0.39651418376E+03  0.41520915387E+03  0.00000000000E+00 0.  1.
         21    1    1    2  504  501 -0.44782232796E+02 -0.50156902682E+02  0.14892881422E+03  0.16340426851E+03  0.00000000000E+00 0. -1.
         21    1    1    2  505  504  0.16494509429E+02 -0.29677705021E+02 -0.32873253448E+02  0.47259769454E+02  0.00000000000E+00 0. -1.
          2    1    1    2  501    0  0.20311067449E+02 -0.43094300615E+02  0.17815007347E+04  0.17821376283E+04  0.00000000000E+00 0. -1.
<scales pt_clust_3="94.02281" pt_clust_4="14000.00000" pt_clust_5="33.95342" pt_clust_6="47.66703"></scales>
<clustering>
<clus scale="   33.953">  2  5  1 -1</clus>
<clus scale="   47.667">  1  6  2 -1</clus>
<clus scale="   94.023">  2  3  1 -1</clus>
<clus scale="   33.953">  2  3  1 -1</clus>
</clustering>
</event>
<event>
 6    0  0.3584505E+002  0.6452065E+02  0.7546771E-02  0.1379784E+00
          2   -1    0    0  504    0 -0.00000000000E+00  0.00000000000E+00  0.37656482762E+03  0.37656482762E+03  0.00000000000E+00 0.  1.
         21   -1    0    0  503  502  0.00000000000E+00 -0.00000000000E+00 -0.88915313786E+02  0.88915313786E+02  0.00000000000E+00 0. -1.
         21    1    1    2  503  501  0.36604850259E+02 -0.67245728115E+02  0.32838441586E+02  0.83308260442E+02  0.00000000000E+00 0. -1.
         21    1    1    2  504  505  0.13574640635E+02  0.84079976749E+02  0.10410318845E+03  0.13450348398E+03  0.00000000000E+00 0. -1.
         21    1    1    2  505  502 -0.10561794266E+02  0.28287463540E+02 -0.38633718243E+02  0.49033623942E+02  0.00000000000E+00 0. -1.
          2    1    1    2  501    0 -0.39617696628E+02 -0.45121712175E+02  0.18934160204E+03  0.19863477304E+03  0.00000000000E+00 0.  1.
<scales pt_clust_3="64.52065" pt_clust_4="14000.00000" pt_clust_5="30.19490" pt_clust_6="58.63752"></scales>
<clustering>
<clus scale="   30.195">  2  5  1 -1</clus>
<clus scale="   58.638">  1  6  2 -1</clus>
<clus scale="   64.521">  2  3  1 -1</clus>
<clus scale="   30.195">  2  3  1 -1</clus>
</clustering>
</event>
<event>
 6    0  0.3584505E+002  0.1105711E+03  0.7546771E-02  0.1259516E+00
          2   -1    0    0  504    0 -0.00000000000E+00  0.00000000000E+00  0.11476821152E+04  0.11476821152E+04  0.00000000000E+00 0. -1.
         21   -1    0    0  503  502  0.00000000000E+00 -0.00000000000E+00 -0.67122659992E+02  0.67122659992E+02  0.00000000000E+00 0. -1.
         21    1    1    2  503  501  0.43786595150E+01 -0.40368627038E+02  0.96121796255E+01  0.41727601240E+02  0.00000000000E+00 0. -1.
         21    1    1    2  504  505 -0.74408109006E+02 -0.11806774904E+03  0.27358732251E+03  0.30712633083E+03  0.00000000000E+00 0. -1.
         21    1    1    2  505  502  0.30738209396E+02  0.61134029877E+02  0.71447501306E+01  0.68798652460E+02  0.00000000000E+00 0. -1.
          2    1    1    2  501    0  0.39291240095E+02  0.97302346199E+02  0.79021520292E+03  0.79715219065E+03  0.00000000000E+00 0. -1.
<scales pt_clust_3="40.60540" pt_clust_4="14000.00000" pt_clust_5="49.65819" pt_clust_6="110.57107"></scales>
<clustering>
<clus scale="   40.605">  2  3  1 -1</clus>
<clus scale="   49.658">  2  5  1 -1</clus>
<clus scale="  110.571">  1  6  2 -1</clus>
<clus scale="   40.605">  2  3  1 -1</clus>
</clustering>
</event>
<event>
 6    0  0.3584505E+002  0.8514246E+02  0.7546771E-02  0.1315060E+00
         21   -1    0    0  503  502  0.00000000000E+00  0.00000000000E+00  0.91215901710E+03  0.91215901710E+03  0.00000000000E+00 0.  1.
          1   -1    0    0  505    0 -0.00000000000E+00 -0.00000000000E+00 -0.18085578295E+03  0.18085578295E+03  0.00000000000E+00 0.  1.
         21    1    1    2  503  504  0.63386289400E+02 -0.36260080901E+02  0.36039380031E+03  0.36771769940E+03  0.00000000000E+00 0.  1.
         21    1    1    2  504  501  0.51242367195E+02  0.85920243641E+02  0.26094435821E+03  0.27946381974E+03  0.00000000000E+00 0.  1.
         21    1    1    2  505  502 -0.30912070177E+02 -0.31021476876E+02  0.26503329411E+03  0.26862713023E+03  0.00000000000E+00 0. -1.
          1    1    1    2  501    0 -0.83716586418E+02 -0.18638685864E+02 -0.15506821848E+03  0.17720615067E+03  0.00000000000E+00 0.  1.
<scales pt_clust_3="70.72039" pt_clust_4="85.14246" pt_clust_5="43.79370" pt_clust_6="14000.00000"></scales>
<clustering>
<clus scale="   43.794">  1  5  2 -1</clus>
<clus scale="   70.720">  1  3  2 -1</clus>
<clus scale="   85.142">  1  4  2 -1</clus>
<clus scale="   43.794">  1  3  2 -1</clus>
</clustering>
</event>
<event>
 6    0  0.3584505E+002  0.1585959E+03  0.7546771E-02  0.1190291E+00
          2   -1    0    0  503    0 -0.00000000000E+00  0.00000000000E+00  0.39227231145E+03  0.39227231145E+03  0.00000000000E+00 0.  1.
         21   -1    0    0  505  502  0.00000000000E+00 -0.00000000000E+00 -0.71618590574E+03  0.71618590574E+03  0.00000000000E+00 0.  1.
         21    1    1    2  503  504 -0.93755561373E+02 -0.14827450300E+03 -0.35649120922E+03  0.39731777682E+03  0.00000000000E+00 0.  1.
         21    1    1    2  504  502 -0.41876160623E+02  0.17186090404E+02 -0.27422146368E+03  0.27793234011E+03  0.00000000000E+00 0.  1.
         21    1    1    2  505  501  0.41638286554E+01  0.42603078151E+02 -0.35754543674E+02  0.55774072205E+02  0.00000000000E+00 0.  1.
          2    1    1    2  501    0  0.13146789334E+03  0.88485334447E+02  0.34255362229E+03  0.37743402806E+03  0.00000000000E+00 0.  1.
<scales pt_clust_3="14000.00000" pt_clust_4="53.09530" pt_clust_5="42.80607" pt_clust_6="158.59586"></scales>
<clustering>
<clus scale="   42.806">  2  5  1 -1</clus>
<clus scale="   53.095">  2  4  1 -1</clus>
<clus scale="  158.596">  1  6  2 -1</clus>
<clus scale="   42.806">  2  3  1 -1</clus>
</clustering>
</event>
<event>
 6    0  0.3584505E+002  0.1068314E+03  0.7546771E-02  0.1266553E+00
          4   -1    0    0  503    0 -0.00000000000E+00  0.00000000000E+00  0.20331456847E+04  0.20331456847E+04  0.00000000000E+00 0.  1.
         21   -1    0    0  505  502  0.00000000000E+00 -0.00000000000E+00 -0.23522709018E+03  0.23522709018E+03  0.00000000000E+00 0. -1.
         21    1    1    2  503  504  0.92452182114E+02  0.10902029201E+03 -0.77347091504E+02  0.16252815944E+03  0.00000000000E+00 0. -1.
         21    1    1    2  504  502  0.26386899186E+02  0.25449809686E+02 -0.99321433189E+02  0.10587118755E+03  0.00000000000E+00 0. -1.
         21    1    1    2  505  501 -0.43811207945E+02 -0.59053555157E+02  0.10975467377E+03  0.13210916976E+03  0.00000000000E+00 0.  1.
          4    1    1    2  501    0 -0.75027873355E+02 -0.75416546538E+02  0.18648324454E+04  0.18678642581E+04  0.00000000000E+00 0.  1.
<scales pt_clust_3="106.83144" pt_clust_4="36.66008" pt_clust_5="70.48498" pt_clust_6="14000.00000"></scales>
<clustering>
<clus scale="   36.660">  2  4  1 -1</clus>
<clus scale="   70.485">  2  5  1 -1</clus>
<clus scale="  106.831">  2  3  1 -1</clus>
<clus scale="   36.660">  2  3  1 -1</clus>
</clustering>
</event>
<event>
 6    0  0.3584505E+002  0.8784908E+02  0.7546771E-02  0.1308146E+00
          2   -1    0    0  504    0 -0.00000000000E+00  0.00000000000E+00  0.46319644756E+03  0.46319644756E+03  0.00000000000E+00 0.  1.
         21   -1    0    0  505  502  0.00000000000E+00 -0.00000000000E+00 -0.11894170671E+03  0.11894170671E+03  0.00000000000E+00 0.  1.
         21    1    1    2  503  502 -0.39884016725E+02 -0.54069719383E+02  0.15004215983E+02  0.68843270125E+02  0.00000000000E+00 0.  1.
         21    1    1    2  504  503 -0.18721248231E+02  0.12636372721E+03 -0.30064757044E+02  0.13123325152E+03  0.00000000000E+00 0.  1.
         21    1    1    2  505  501  0.28409259811E+02 -0.40805565343E+02  0.53063651720E+02  0.72718163755E+02  0.00000000000E+00 0. -1.
          2    1    1    2  501    0  0.30196005145E+02 -0.31488442483E+02  0.30625163019E+03  0.30934346887E+03  0.00000000000E+00 0.  1.
<scales pt_clust_3="87.84908" pt_clust_4="14000.00000" pt_clust_5="67.21821" pt_clust_6="43.62706"></scales>
<clustering>
<clus scale="   43.627">  1  6  2 -1</clus>
<clus scale="   67.218">  1  5  2 -1</clus>
<clus scale="   87.849">  2  3  1 -1</clus>
<clus scale="   87.849">  2  3  1 -1</clus>
</clustering>
</event>
<event>
 6    0  0.3584505E+002  0.7999634E+02  0.7546771E-02  0.1329062E+00
         21   -1    0    0  505  502  0.00000000000E+00  0.00000000000E+00  0.53828521929E+02  0.53828521929E+02  0.00000000000E+00 0. -1.
          1   -1    0    0  504    0 -0.00000000000E+00 -0.00000000000E+00 -0.74885655178E+03  0.74885655178E+03  0.00000000000E+00 0. -1.
         21    1    1    2  503  502 -0.24149231952E+02 -0.29228305161E+02 -0.28494101472E+02  0.47427766605E+02  0.00000000000E+00 0. -1.
         21    1    1    2  504  503  0.45289177731E+02 -0.90790831616E+02 -0.37522581356E+03  0.38870103665E+03  0.00000000000E+00 0. -1.
         21    1    1    2  505  501 -0.53846663752E+01  0.53211381133E+02  0.12637955796E+02  0.54956015511E+02  0.00000000000E+00 0. -1.
          1    1    1    2  501    0 -0.15755279403E+02  0.66807755644E+02 -0.30394607062E+03  0.31160025495E+03  0.00000000000E+00 0. -1.
<scales pt_clust_3="37.91410" pt_clust_4="79.99634" pt_clust_5="39.02740" pt_clust_6="14000.00000"></scales>
<clustering>
<clus scale="   37.914">  1  3  2 -1</clus>
<clus scale="   39.027">  1  5  2 -1</clus>
<clus scale="   79.996">  1  4  2 -1</clus>
<clus scale="   37.914">  1  3  2 -1</clus>
</clustering>
</event>
<event>
 6    0  0.3584505E+002  0.1594966E+03  0.7546771E-02  0.1189266E+00
          2   -1    0    0  505    0 -0.00000000000E+00  0.00000000000E+00  0.59453120128E+03  0.59453120128E+03  0.00000000000E+00 0. -1.
         21   -1    0    0  504  502  0.00000000000E+00 -0.00000000000E+00 -0.66347840845E+03  0.66347840845E+03  0.00000000000E+00 0. -1.
         21    1    1    2  503  502 -0.35450634036E+02  0.37420919222E+02 -0.53975285172E+03  0.54220864397E+03  0.00000000000E+00 0. -1.
         21    1    1    2  504  501 -0.93670833732E+02 -0.13554653525E+03  0.85774338029E+02  0.18575339937E+03  0.00000000000E+00 0. -1.
         21    1    1    2  505  503  0.95001427953E+02  0.11984455369E+03  0.10448888401E+02  0.15328785872E+03  0.00000000000E+00 0. -1.
          2    1    1    2  501    0  0.34120039815E+02 -0.21718937655E+02  0.37458241812E+03  0.37675970769E+03  0.00000000000E+00 0. -1.
<scales pt_clust_3="51.32672" pt_clust_4="159.49662" pt_clust_5="14000.00000" pt_clust_6="40.44613"></scales>
<clustering>
<clus scale="   40.446">  1  6  2 -1</clus>
<clus scale="   51.327">  2  3  1 -1</clus>
<clus scale="  159.497">  1  4  2 -1</clus>
<clus scale="   51.327">  2  3  1 -1</clus>
</clustering>
</event>
<event>
 6    0  0.3584505E+002  0.1619484E+03  0.7546771E-02  0.1186514E+00
          2   -1    0    0  505    0 -0.00000000000E+00  0.00000000000E+00  0.22642899770E+04  0.22642899770E+04  0.00000000000E+00 0. -1.
         21   -1    0    0  503  502  0.00000000000E+00 -0.00000000000E+00 -0.27087770061E+03  0.27087770061E+03  0.00000000000E+00 0. -1.
         21    1    1    2  503  504  0.27898177500E+02  0.11631330272E+02 -0.16498084893E+03  0.16772679173E+03  0.00000000000E+00 0. -1.
         21    1    1    2  504  501  0.10965958104E+03  0.87999200079E+02 -0.43309411610E+02  0.14712167774E+03  0.00000000000E+00 0. -1.
         21    1    1    2  505  502 -0.11601711004E+03 -0.64956177321E+02  0.47841505576E+03  0.49654832632E+03  0.00000000000E+00 0.  1.
          2    1    1    2  501    0 -0.21540648497E+02 -0.34674353030E+02  0.17232874811E+04  0.17237708818E+04  0.00000000000E+00 0. -1.
<scales pt_clust_3="30.22575" pt_clust_4="161.94839" pt_clust_5="14000.00000" pt_clust_6="40.76360"></scales>
<clustering>
<clus scale="   30.226">  2  3  1 -1</clus>
<clus scale="   40.764">  1  6  2 -1</clus>
<clus scale="  161.948">  2  4  1 -1</clus>
<clus scale="   30.226">  2  3  1 -1</clus>
</clustering>
</event>
<event>
 6    0  0.3584505E+002  0.1082309E+03  0.7546771E-02  0.1263881E+00
          2   -1    0    0  504    0 -0.00000000000E+00  0.00000000000E+00  0.24142365645E+04  0.24142365645E+04  0.00000000000E+00 0.  1.
         21   -1    0    0  505  502  0.00000000000E+00 -0.00000000000E+00 -0.63484942562E+03  0.63484942562E+03  0.00000000000E+00 0. -1.
         21    1    1    2  503  501  0.67650574960E+02 -0.76909174965E+02  0.83056196894E+03  0.83685411257E+03  0.00000000000E+00 0.  1.
         21    1    1    2  504  502 -0.22059216519E+02  0.75692916519E+02  0.76242071152E+02  0.10967625111E+03  0.00000000000E+00 0. -1.
         21    1    1    2  505  503 -0.77435617584E+02 -0.29329758570E+01 -0.61237091298E+03  0.61725441455E+03  0.00000000000E+00 0. -1.
          2    1    1    2  501    0  0.31844259143E+02  0.41492343029E+01  0.14849540118E+04  0.14853012119E+04  0.00000000000E+00 0.  1.
<scales pt_clust_3="14000.00000" pt_clust_4="108.23094" pt_clust_5="77.40710" pt_clust_6="32.11344"></scales>
<clustering>
<clus scale="   32.113">  1  6  2 -1</clus>
<clus scale="   77.407">  2  5  1 -1</clus>
<clus scale="  108.231">  2  4  1 -1</clus>
<clus scale="   77.407">  2  3  1 -1</clus>
</clustering>
</event>
<event>
 6    0  0.3584505E+002  0.6246889E+02  0.7546771E-02  0.1387754E+00
          4   -1    0    0  503    0 -0.00000000000E+00  0.00000000000E+00  0.56064332827E+03  0.56064332827E+03  0.00000000000E+00 0.  1.
         21   -1    0    0  504  502  0.00000000000E+00 -0.00000000000E+00 -0.55721944726E+02  0.55721944726E+02  0.00000000000E+00 0.  1.
         21    1    1    2  503  502 -0.33736587107E+02  0.86400799314E+02  0.11735460601E+03  0.14958395296E+03  0.00000000000E+00 0.  1.
         21    1    1    2  504  505  0.11460407756E+02 -0.55497976865E+02 -0.39474569504E+01  0.56806239080E+02  0.00000000000E+00 0.  1.
         21    1    1    2  505  501  0.66191618344E+02 -0.49346870696E+01  0.16635365431E+03  0.17910672734E+03  0.00000000000E+00 0.  1.
          4    1    1    2  501    0 -0.43915438993E+02 -0.25968135379E+02  0.22516058018E+03  0.23086835362E+03  0.00000000000E+00 0.  1.
<scales pt_clust_3="14000.00000" pt_clust_4="62.46889" pt_clust_5="47.13493" pt_clust_6="51.01872"></scales>
<clustering>
<clus scale="   51.019">  1  6  2 -1</clus>
<clus scale="   47.135">  1  5  2 -1</clus>
<clus scale="   62.469">  2  4  1 -1</clus>
<clus scale="   62.469">  2  3  1 -1</clus>
</clustering>
</event>
<event>
 6    0  0.3584505E+002  0.1612804E+03  0.7546771E-02  0.1187259E+00
         21   -1    0    0  504  502  0.00000000000E+00  0.00000000000E+00  0.39099048098E+03  0.39099048098E+03  0.00000000000E+00 0. -1.
         -4   -1    0    0    0  501 -0.00000000000E+00 -0.00000000000E+00 -0.51815806990E+03  0.51815806990E+03  0.00000000000E+00 0. -1.
         21    1    1    2  503  502  0.26823350138E+02  0.32675614840E+02  0.18954411122E+03  0.19420133372E+03  0.00000000000E+00 0. -1.
         21    1    1    2  504  501 -0.57781058892E+02 -0.68799307264E+02 -0.77261925897E+02  0.11849641615E+03  0.00000000000E+00 0. -1.
         21    1    1    2  505  503  0.11597388451E+03  0.68989492939E+02  0.14691330696E+03  0.19948185829E+03  0.00000000000E+00 0. -1.
         -4    1    1    2    0  505 -0.85016175757E+02 -0.32865800514E+02 -0.38636308119E+03  0.39696894273E+03  0.00000000000E+00 0. -1.
<scales pt_clust_3="42.27515" pt_clust_4="85.46728" pt_clust_5="161.28040" pt_clust_6="14000.00000"></scales>
<clustering>
<clus scale="   42.275">  1  3  2 -1</clus>
<clus scale="   85.467">  2  4  1 -1</clus>
<clus scale="  161.280">  1  5  2 -1</clus>
<clus scale="   42.275">  1  3  2 -1</clus>
</clustering>
</event>
<event>
 6    0  0.3584505E+002  0.1876638E+03  0.7546771E-02  0.1160585E+00
         21   -1    0    0  503  502  0.00000000000E+00  0.00000000000E+00  0.71218316263E+02  0.71218316263E+02  0.00000000000E+00 0. -1.
          1   -1    0    0  504    0 -0.00000000000E+00 -0.00000000000E+00 -0.34224621572E+04  0.34224621572E+04  0.00000000000E+00 0.  1.
         21    1    1    2  503  505  0.41033535416E+02  0.27780428764E+02 -0.67947198547E+02  0.84097116725E+02  0.00000000000E+00 0. -1.
         21    1    1    2  504  502  0.95705559188E+00  0.10507120162E+03 -0.11770371936E+02  0.10573275283E+03  0.00000000000E+00 0. -1.
         21    1    1    2  505  501 -0.11655006815E+03  0.66516125283E+02 -0.35419115463E+03  0.37876072569E+03  0.00000000000E+00 0. -1.
          1    1    1    2  501    0  0.74559477144E+02 -0.19936775567E+03 -0.29173351159E+04  0.29250898783E+04  0.00000000000E+00 0.  1.
<scales pt_clust_3="49.55303" pt_clust_4="129.62353" pt_clust_5="187.66379" pt_clust_6="14000.00000"></scales>
<clustering>
<clus scale="   49.553">  1  3  2 -1</clus>
<clus scale="  129.624">  1  4  2 -1</clus>
<clus scale="  187.664">  1  5  2 -1</clus>
<clus scale="   49.553">  1  3  2 -1</clus>
</clustering>
</event>
<event>
 6    0  0.3584505E+002  0.1443029E+03  0.7546771E-02  0.1207654E+00
         21   -1    0    0  504  502  0.00000000000E+00  0.00000000000E+00  0.21262650586E+03  0.21262650586E+03  0.00000000000E+00 0. -1.
          2   -1    0    0  503    0 -0.00000000000E+00 -0.00000000000E+00 -0.66217353015E+03  0.66217353015E+03  0.00000000000E+00 0.  1.
         21    1    1    2  503  505  0.61833983706E+02  0.17130709897E+03 -0.41139599875E+03  0.44990691424E+03  0.00000000000E+00 0.  1.
         21    1    1    2  504  501 -0.38487860561E+02 -0.99400581222E+02  0.16433395644E+03  0.19587608378E+03  0.00000000000E+00 0. -1.
         21    1    1    2  505  502 -0.23326500348E+02 -0.30103665238E+02 -0.22483332526E+02  0.44225066656E+02  0.00000000000E+00 0. -1.
          2    1    1    2  501    0 -0.19622797053E-01 -0.41802852506E+02 -0.18000164945E+03  0.18479197133E+03  0.00000000000E+00 0.  1.
<scales pt_clust_3="14000.00000" pt_clust_4="144.30289" pt_clust_5="38.08354" pt_clust_6="42.16127"></scales>
<clustering>
<clus scale="   38.084">  1  5  2 -1</clus>
<clus scale="   42.161">  2  6  1 -1</clus>
<clus scale="  144.303">  1  4  2 -1</clus>
<clus scale="   38.084">  1  3  2 -1</clus>
</clustering>
</event>
<event>
 6    0  0.3584505E+002  0.9046251E+02  0.7546771E-02  0.1301736E+00
          2   -1    0    0  505    0 -0.00000000000E+00  0.00000000000E+00  0.20904008631E+03  0.20904008631E+03  0.00000000000E+00 0. -1.
         21   -1    0    0  503  502  0.00000000000E+00 -0.00000000000E+00 -0.60434965366E+03  0.60434965366E+03  0.00000000000E+00 0. -1.
         21    1    1    2  503  504  0.41402983572E+02  0.29764959747E+02 -0.34688538311E+03  0.35061321837E+03  0.00000000000E+00 0. -1.
         21    1    1    2  504  501 -0.88225570998E+02 -0.11843548060E+02 -0.59161469253E+02  0.10688358364E+03  0.00000000000E+00 0. -1.
         21    1    1    2  505  502  0.77837570307E+02 -0.96331658536E+01 -0.16211166928E+03  0.18008797448E+03  0.00000000000E+00 0.  1.
          2    1    1    2  501    0 -0.31014982882E+02 -0.82882458329E+01  0.17284895430E+03  0.17580496348E+03  0.00000000000E+00 0. -1.
<scales pt_clust_3="49.38358" pt_clust_4="90.46251" pt_clust_5="14000.00000" pt_clust_6="32.10334"></scales>
<clustering>
<clus scale="   32.103">  1  6  2 -1</clus>
<clus scale="   49.384">  2  3  1 -1</clus>
<clus scale="   90.463">  1  4  2 -1</clus>
<clus scale="   49.384">  2  3  1 -1</clus>
</clustering>
</event>
<event>
 6    0  0.3584505E+002  0.2389194E+03  0.7546771E-02  0.1120515E+00
         21   -1    0    0  503  502  0.00000000000E+00  0.00000000000E+00  0.14570817257E+03  0.14570817257E+03  0.00000000000E+00 0. -1.
          1   -1    0    0  504    0 -0.00000000000E+00 -0.00000000000E+00 -0.68704257619E+03  0.68704257619E+03  0.00000000000E+00 0.  1.
         21    1    1    2  503  501 -0.13770822492E+03 -0.25081048126E+02 -0.29009251934E+03  0.32209669971E+03  0.00000000000E+00 0.  1.
         21    1    1    2  504  505 -0.28983278093E+02  0.30831921591E+02 -0.39404192673E+02  0.57821520200E+02  0.00000000000E+00 0.  1.
         21    1    1    2  505  502  0.22181941323E+03 -0.50290592029E+02  0.21027955479E+01  0.22745860609E+03  0.00000000000E+00 0. -1.
          1    1    1    2  501    0 -0.55127910223E+02  0.44539718564E+02 -0.21394048715E+03  0.22537392276E+03  0.00000000000E+00 0.  1.
<scales pt_clust_3="67.48190" pt_clust_4="42.31593" pt_clust_5="221.29640" pt_clust_6="67.48190"></scales>
<clustering>
<clus scale="   42.316">  2  4  1 -1</clus>
<clus scale="   67.482">  3  6 -1 -1</clus>
<clus scale="  221.296">  1  5  2 -1</clus>
<clus scale="  221.296">  1  3  2 -1</clus>
</clustering>
</event>
<event>
 6    0  0.3584505E+002  0.1144941E+03  0.7546771E-02  0.1252467E+00
          1   -1    0    0  504    0 -0.00000000000E+00  0.00000000000E+00  0.38462482098E+03  0.38462482098E+03  0.00000000000E+00 0.  1.
         21   -1    0    0  503  502  0.00000000000E+00 -0.00000000000E+00 -0.47998102257E+03  0.47998102257E+03  0.00000000000E+00 0. -1.
         21    1    1    2  503  505 -0.73089241177E+01 -0.93149477630E+02 -0.18983254528E+03  0.21158128651E+03  0.00000000000E+00 0. -1.
         21    1    1    2  504  502 -0.70698553844E+02  0.15945657465E+03 -0.24190116406E+03  0.29822953892E+03  0.00000000000E+00 0. -1.
         21    1    1    2  505  501  0.36936521493E+02 -0.61116346323E+02  0.20992670770E+03  0.22174024671E+03  0.00000000000E+00 0.  1.
          1    1    1    2  501    0  0.41070956469E+02 -0.51907506960E+01  0.12645080005E+03  0.13305477140E+03  0.00000000000E+00 0.  1.
<scales pt_clust_3="93.43578" pt_clust_4="104.21619" pt_clust_5="36.09876" pt_clust_6="36.09876"></scales>
<clustering>
<clus scale="   36.099">  5  6 -1 -1</clus>
<clus scale="   93.436">  2  3  1 -1</clus>
<clus scale="  104.216">  2  4  1 -1</clus>
<clus scale="   93.436">  2  3  1 -1</clus>
</clustering>
</event>
<event>
 6    0  0.3584505E+002  0.1329680E+03  0.7546771E-02  0.1223117E+00
         21   -1    0    0  503  502  0.00000000000E+00  0.00000000000E+00  0.22129837084E+03  0.22129837084E+03  0.00000000000E+00 0.  1.
          2   -1    0    0  505    0 -0.00000000000E+00 -0.00000000000E+00 -0.37848107202E+03  0.37848107202E+03  0.00000000000E+00 0. -1.
         21    1    1    2  503  504 -0.50632838772E+02  0.44728510578E+02  0.15854110689E+02  0.69395077969E+02  0.00000000000E+00 0.  1.
         21    1    1    2  504  501  0.26193470115E+02  0.11928175001E+03 -0.19197236866E+03  0.22752499663E+03  0.00000000000E+00 0.  1.
         21    1    1    2  505  502 -0.27567605983E+02 -0.15530427870E+03  0.11368054527E+03  0.19442905713E+03  0.00000000000E+00 0.  1.
          2    1    1    2  501    0  0.52006974640E+02 -0.87059818840E+01 -0.94744988475E+02  0.10843031114E+03  0.00000000000E+00 0. -1.
<scales pt_clust_3="63.29172" pt_clust_4="132.96804" pt_clust_5="14000.00000" pt_clust_6="52.73063"></scales>
<clustering>
<clus scale="   52.731">  2  6  1 -1</clus>
<clus scale="   63.292">  1  3  2 -1</clus>
<clus scale="  132.968">  2  4  1 -1</clus>
<clus scale="   63.292">  1  3  2 -1</clus>
</clustering>
</event>
<event>
 6    0  0.3584505E+002  0.1286419E+03  0.7546771E-02  0.1229485E+00
         21   -1    0    0  504  502  0.00000000000E+00  0.00000000000E+00  0.22044000626E+03  0.22044000626E+03  0.00000000000E+00 0. -1.
          1   -1    0    0  505    0 -0.00000000000E+00 -0.00000000000E+00 -0.78718576700E+03  0.78718576700E+03  0.00000000000E+00 0.  1.
         21    1    1    2  503  502 -0.11743871398E+03  0.70119232201E+02  0.14526946697E+03  0.19952888587E+03  0.00000000000E+00 0. -1.
         21    1    1    2  504  501  0.29631045062E+02 -0.12552111519E+03 -0.68050915158E+02  0.14582344202E+03  0.00000000000E+00 0. -1.
         21    1    1    2  505  503  0.56522404407E+02  0.12167638677E+02 -0.98577710486E+02  0.11428210112E+03  0.00000000000E+00 0. -1.
          1    1    1    2  501    0  0.31285264507E+02  0.43234244308E+02 -0.54538660207E+03  0.54799134425E+03  0.00000000000E+00 0.  1.
<scales pt_clust_3="14000.00000" pt_clust_4="128.64187" pt_clust_5="77.01497" pt_clust_6="53.36635"></scales>
<clustering>
<clus scale="   53.366">  2  6  1 -1</clus>
<clus scale="   77.015">  2  5  1 -1</clus>
<clus scale="  128.642">  2  4  1 -1</clus>
<clus scale="  128.642">  1  3  2 -1</clus>
</clustering>
</event>
<event>
 6    0  0.3584505E+002  0.8898443E+02  0.7546771E-02  0.1305330E+00
         21   -1    0    0  503  502  0.00000000000E+00  0.00000000000E+00  0.84217361593E+03  0.84217361593E+03  0.00000000000E+00 0.  1.
          4   -1    0    0  505    0 -0.00000000000E+00 -0.00000000000E+00 -0.68971118497E+03  0.68971118497E+03  0.00000000000E+00 0.  1.
         21    1    1    2  503  504  0.29575435005E+02 -0.29635365222E+02  0.79855528838E+03  0.79965211800E+03  0.00000000000E+00 0.  1.
         21    1    1    2  504  501  0.19910120657E+02  0.73323865139E+02 -0.10213233890E+03  0.12729421335E+03  0.00000000000E+00 0.  1.
         21    1    1    2  505  502 -0.82747912820E+02 -0.67827039215E+02 -0.67064799033E+02  0.12627514242E+03  0.00000000000E+00 0.  1.
          4    1    1    2  501    0  0.33262357158E+02  0.24138539298E+02 -0.47689571948E+03  0.47866332713E+03  0.00000000000E+00 0.  1.
<scales pt_clust_3="41.88510" pt_clust_4="14000.00000" pt_clust_5="88.98443" pt_clust_6="41.09810"></scales>
<clustering>
<clus scale="   41.098">  2  6  1 -1</clus>
<clus scale="   41.885">  1  3  2 -1</clus>
<clus scale="   88.984">  1  5  2 -1</clus>
<clus scale="   41.885">  1  3  2 -1</clus>
</clustering>
</event>
<event>
 6    0  0.3584505E+002  0.9994566E+02  0.7546771E-02  0.1280410E+00
         21   -1    0    0  504  502  0.00000000000E+00  0.00000000000E+00  0.33639999149E+03  0.33639999149E+03  0.00000000000E+00 0.  1.
         -4   -1    0    0    0  501 -0.00000000000E+00 -0.00000000000E+00 -0.10623427471E+04  0.10623427471E+04  0.00000000000E+00 0.  1.
         21    1    1    2  503  505 -0.51213475728E+02 -0.43219522359E+02  0.23499980886E+03  0.24436787304E+03  0.00000000000E+00 0.  1.
         21    1    1    2  504  503  0.33173545545E+02 -0.56238210491E+02  0.78562877359E+02  0.10215354200E+03  0.00000000000E+00 0.  1.
         21    1    1    2  505  501 -0.45946210174E+02  0.60899013995E+01 -0.41098936948E+03  0.41359449096E+03  0.00000000000E+00 0.  1.
         -4    1    1    2    0  502  0.63986140357E+02  0.93367831450E+02 -0.62851607237E+03  0.63862683262E+03  0.00000000000E+00 0.  1.
<scales pt_clust_3="14000.00000" pt_clust_4="64.77797" pt_clust_5="46.34804" pt_clust_6="99.94566"></scales>
<clustering>
<clus scale="   46.348">  2  5  1 -1</clus>
<clus scale="   64.778">  1  4  2 -1</clus>
<clus scale="   99.946">  2  6  1 -1</clus>
<clus scale="   64.778">  1  3  2 -1</clus>
</clustering>
</event>
<event>
 6    0  0.3584505E+002  0.1146721E+03  0.7546771E-02  0.1252154E+00
         21   -1    0    0  503  502  0.00000000000E+00  0.00000000000E+00  0.21126168662E+03  0.21126168662E+03  0.00000000000E+00 0. -1.
          1   -1    0    0  504    0 -0.00000000000E+00 -0.00000000000E+00 -0.15241754692E+04  0.15241754692E+04  0.00000000000E+00 0. -1.
         21    1    1    2  503  505  0.56369061967E+02  0.10614820323E+03  0.35381311775E+02  0.12528666896E+03  0.00000000000E+00 0. -1.
         21    1    1    2  504  502 -0.10730156091E+03  0.16886365734E+02  0.88764710384E+02  0.14027810995E+03  0.00000000000E+00 0. -1.
         21    1    1    2  505  501  0.81318080661E+02 -0.82117663622E+02 -0.19432699681E+03  0.22609494158E+03  0.00000000000E+00 0. -1.
          1    1    1    2  501    0 -0.30385581717E+02 -0.40916905346E+02 -0.12427328079E+04  0.12437774353E+04  0.00000000000E+00 0. -1.
<scales pt_clust_3="14000.00000" pt_clust_4="110.86832" pt_clust_5="114.67213" pt_clust_6="50.96545"></scales>
<clustering>
<clus scale="   50.965">  2  6  1 -1</clus>
<clus scale="  110.868">  1  4  2 -1</clus>
<clus scale="  114.672">  2  5  1 -1</clus>
<clus scale="  110.868">  1  3  2 -1</clus>
</clustering>
</event>
<event>
 6    0  0.3584505E+002  0.9740149E+02  0.7546771E-02  0.1285857E+00
         21   -1    0    0  504  502  0.00000000000E+00  0.00000000000E+00  0.58495633969E+02  0.58495633969E+02  0.00000000000E+00 0.  1.
          2   -1    0    0  505    0 -0.00000000000E+00 -0.00000000000E+00 -0.25997820368E+04  0.25997820368E+04  0.00000000000E+00 0.  1.
         21    1    1    2  503  502 -0.97924362571E+01 -0.95967762172E+02 -0.80090906069E+01  0.96797978887E+02  0.00000000000E+00 0.  1.
         21    1    1    2  504  501 -0.21207688038E+02  0.10456587031E+03 -0.28457201574E+03  0.30391613877E+03  0.00000000000E+00 0.  1.
         21    1    1    2  505  503  0.68403255606E+02  0.23393898433E+02 -0.31330034795E+03  0.32153287218E+03  0.00000000000E+00 0.  1.
          2    1    1    2  501    0 -0.37403131311E+02 -0.31992006567E+02 -0.19354049485E+04  0.19360306809E+04  0.00000000000E+00 0.  1.
<scales pt_clust_3="14000.00000" pt_clust_4="97.40149" pt_clust_5="51.17039" pt_clust_6="49.21872"></scales>
<clustering>
<clus scale="   49.219">  2  6  1 -1</clus>
<clus scale="   51.170">  2  5  1 -1</clus>
<clus scale="   97.401">  2  4  1 -1</clus>
<clus scale="   97.401">  1  3  2 -1</clus>
</clustering>
</event>
<event>
 6    0  0.3584505E+002  0.1782633E+03  0.7546771E-02  0.1169494E+00
          2   -1    0    0  505    0 -0.00000000000E+00  0.00000000000E+00  0.27176455675E+04  0.27176455675E+04  0.00000000000E+00 0.  1.
         21   -1    0    0  504  502  0.00000000000E+00 -0.00000000000E+00 -0.73655742922E+02  0.73655742922E+02  0.00000000000E+00 0.  1.
         21    1    1    2  503  502 -0.41046583281E+02 -0.19542037401E+03  0.10148826146E+03  0.22399511555E+03  0.00000000000E+00 0.  1.
         21    1    1    2  504  501  0.37001188760E+02  0.12633394755E+02  0.60735495985E+02  0.72232202689E+02  0.00000000000E+00 0. -1.
         21    1    1    2  505  503  0.48375865387E+02  0.14485448801E+03  0.94998483468E+03  0.96218201666E+03  0.00000000000E+00 0.  1.
          2    1    1    2  501    0 -0.44330470866E+02  0.37932491243E+02  0.15317812324E+04  0.15328919755E+04  0.00000000000E+00 0.  1.
<scales pt_clust_3="14000.00000" pt_clust_4="39.09847" pt_clust_5="178.26332" pt_clust_6="58.18226"></scales>
<clustering>
<clus scale="   39.098">  2  4  1 -1</clus>
<clus scale="   58.182">  1  6  2 -1</clus>
<clus scale="  178.263">  1  5  2 -1</clus>
<clus scale="   39.098">  2  3  1 -1</clus>
</clustering>
</event>
<event>
 6    0  0.3584505E+002  0.1706286E+03  0.7546771E-02  0.1177194E+00
          2   -1    0    0  505    0 -0.00000000000E+00  0.00000000000E+00  0.86996373967E+03  0.86996373967E+03  0.00000000000E+00 0.  1.
         21   -1    0    0  503  502  0.00000000000E+00 -0.00000000000E+00 -0.35556408682E+03  0.35556408682E+03  0.00000000000E+00 0.  1.
         21    1    1    2  503  504 -0.35606618367E+02 -0.83249405728E+02 -0.17671662786E+03  0.19856248737E+03  0.00000000000E+00 0.  1.
         21    1    1    2  504  501  0.19001565574E+01 -0.22573426944E+03  0.51905189070E+01  0.22580193197E+03  0.00000000000E+00 0.  1.
         21    1    1    2  505  502  0.41749688514E+01  0.14610454473E+03  0.67556938882E+02  0.16102145307E+03  0.00000000000E+00 0.  1.
          2    1    1    2  501    0  0.29531492958E+02  0.16287913044E+03  0.61836882292E+03  0.64014195408E+03  0.00000000000E+00 0.  1.
<scales pt_clust_3="90.54444" pt_clust_4="170.62857" pt_clust_5="123.07045" pt_clust_6="14000.00000"></scales>
<clustering>
<clus scale="   90.544">  2  3  1 -1</clus>
<clus scale="  123.070">  2  5  1 -1</clus>
<clus scale="  170.629">  2  4  1 -1</clus>
<clus scale="   90.544">  2  3  1 -1</clus>
</clustering>
</event>
<event>
 6    0  0.3584505E+002  0.1014439E+03  0.7546771E-02  0.1277289E+00
          1   -1    0    0  504    0 -0.00000000000E+00  0.00000000000E+00  0.50539160425E+03  0.50539160425E+03  0.00000000000E+00 0. -1.
         21   -1    0    0  505  502  0.00000000000E+00 -0.00000000000E+00 -0.11685437210E+04  0.11685437210E+04  0.00000000000E+00 0. -1.
         21    1    1    2  503  502  0.49970746401E+02 -0.43224793477E+02 -0.33749026689E+03  0.34389698823E+03  0.00000000000E+00 0.  1.
         21    1    1    2  504  503 -0.10326833208E+03  0.63713283687E+02  0.64310956668E+02  0.13733036837E+03  0.00000000000E+00 0.  1.
         21    1    1    2  505  501  0.20390390470E+02 -0.33506875791E+02 -0.79007286583E+03  0.79104589757E+03  0.00000000000E+00 0. -1.
          1    1    1    2  501    0  0.32907195209E+02  0.13018385581E+02  0.40010005932E+03  0.40166207106E+03  0.00000000000E+00 0. -1.
<scales pt_clust_3="101.44394" pt_clust_4="14000.00000" pt_clust_5="39.25165" pt_clust_6="35.38873"></scales>
<clustering>
<clus scale="   35.389">  1  6  2 -1</clus>
<clus scale="   39.252">  2  5  1 -1</clus>
<clus scale="  101.444">  2  3  1 -1</clus>
<clus scale="   39.252">  2  3  1 -1</clus>
</clustering>
</event>
<event>
 6    0  0.3584505E+002  0.4409363E+03  0.7546771E-02  0.1030460E+00
          2   -1    0    0  504    0 -0.00000000000E+00  0.00000000000E+00  0.52447288568E+03  0.52447288568E+03  0.00000000000E+00 0.  1.
         21   -1    0    0  505  502  0.00000000000E+00 -0.00000000000E+00 -0.23674264992E+04  0.23674264992E+04  0.00000000000E+00 0.  1.
         21    1    1    2  503  502  0.43450116425E+02 -0.18723234765E+03 -0.14539840831E+04  0.14666334165E+04  0.00000000000E+00 0.  1.
         21    1    1    2  504  503 -0.37336829617E+01  0.45451090697E+03 -0.14534598860E+03  0.47719970803E+03  0.00000000000E+00 0.  1.
         21    1    1    2  505  501  0.13062802701E+02 -0.36211586305E+03 -0.52987834101E+03  0.64192646880E+03  0.00000000000E+00 0.  1.
          2    1    1    2  501    0 -0.52779236165E+02  0.94837303728E+02  0.28625479913E+03  0.30613979155E+03  0.00000000000E+00 0.  1.
<scales pt_clust_3="189.31955" pt_clust_4="440.93631" pt_clust_5="14000.00000" pt_clust_6="108.53461"></scales>
<clustering>
<clus scale="  108.535">  1  6  2 -1</clus>
<clus scale="  189.320">  2  3  1 -1</clus>
<clus scale="  440.936">  1  4  2 -1</clus>
<clus scale="  189.320">  2  3  1 -1</clus>
</clustering>
</event>
<event>
 6    0  0.3584505E+002  0.1030896E+03  0.7546771E-02  0.1273930E+00
          2   -1    0    0  504    0 -0.00000000000E+00  0.00000000000E+00  0.29738380757E+04  0.29738380757E+04  0.00000000000E+00 0. -1.
         21   -1    0    0  505  502  0.00000000000E+00 -0.00000000000E+00 -0.67347602621E+02  0.67347602621E+02  0.00000000000E+00 0.  1.
         21    1    1    2  503  502 -0.15955987410E+02 -0.42705545392E+02  0.40032518222E+00  0.45590760047E+02  0.00000000000E+00 0.  1.
         21    1    1    2  504  503  0.24850107310E+02  0.54630565719E+02  0.63179942816E+02  0.87142020394E+02  0.00000000000E+00 0.  1.
         21    1    1    2  505  501 -0.10916996907E+03  0.11232208557E+02  0.62810990923E+02  0.12644945724E+03  0.00000000000E+00 0.  1.
          2    1    1    2  501    0  0.10027584917E+03 -0.23157228884E+02  0.27800992141E+04  0.27820034406E+04  0.00000000000E+00 0. -1.
<scales pt_clust_3="45.58900" pt_clust_4="47.84866" pt_clust_5="14000.00000" pt_clust_6="103.08961"></scales>
<clustering>
<clus scale="   45.589">  2  3  1 -1</clus>
<clus scale="   47.849">  2  4  1 -1</clus>
<clus scale="  103.090">  1  6  2 -1</clus>
<clus scale="   45.589">  2  3  1 -1</clus>
</clustering>
</event>
<event>
 6    0  0.3584505E+002  0.6125642E+02  0.7546771E-02  0.1392633E+00
          2   -1    0    0  503    0 -0.00000000000E+00  0.00000000000E+00  0.30206614587E+03  0.30206614587E+03  0.00000000000E+00 0. -1.
         21   -1    0    0  504  502  0.00000000000E+00 -0.00000000000E+00 -0.46319412255E+03  0.46319412255E+03  0.00000000000E+00 0.  1.
         21    1    1    2  503  505 -0.32822949397E+01  0.91052750864E+02  0.11519434402E+03  0.14687107882E+03  0.00000000000E+00 0. -1.
         21    1    1    2  504  501  0.75221671289E+01 -0.90802587244E+02 -0.88175578748E+02  0.12679363366E+03  0.00000000000E+00 0. -1.
         21    1    1    2  505  502 -0.10005641805E+02  0.37851754679E+02 -0.33627004810E+03  0.33854159781E+03  0.00000000000E+00 0.  1.
          2    1    1    2  501    0  0.57657696157E+01 -0.38101918299E+02  0.14812330614E+03  0.15305395813E+03  0.00000000000E+00 0. -1.
<scales pt_clust_3="61.25642" pt_clust_4="14000.00000" pt_clust_5="38.86462" pt_clust_6="38.53570"></scales>
<clustering>
<clus scale="   38.536">  1  6  2 -1</clus>
<clus scale="   38.865">  2  5  1 -1</clus>
<clus scale="   61.256">  1  3  2 -1</clus>
<clus scale="   38.865">  2  3  1 -1</clus>
</clustering>
</event>
<event>
 6    0  0.3584505E+002  0.8886082E+02  0.7546771E-02  0.1305634E+00
         21   -1    0    0  505  502  0.00000000000E+00  0.00000000000E+00  0.21337300578E+03  0.21337300578E+03  0.00000000000E+00 0. -1.
         -4   -1    0    0    0  501 -0.00000000000E+00 -0.00000000000E+00 -0.21558622783E+04  0.21558622783E+04  0.00000000000E+00 0.  1.
         21    1    1    2  503  501  0.12692096436E+03 -0.10449870478E+02 -0.30139141154E+03  0.32719247231E+03  0.00000000000E+00 0. -1.
         21    1    1    2  504  502 -0.72270443112E+02  0.55748883935E+02  0.15138854234E+03  0.17677512766E+03  0.00000000000E+00 0. -1.
         21    1    1    2  505  503  0.27067092955E+02 -0.16690588434E+02  0.28212961347E+02  0.42510874506E+02  0.00000000000E+00 0. -1.
         -4    1    1    2    0  504 -0.81717614202E+02 -0.28608425023E+02 -0.18206993646E+04  0.18227568096E+04  0.00000000000E+00 0.  1.
<scales pt_clust_3="88.86082" pt_clust_4="62.19797" pt_clust_5="31.79942" pt_clust_6="14000.00000"></scales>
<clustering>
<clus scale="   31.799">  1  5  2 -1</clus>
<clus scale="   62.198">  1  4  2 -1</clus>
<clus scale="   88.861">  1  3  2 -1</clus>
<clus scale="   31.799">  1  3  2 -1</clus>
</clustering>
</event>
<event>
 6    0  0.3584505E+002  0.8797222E+02  0.7546771E-02  0.1307838E+00
         -2   -1    0    0    0  501 -0.00000000000E+00  0.00000000000E+00  0.22277772454E+03  0.22277772454E+03  0.00000000000E+00 0.  1.
         21   -1    0    0  504  502  0.00000000000E+00 -0.00000000000E+00 -0.34994513367E+03  0.34994513367E+03  0.00000000000E+00 0.  1.
         21    1    1    2  503  501 -0.53283413986E+02 -0.75088946046E+02  0.15445115565E+03  0.17981276792E+03  0.00000000000E+00 0.  1.
         21    1    1    2  504  503  0.77950816058E+01 -0.45472258339E+02 -0.28708507888E+02  0.54338457844E+02  0.00000000000E+00 0.  1.
         21    1    1    2  505  502  0.76131512236E+02  0.72165039444E+02 -0.26046395398E+03  0.28079400171E+03  0.00000000000E+00 0.  1.
         -2    1    1    2    0  505 -0.30643179856E+02  0.48396164941E+02  0.75538970870E+01  0.57777630739E+02  0.00000000000E+00 0.  1.
<scales pt_clust_3="14000.00000" pt_clust_4="46.13556" pt_clust_5="87.97222" pt_clust_6="53.83349"></scales>
<clustering>
<clus scale="   46.136">  2  4  1 -1</clus>
<clus scale="   53.833">  1  6  2 -1</clus>
<clus scale="   87.972">  2  5  1 -1</clus>
<clus scale="   46.136">  2  3  1 -1</clus>
</clustering>
</event>
<event>
 6    0  0.3584505E+002  0.1650247E+03  0.7546771E-02  0.1183138E+00
          2   -1    0    0  502    0 -0.00000000000E+00  0.00000000000E+00  0.18499718848E+04  0.18499718848E+04  0.00000000000E+00 0.  1.
         21   -1    0    0  505  502  0.00000000000E+00 -0.00000000000E+00 -0.31321936741E+03  0.31321936741E+03  0.00000000000E+00 0. -1.
         21    1    1    2  503  501 -0.86217735015E+02 -0.92568633890E+02  0.15879689682E+03  0.20302439324E+03  0.00000000000E+00 0.  1.
         21    1    1    2  504  503  0.84063627160E+02  0.15943723004E+03 -0.30731040146E+02  0.18284233799E+03  0.00000000000E+00 0. -1.
         21    1    1    2  505  504  0.48512750984E+02 -0.27364118687E+02 -0.17951406140E+03  0.18795632535E+03  0.00000000000E+00 0. -1.
          2    1    1    2  501    0 -0.46358643129E+02 -0.39504477465E+02  0.15882007221E+04  0.15893681956E+04  0.00000000000E+00 0.  1.
<scales pt_clust_3="14000.00000" pt_clust_4="165.02474" pt_clust_5="55.69813" pt_clust_6="60.82154"></scales>
<clustering>
<clus scale="   55.698">  2  5  1 -1</clus>
<clus scale="   60.822">  1  6  2 -1</clus>
<clus scale="  165.025">  2  4  1 -1</clus>
<clus scale="   55.698">  2  3  1 -1</clus>
</clustering>
</event>
<event>
 6    0  0.3584505E+002  0.8192169E+02  0.7546771E-02  0.1323685E+00
         21   -1    0    0  503  502  0.00000000000E+00  0.00000000000E+00  0.84663570870E+03  0.84663570870E+03  0.00000000000E+00 0.  1.
         -3   -1    0    0    0  501 -0.00000000000E+00 -0.00000000000E+00 -0.95413403449E+02  0.95413403449E+02  0.00000000000E+00 0.  1.
         21    1    1    2  503  505  0.48331383401E+02 -0.70276627121E+01  0.64170140670E+03  0.64355730593E+03  0.00000000000E+00 0.  1.
         21    1    1    2  504  502 -0.23544426469E+02 -0.61472246520E+02  0.57603387147E+02  0.87471865881E+02  0.00000000000E+00 0.  1.
         21    1    1    2  505  501  0.63254325768E+01  0.11343986639E+03  0.89545299221E+02  0.14466158784E+03  0.00000000000E+00 0.  1.
         -3    1    1    2    0  504 -0.31112389508E+02 -0.44939957157E+02 -0.37627787813E+02  0.66358352495E+02  0.00000000000E+00 0.  1.
<scales pt_clust_3="48.83964" pt_clust_4="81.92169" pt_clust_5="14000.00000" pt_clust_6="53.21763"></scales>
<clustering>
<clus scale="   48.840">  1  3  2 -1</clus>
<clus scale="   53.218">  2  6  1 -1</clus>
<clus scale="   81.922">  1  4  2 -1</clus>
<clus scale="   48.840">  1  3  2 -1</clus>
</clustering>
</event>
<event>
 6    0  0.3584505E+002  0.7557507E+02  0.7546771E-02  0.1342099E+00
          2   -1    0    0  504    0 -0.00000000000E+00  0.00000000000E+00  0.10015122998E+04  0.10015122998E+04  0.00000000000E+00 0. -1.
         21   -1    0    0  501  502  0.00000000000E+00 -0.00000000000E+00 -0.62723973731E+03  0.62723973731E+03  0.00000000000E+00 0. -1.
         21    1    1    2  503  502 -0.57813767078E+01 -0.72900895572E+02 -0.40591834221E+03  0.41245322818E+03  0.00000000000E+00 0. -1.
         21    1    1    2  504  505  0.16757272550E+02 -0.35578270290E+02  0.14453828273E+02  0.41899076981E+02  0.00000000000E+00 0. -1.
         21    1    1    2  505  503 -0.61091075064E+02  0.10516629784E+03 -0.18551183230E+03  0.22182585417E+03  0.00000000000E+00 0. -1.
          2    1    1    2  501    0  0.50115179221E+02  0.33128680167E+01  0.95124890868E+03  0.95257387774E+03  0.00000000000E+00 0. -1.
<scales pt_clust_3="73.24442" pt_clust_4="39.32708" pt_clust_5="75.57507" pt_clust_6="14000.00000"></scales>
<clustering>
<clus scale="   39.327">  1  4  2 -1</clus>
<clus scale="   73.244">  2  3  1 -1</clus>
<clus scale="   75.575">  2  5  1 -1</clus>
<clus scale="   73.244">  2  3  1 -1</clus>
</clustering>
</event>
<event>
 6    0  0.3584505E+002  0.7140224E+02  0.7546771E-02  0.1355389E+00
         -1   -1    0    0    0  501 -0.00000000000E+00  0.00000000000E+00  0.39736056989E+03  0.39736056989E+03  0.00000000000E+00 0. -1.
         21   -1    0    0  505  502  0.00000000000E+00 -0.00000000000E+00 -0.12532267763E+03  0.12532267763E+03  0.00000000000E+00 0. -1.
         21    1    1    2  503  502  0.26872005901E+02 -0.25843657983E+02 -0.50387771305E+02  0.62681152320E+02  0.00000000000E+00 0. -1.
         21    1    1    2  504  503 -0.75371005628E+01 -0.38362939421E+02 -0.29744093205E+02  0.49124678996E+02  0.00000000000E+00 0.  1.
         21    1    1    2  505  501  0.38389791703E+02  0.10037817182E+03  0.90538745393E+02  0.14052337137E+03  0.00000000000E+00 0. -1.
         -1    1    1    2    0  504 -0.57724697041E+02 -0.36171574413E+02  0.26163101137E+03  0.27035404483E+03  0.00000000000E+00 0. -1.
<scales pt_clust_3="37.28270" pt_clust_4="53.75728" pt_clust_5="14000.00000" pt_clust_6="71.40224"></scales>
<clustering>
<clus scale="   37.283">  2  3  1 -1</clus>
<clus scale="   53.757">  2  4  1 -1</clus>
<clus scale="   71.402">  1  6  2 -1</clus>
<clus scale="   37.283">  2  3  1 -1</clus>
</clustering>
</event>
<event>
 6    0  0.3584505E+002  0.1239312E+03  0.7546771E-02  0.1236749E+00
         21   -1    0    0  504  502  0.00000000000E+00  0.00000000000E+00  0.29188261562E+03  0.29188261562E+03  0.00000000000E+00 0. -1.
          1   -1    0    0  502    0 -0.00000000000E+00 -0.00000000000E+00 -0.20494051517E+04  0.20494051517E+04  0.00000000000E+00 0. -1.
         21    1    1    2  503  505  0.12270137056E+03 -0.23445752405E+02  0.39603271508E+02  0.13104865035E+03  0.00000000000E+00 0. -1.
         21    1    1    2  504  503  0.28198504522E+02  0.13286853332E+02  0.16384758024E+03  0.16678646731E+03  0.00000000000E+00 0. -1.
         21    1    1    2  505  501 -0.10892431199E+03  0.26892769546E+02 -0.35827708812E+02  0.11777670192E+03  0.00000000000E+00 0. -1.
          1    1    1    2  501    0 -0.41975563089E+02 -0.16733870473E+02 -0.19251456790E+04  0.19256759477E+04  0.00000000000E+00 0. -1.
<scales pt_clust_3="14000.00000" pt_clust_4="31.17204" pt_clust_5="123.93115" pt_clust_6="45.12299"></scales>
<clustering>
<clus scale="   31.172">  1  4  2 -1</clus>
<clus scale="   45.123">  2  6  1 -1</clus>
<clus scale="  123.931">  2  5  1 -1</clus>
<clus scale="   31.172">  1  3  2 -1</clus>
</clustering>
</event>
<event>
 6    0  0.3584505E+002  0.1509925E+03  0.7546771E-02  0.1199259E+00
         21   -1    0    0  503  502  0.00000000000E+00  0.00000000000E+00  0.15951564519E+03  0.15951564519E+03  0.00000000000E+00 0. -1.
          2   -1    0    0  504    0 -0.00000000000E+00 -0.00000000000E+00 -0.24396207929E+04  0.24396207929E+04  0.00000000000E+00 0.  1.
         21    1    1    2  503  505  0.40361885714E+02  0.96777633088E+01  0.11622135291E+03  0.12341046873E+03  0.00000000000E+00 0. -1.
         21    1    1    2  504  502 -0.10515170498E+03 -0.13991965257E+03 -0.16867968550E+03  0.24307864271E+03  0.00000000000E+00 0.  1.
         21    1    1    2  505  501  0.45099788239E+02  0.60995169907E+02 -0.98486620059E+03  0.98778329340E+03  0.00000000000E+00 0.  1.
          2    1    1    2  501    0  0.19690031031E+02  0.69246719359E+02 -0.12427806145E+04  0.12448640332E+04  0.00000000000E+00 0.  1.
<scales pt_clust_3="41.50591" pt_clust_4="147.15860" pt_clust_5="32.93668" pt_clust_6="32.93668"></scales>
<clustering>
<clus scale="   32.937">  5  6 -1 -1</clus>
<clus scale="   41.506">  1  3  2 -1</clus>
<clus scale="  147.159">  1  4  2 -1</clus>
<clus scale="   41.506">  1  3  2 -1</clus>
</clustering>
</event>
<event>
 6    0  0.3584505E+002  0.1009055E+03  0.7546771E-02  0.1278403E+00
         21   -1    0    0  504  502  0.00000000000E+00  0.00000000000E+00  0.71500497358E+03  0.71500497358E+03  0.00000000000E+00 0.  1.
          2   -1    0    0  503    0 -0.00000000000E+00 -0.00000000000E+00 -0.16169459027E+04  0.16169459027E+04  0.00000000000E+00 0.  1.
         21    1    1    2  503  505 -0.13159140273E+03 -0.57654380504E+01 -0.12433094509E+03  0.18112901881E+03  0.00000000000E+00 0. -1.
         21    1    1    2  504  501  0.37710144938E+02 -0.51740632735E+02  0.16488683000E+03  0.17688079267E+03  0.00000000000E+00 0. -1.
         21    1    1    2  505  502  0.62541577849E+02  0.55816649017E+02  0.51214537285E+03  0.51896033587E+03  0.00000000000E+00 0.  1.
          2    1    1    2  501    0  0.31339679944E+02  0.16894217679E+01 -0.14546421869E+04  0.14549807289E+04  0.00000000000E+00 0.  1.
<scales pt_clust_3="14000.00000" pt_clust_4="64.66417" pt_clust_5="100.90550" pt_clust_6="31.38518"></scales>
<clustering>
<clus scale="   31.385">  2  6  1 -1</clus>
<clus scale="   64.664">  1  4  2 -1</clus>
<clus scale="  100.905">  1  5  2 -1</clus>
<clus scale="   64.664">  1  3  2 -1</clus>
</clustering>
</event>
<event>
 6    0  0.3584505E+002  0.1421822E+03  0.7546771E-02  0.1210423E+00
          2   -1    0    0  504    0 -0.00000000000E+00  0.00000000000E+00  0.25350183096E+04  0.25350183096E+04  0.00000000000E+00 0.  1.
         21   -1    0    0  505  502  0.00000000000E+00 -0.00000000000E+00 -0.36882253768E+02  0.36882253768E+02  0.00000000000E+00 0. -1.
         21    1    1    2  503  501  0.83150537989E+02 -0.12346508299E+03  0.45023385568E+03  0.47420266077E+03  0.00000000000E+00 0.  1.
         21    1    1    2  504  502 -0.31946354184E+02  0.13218904782E+03  0.28385807063E+03  0.31475374211E+03  0.00000000000E+00 0. -1.
         21    1    1    2  505  503 -0.27078024233E+02  0.24335314385E+02  0.26772778427E+02  0.45190802021E+02  0.00000000000E+00 0. -1.
          2    1    1    2  501    0 -0.24126159572E+02 -0.33059279215E+02  0.17372713511E+04  0.17377533584E+04  0.00000000000E+00 0.  1.
<scales pt_clust_3="14000.00000" pt_clust_4="142.18215" pt_clust_5="36.40641" pt_clust_6="40.89565"></scales>
<clustering>
<clus scale="   36.406">  2  5  1 -1</clus>
<clus scale="   40.896">  1  6  2 -1</clus>
<clus scale="  142.182">  1  4  2 -1</clus>
<clus scale="   36.406">  2  3  1 -1</clus>
</clustering>
</event>
<event>
 6    0  0.3584505E+002  0.2419530E+03  0.7546771E-02  0.1118499E+00
         21   -1    0    0  503  502  0.00000000000E+00  0.00000000000E+00  0.19164733208E+03  0.19164733208E+03  0.00000000000E+00 0. -1.
          2   -1    0    0  504    0 -0.00000000000E+00 -0.00000000000E+00 -0.40008642228E+04  0.40008642228E+04  0.00000000000E+00 0. -1.
         21    1    1    2  503  501 -0.41829179501E+02  0.20433279415E+03 -0.38155481604E+01  0.20860519992E+03  0.00000000000E+00 0. -1.
         21    1    1    2  504  505  0.15416955059E+03 -0.27095674496E+03 -0.33612101186E+03  0.45843553809E+03  0.00000000000E+00 0. -1.
         21    1    1    2  505  502 -0.44659715386E+02  0.95367738051E+01  0.85951491660E+01  0.46468449750E+02  0.00000000000E+00 0. -1.
          2    1    1    2  501    0 -0.67680655703E+02  0.57087177005E+02 -0.34778754799E+04  0.34790023672E+04  0.00000000000E+00 0. -1.
<scales pt_clust_3="14000.00000" pt_clust_4="241.95299" pt_clust_5="45.66662" pt_clust_6="88.67995"></scales>
<clustering>
<clus scale="   45.667">  1  5  2 -1</clus>
<clus scale="   88.680">  2  6  1 -1</clus>
<clus scale="  241.953">  2  4  1 -1</clus>
<clus scale="   45.667">  1  3  2 -1</clus>
</clustering>
</event>
<event>
 6    0  0.3584505E+002  0.1601892E+03  0.7546771E-02  0.1188483E+00
         21   -1    0    0  504  502  0.00000000000E+00  0.00000000000E+00  0.12479305349E+03  0.12479305349E+03  0.00000000000E+00 0.  1.
          4   -1    0    0  505    0 -0.00000000000E+00 -0.00000000000E+00 -0.57419276246E+03  0.57419276246E+03  0.00000000000E+00 0. -1.
         21    1    1    2  503  501  0.11973160795E+03  0.39441844993E+02 -0.43646427765E+02  0.13340287754E+03  0.00000000000E+00 0.  1.
         21    1    1    2  504  503  0.28835748935E+02  0.12192512439E+02  0.37255743895E+02  0.48663623266E+02  0.00000000000E+00 0.  1.
         21    1    1    2  505  502  0.23110650106E+02 -0.29258487371E+02  0.40530866012E+01  0.37504516296E+02  0.00000000000E+00 0.  1.
          4    1    1    2  501    0 -0.17167800699E+03 -0.22375870061E+02 -0.44706211170E+03  0.47941479885E+03  0.00000000000E+00 0. -1.
<scales pt_clust_3="14000.00000" pt_clust_4="31.30747" pt_clust_5="40.13253" pt_clust_6="160.18920"></scales>
<clustering>
<clus scale="   31.307">  1  4  2 -1</clus>
<clus scale="   40.133">  1  5  2 -1</clus>
<clus scale="  160.189">  2  6  1 -1</clus>
<clus scale="   31.307">  1  3  2 -1</clus>
</clustering>
</event>
<event>
 6    0  0.3584505E+002  0.9990463E+02  0.7546771E-02  0.1280497E+00
          1   -1    0    0  503    0 -0.00000000000E+00  0.00000000000E+00  0.28376541660E+04  0.28376541660E+04  0.00000000000E+00 0. -1.
         21   -1    0    0  505  502  0.00000000000E+00 -0.00000000000E+00 -0.88004220437E+02  0.88004220437E+02  0.00000000000E+00 0.  1.
         21    1    1    2  503  504 -0.10340598469E+03 -0.11027619994E+02  0.98490757967E+02  0.14323000900E+03  0.00000000000E+00 0.  1.
         21    1    1    2  504  502 -0.37625745103E+02  0.43145955848E+02 -0.25062362492E+01  0.57302281113E+02  0.00000000000E+00 0.  1.
         21    1    1    2  505  501  0.41551620333E+02 -0.24048126659E+02 -0.18240120022E+02  0.51357098112E+02  0.00000000000E+00 0.  1.
          1    1    1    2  501    0  0.99480109464E+02 -0.80702091947E+01  0.26719055438E+04  0.26737689982E+04  0.00000000000E+00 0. -1.
<scales pt_clust_3="14000.00000" pt_clust_4="32.88765" pt_clust_5="48.00885" pt_clust_6="99.90463"></scales>
<clustering>
<clus scale="   48.009">  2  5  1 -1</clus>
<clus scale="   32.888">  2  4  1 -1</clus>
<clus scale="   99.905">  1  6  2 -1</clus>
<clus scale="   48.009">  2  3  1 -1</clus>
</clustering>
</event>
<event>
 6    0  0.3584505E+002  0.8753042E+02  0.7546771E-02  0.1308945E+00
         21   -1    0    0  501  502  0.00000000000E+00  0.00000000000E+00  0.39306209645E+03  0.39306209645E+03  0.00000000000E+00 0. -1.
          1   -1    0    0  504    0 -0.00000000000E+00 -0.00000000000E+00 -0.13326816704E+04  0.13326816704E+04  0.00000000000E+00 0.  1.
         21    1    1    2  503  502 -0.14884462364E+02 -0.27050173431E+02  0.33722354110E+03  0.33863398496E+03  0.00000000000E+00 0. -1.
         21    1    1    2  504  505  0.36455572178E+02 -0.91461048920E+02 -0.31515296290E+02  0.10337962136E+03  0.00000000000E+00 0. -1.
         21    1    1    2  505  503  0.15654358855E+02  0.39796924781E+02 -0.82027945232E+01  0.43544689816E+02  0.00000000000E+00 0. -1.
          1    1    1    2  501    0 -0.37225468669E+02  0.78714297570E+02 -0.12371250242E+04  0.12401854707E+04  0.00000000000E+00 0.  1.
<scales pt_clust_3="30.87489" pt_clust_4="14000.00000" pt_clust_5="32.97491" pt_clust_6="87.53042"></scales>
<clustering>
<clus scale="   30.875">  1  3  2 -1</clus>
<clus scale="   32.975">  1  5  2 -1</clus>
<clus scale="   87.530">  2  6  1 -1</clus>
<clus scale="   30.875">  1  3  2 -1</clus>
</clustering>
</event>
<event>
 6    0  0.3584505E+002  0.1698503E+03  0.7546771E-02  0.1178004E+00
         21   -1    0    0  503  502  0.00000000000E+00  0.00000000000E+00  0.12446882662E+04  0.12446882662E+04  0.00000000000E+00 0. -1.
         -1   -1    0    0    0  501 -0.00000000000E+00 -0.00000000000E+00 -0.56876271286E+03  0.56876271286E+03  0.00000000000E+00 0. -1.
         21    1    1    2  503  501  0.12353073194E+02 -0.18186861059E+03  0.10735901605E+04  0.10889557487E+04  0.00000000000E+00 0. -1.
         21    1    1    2  504  502  0.23461626745E+02  0.22378900271E+02  0.41519625117E+02  0.52679620127E+02  0.00000000000E+00 0. -1.
         21    1    1    2  505  504  0.19943084616E+02  0.22115480171E+03  0.28108160228E+01  0.22206997462E+03  0.00000000000E+00 0. -1.
         -1    1    1    2    0  505 -0.55757784554E+02 -0.61665091387E+02 -0.44199504829E+03  0.44974563561E+03  0.00000000000E+00 0. -1.
<scales pt_clust_3="14000.00000" pt_clust_4="32.42319" pt_clust_5="169.85029" pt_clust_6="83.03088"></scales>
<clustering>
<clus scale="   32.423">  1  4  2 -1</clus>
<clus scale="   83.031">  2  6  1 -1</clus>
<clus scale="  169.850">  2  5  1 -1</clus>
<clus scale="   32.423">  1  3  2 -1</clus>
</clustering>
</event>
<event>
 6    0  0.3584505E+002  0.6811758E+02  0.7546771E-02  0.1366614E+00
         -2   -1    0    0    0  501 -0.00000000000E+00  0.00000000000E+00  0.14115939686E+04  0.14115939686E+04  0.00000000000E+00 0. -1.
         21   -1    0    0  503  502  0.00000000000E+00 -0.00000000000E+00 -0.21783183384E+03  0.21783183384E+03  0.00000000000E+00 0. -1.
         21    1    1    2  503  505 -0.42101876897E+02 -0.29628289183E+02 -0.19839727526E+03  0.20496800333E+03  0.00000000000E+00 0. -1.
         21    1    1    2  504  502  0.41561910181E+02 -0.16594524496E+02  0.33258813705E+02  0.55757683867E+02  0.00000000000E+00 0.  1.
         21    1    1    2  505  501  0.13349803032E+02  0.10143382286E+03  0.71066751691E+03  0.71799398135E+03  0.00000000000E+00 0. -1.
         -2    1    1    2    0  504 -0.12809836316E+02 -0.55211009184E+02  0.64823307937E+03  0.65070613385E+03  0.00000000000E+00 0. -1.
<scales pt_clust_3="45.85461" pt_clust_4="44.75233" pt_clust_5="68.11758" pt_clust_6="14000.00000"></scales>
<clustering>
<clus scale="   44.752">  2  4  1 -1</clus>
<clus scale="   45.855">  2  3  1 -1</clus>
<clus scale="   68.118">  2  5  1 -1</clus>
<clus scale="   44.752">  2  3  1 -1</clus>
</clustering>
</event>
<event>
 6    0  0.3584505E+002  0.8474528E+02  0.7546771E-02  0.1316100E+00
          2   -1    0    0  504    0 -0.00000000000E+00  0.00000000000E+00  0.15919538736E+04  0.15919538736E+04  0.00000000000E+00 0. -1.
         21   -1    0    0  503  502  0.00000000000E+00 -0.00000000000E+00 -0.41543135008E+03  0.41543135008E+03  0.00000000000E+00 0. -1.
         21    1    1    2  503  505 -0.11625081045E+02  0.39622132343E+02 -0.37020093074E+03  0.37249669127E+03  0.00000000000E+00 0. -1.
         21    1    1    2  504  502 -0.22621644772E+02  0.30599267618E+02  0.13020238835E+02  0.40219157254E+02  0.00000000000E+00 0. -1.
         21    1    1    2  505  501  0.50290833896E+02 -0.12096451684E+03  0.11310073417E+03  0.17307038562E+03  0.00000000000E+00 0. -1.
          2    1    1    2  501    0 -0.16044108079E+02  0.50743116879E+02  0.14206024812E+04  0.14215989895E+04  0.00000000000E+00 0. -1.
<scales pt_clust_3="14000.00000" pt_clust_4="38.05330" pt_clust_5="84.74528" pt_clust_6="53.26378"></scales>
<clustering>
<clus scale="   38.053">  2  4  1 -1</clus>
<clus scale="   53.264">  1  6  2 -1</clus>
<clus scale="   84.745">  1  5  2 -1</clus>
<clus scale="   38.053">  2  3  1 -1</clus>
</clustering>
</event>
<event>
 6    0  0.3584505E+002  0.8908249E+02  0.7546771E-02  0.1305089E+00
          2   -1    0    0  504    0 -0.00000000000E+00  0.00000000000E+00  0.12720168055E+04  0.12720168055E+04  0.00000000000E+00 0. -1.
         21   -1    0    0  503  502  0.00000000000E+00 -0.00000000000E+00 -0.45507811397E+03  0.45507811397E+03  0.00000000000E+00 0. -1.
         21    1    1    2  503  501  0.16046887695E+02  0.26789367901E+02 -0.27619376924E+03  0.27795354109E+03  0.00000000000E+00 0. -1.
         21    1    1    2  504  505 -0.38246043458E+02  0.94672195290E+02  0.47335816554E+03  0.48424532758E+03  0.00000000000E+00 0. -1.
         21    1    1    2  505  502  0.59151890312E+02 -0.74717713236E+02 -0.15817690950E+03  0.18466623270E+03  0.00000000000E+00 0. -1.
          2    1    1    2  501    0 -0.36952734549E+02 -0.46743849955E+02  0.77795120469E+03  0.78022981805E+03  0.00000000000E+00 0. -1.
<scales pt_clust_3="31.22776" pt_clust_4="89.08249" pt_clust_5="14000.00000" pt_clust_6="59.38781"></scales>
<clustering>
<clus scale="   31.228">  2  3  1 -1</clus>
<clus scale="   59.388">  1  6  2 -1</clus>
<clus scale="   89.082">  1  4  2 -1</clus>
<clus scale="   31.228">  2  3  1 -1</clus>
</clustering>
</event>
<event>
 6    0  0.3584505E+002  0.1042530E+03  0.7546771E-02  0.1271598E+00
          2   -1    0    0  503    0 -0.00000000000E+00  0.00000000000E+00  0.13296588919E+04  0.13296588919E+04  0.00000000000E+00 0.  1.
         21   -1    0    0  501  502  0.00000000000E+00 -0.00000000000E+00 -0.12104016809E+03  0.12104016809E+03  0.00000000000E+00 0. -1.
         21    1    1    2  503  505  0.68404799990E+02 -0.10168159943E+03  0.29178770954E+03  0.31647816949E+03  0.00000000000E+00 0.  1.
         21    1    1    2  504  502 -0.22533836195E+02 -0.19951918345E+02  0.34725856761E+02  0.45953649987E+02  0.00000000000E+00 0.  1.
         21    1    1    2  505  504 -0.57961126598E+01  0.11575905618E+03 -0.69933217853E+02  0.13536768066E+03  0.00000000000E+00 0. -1.
          2    1    1    2  501    0 -0.40074851135E+02  0.58744615945E+01  0.95203837541E+03  0.95289955989E+03  0.00000000000E+00 0.  1.
<scales pt_clust_3="14000.00000" pt_clust_4="30.09739" pt_clust_5="104.25303" pt_clust_6="40.57559"></scales>
<clustering>
<clus scale="   30.097">  2  4  1 -1</clus>
<clus scale="   40.576">  1  6  2 -1</clus>
<clus scale="  104.253">  2  5  1 -1</clus>
<clus scale="   30.097">  2  3  1 -1</clus>
</clustering>
</event>
<event>
 6    0  0.3584505E+002  0.8739052E+02  0.7546771E-02  0.1309297E+00
         21   -1    0    0  504  502  0.00000000000E+00  0.00000000000E+00  0.14870276846E+03  0.14870276846E+03  0.00000000000E+00 0. -1.
          2   -1    0    0  505    0 -0.00000000000E+00 -0.00000000000E+00 -0.17268452191E+04  0.17268452191E+04  0.00000000000E+00 0. -1.
         21    1    1    2  503  502 -0.40586759849E+01 -0.55289679527E+02  0.12673314760E+03  0.13832827699E+03  0.00000000000E+00 0. -1.
         21    1    1    2  504  501  0.60656108047E+01 -0.33534084989E+02 -0.15148259358E+02  0.37293380808E+02  0.00000000000E+00 0. -1.
         21    1    1    2  505  503 -0.76085797284E+02  0.80611086655E+02 -0.94516653069E+03  0.95164434879E+03  0.00000000000E+00 0. -1.
          2    1    1    2  501    0  0.74078862464E+02  0.82126778610E+01 -0.74456080817E+03  0.74828198094E+03  0.00000000000E+00 0. -1.
<scales pt_clust_3="87.39052" pt_clust_4="34.07824" pt_clust_5="14000.00000" pt_clust_6="74.56568"></scales>
<clustering>
<clus scale="   34.078">  1  4  2 -1</clus>
<clus scale="   74.566">  2  6  1 -1</clus>
<clus scale="   87.391">  1  3  2 -1</clus>
<clus scale="   34.078">  1  3  2 -1</clus>
</clustering>
</event>
<event>
 6    0  0.3584505E+002  0.9525620E+02  0.7546771E-02  0.1290600E+00
         21   -1    0    0  504  502  0.00000000000E+00  0.00000000000E+00  0.60875973376E+03  0.60875973376E+03  0.00000000000E+00 0.  1.
          2   -1    0    0  503    0 -0.00000000000E+00 -0.00000000000E+00 -0.54640835526E+04  0.54640835526E+04  0.00000000000E+00 0. -1.
         21    1    1    2  503  502  0.62346338695E+02  0.50491608717E+02 -0.75815736011E+02  0.11038339697E+03  0.00000000000E+00 0. -1.
         21    1    1    2  504  505 -0.30916107698E+02  0.26207212343E+02  0.55838980275E+03  0.55985872817E+03  0.00000000000E+00 0.  1.
         21    1    1    2  505  501 -0.65039423376E+02  0.13296827503E+02 -0.25970436599E+01  0.66435508958E+02  0.00000000000E+00 0. -1.
          2    1    1    2  501    0  0.33609192379E+02 -0.89995648563E+02 -0.53353008419E+04  0.53361656523E+04  0.00000000000E+00 0. -1.
<scales pt_clust_3="78.83411" pt_clust_4="40.52929" pt_clust_5="95.25620" pt_clust_6="14000.00000"></scales>
<clustering>
<clus scale="   40.529">  1  4  2 -1</clus>
<clus scale="   78.834">  1  3  2 -1</clus>
<clus scale="   95.256">  1  5  2 -1</clus>
<clus scale="   40.529">  1  3  2 -1</clus>
</clustering>
</event>
<event>
 6    0  0.3584505E+002  0.1652351E+03  0.7546771E-02  0.1182910E+00
         21   -1    0    0  505  502  0.00000000000E+00  0.00000000000E+00  0.17556618602E+04  0.17556618602E+04  0.00000000000E+00 0. -1.
         -4   -1    0    0    0  501 -0.00000000000E+00 -0.00000000000E+00 -0.28300369105E+03  0.28300369105E+03  0.00000000000E+00 0. -1.
         21    1    1    2  503  504  0.43163552499E+02  0.51997711937E+02  0.58392168860E+03  0.58781918371E+03  0.00000000000E+00 0. -1.
         21    1    1    2  504  501 -0.94296139850E+02 -0.81412938176E+02 -0.30206459848E+02  0.12818837198E+03  0.00000000000E+00 0.  1.
         21    1    1    2  505  503  0.86944916982E+02  0.45109558563E+02  0.11167429720E+04  0.11210303994E+04  0.00000000000E+00 0. -1.
         -4    1    1    2    0  502 -0.35812329631E+02 -0.15694332324E+02 -0.19780003162E+03  0.20162759615E+03  0.00000000000E+00 0. -1.
<scales pt_clust_3="32.68640" pt_clust_4="160.48075" pt_clust_5="32.68640" pt_clust_6="39.10032"></scales>
<clustering>
<clus scale="   32.686">  3  5 -1 -1</clus>
<clus scale="   39.100">  2  6  1 -1</clus>
<clus scale="  160.481">  2  4  1 -1</clus>
<clus scale="  165.235">  1  3  2 -1</clus>
</clustering>
</event>
<event>
 6    0  0.3584505E+002  0.1035924E+03  0.7546771E-02  0.1272918E+00
         -1   -1    0    0    0  501 -0.00000000000E+00  0.00000000000E+00  0.84788376781E+03  0.84788376781E+03  0.00000000000E+00 0.  1.
         21   -1    0    0  504  502  0.00000000000E+00 -0.00000000000E+00 -0.63807544274E+03  0.63807544274E+03  0.00000000000E+00 0. -1.
         21    1    1    2  503  501 -0.79657062512E+02 -0.20115261559E+02  0.22408813530E+02  0.85158829721E+02  0.00000000000E+00 0. -1.
         21    1    1    2  504  503  0.10036331512E+03 -0.39362276212E+02 -0.45018190727E+03  0.46291028661E+03  0.00000000000E+00 0. -1.
         21    1    1    2  505  502 -0.21368667768E+02  0.95672074415E+02 -0.13368460795E+03  0.16577496852E+03  0.00000000000E+00 0. -1.
         -1    1    1    2    0  505  0.66241515805E+00 -0.36194536644E+02  0.77126602677E+03  0.77211512569E+03  0.00000000000E+00 0.  1.
<scales pt_clust_3="103.59239" pt_clust_4="14000.00000" pt_clust_5="90.57310" pt_clust_6="36.20060"></scales>
<clustering>
<clus scale="   36.201">  1  6  2 -1</clus>
<clus scale="   90.573">  1  5  2 -1</clus>
<clus scale="  103.592">  1  3  2 -1</clus>
<clus scale="  103.592">  2  3  1 -1</clus>
</clustering>
</event>
<event>
 6    0  0.3584505E+002  0.1382032E+03  0.7546771E-02  0.1215767E+00
         21   -1    0    0  505  502  0.00000000000E+00  0.00000000000E+00  0.24669995707E+04  0.24669995707E+04  0.00000000000E+00 0. -1.
          1   -1    0    0  504    0 -0.00000000000E+00 -0.00000000000E+00 -0.38672016715E+03  0.38672016715E+03  0.00000000000E+00 0.  1.
         21    1    1    2  503  501  0.87895143114E+02  0.53774578816E+02  0.25438107336E+02  0.10613368370E+03  0.00000000000E+00 0.  1.
         21    1    1    2  504  502 -0.15312670174E+03 -0.30164325821E+02  0.29818888014E+03  0.33656244826E+03  0.00000000000E+00 0. -1.
         21    1    1    2  505  503  0.72972531691E+01 -0.30437797189E+02  0.20811191864E+04  0.20813545535E+04  0.00000000000E+00 0. -1.
          1    1    1    2  501    0  0.57934305458E+02  0.68275441948E+01 -0.32446677029E+03  0.32966905243E+03  0.00000000000E+00 0.  1.
<scales pt_clust_3="138.20318" pt_clust_4="14000.00000" pt_clust_5="31.30031" pt_clust_6="58.36045"></scales>
<clustering>
<clus scale="   31.300">  1  5  2 -1</clus>
<clus scale="   58.360">  2  6  1 -1</clus>
<clus scale="  138.203">  2  3  1 -1</clus>
<clus scale="   31.300">  1  3  2 -1</clus>
</clustering>
</event>
<event>
 6    0  0.3584505E+002  0.1715936E+03  0.7546771E-02  0.1176196E+00
         21   -1    0    0  505  502  0.00000000000E+00  0.00000000000E+00  0.64999552053E+03  0.64999552053E+03  0.00000000000E+00 0. -1.
          1   -1    0    0  503    0 -0.00000000000E+00 -0.00000000000E+00 -0.61867641708E+03  0.61867641708E+03  0.00000000000E+00 0. -1.
         21    1    1    2  503  504 -0.52202845635E+02 -0.47005729251E+02  0.10406799014E+03  0.12555804334E+03  0.00000000000E+00 0. -1.
         21    1    1    2  504  502 -0.21929995681E+02 -0.81342474013E+02  0.11528549928E+03  0.14278749641E+03  0.00000000000E+00 0. -1.
         21    1    1    2  505  501  0.10643042518E+03  0.14620428095E+03  0.38539323616E+03  0.42571243070E+03  0.00000000000E+00 0. -1.
          1    1    1    2  501    0 -0.32297583866E+02 -0.17856077686E+02 -0.57342762213E+03  0.57461396716E+03  0.00000000000E+00 0. -1.
<scales pt_clust_3="40.51986" pt_clust_4="40.51986" pt_clust_5="165.89135" pt_clust_6="36.90492"></scales>
<clustering>
<clus scale="   36.905">  2  6  1 -1</clus>
<clus scale="   40.520">  3  4 -1 -1</clus>
<clus scale="  165.891">  1  5  2 -1</clus>
<clus scale="  165.891">  1  3  2 -1</clus>
</clustering>
</event>
<event>
 6    0  0.3584505E+002  0.2137677E+03  0.7546771E-02  0.1138617E+00
         -1   -1    0    0    0  501 -0.00000000000E+00  0.00000000000E+00  0.14229236054E+04  0.14229236054E+04  0.00000000000E+00 0. -1.
         21   -1    0    0  503  502  0.00000000000E+00 -0.00000000000E+00 -0.20405973943E+03  0.20405973943E+03  0.00000000000E+00 0.  1.
         21    1    1    2  503  504  0.27775242865E+02 -0.26429464340E+02 -0.42267508593E+01  0.38572608472E+02  0.00000000000E+00 0.  1.
         21    1    1    2  504  501  0.23669406389E+03 -0.29006067648E+01  0.34245150290E+03  0.41629980212E+03  0.00000000000E+00 0. -1.
         21    1    1    2  505  502 -0.22562984606E+03 -0.24483257913E+02 -0.55484224024E+02  0.23363808864E+03  0.00000000000E+00 0.  1.
         -1    1    1    2    0  505 -0.38839460701E+02  0.53813329018E+02  0.93612333790E+03  0.93847284556E+03  0.00000000000E+00 0. -1.
<scales pt_clust_3="38.34033" pt_clust_4="213.76770" pt_clust_5="14000.00000" pt_clust_6="66.12313"></scales>
<clustering>
<clus scale="   38.340">  2  3  1 -1</clus>
<clus scale="   66.123">  1  6  2 -1</clus>
<clus scale="  213.768">  1  4  2 -1</clus>
<clus scale="   38.340">  2  3  1 -1</clus>
</clustering>
</event>
<event>
 6    0  0.3584505E+002  0.1451494E+03  0.7546771E-02  0.1206563E+00
         21   -1    0    0  505  502  0.00000000000E+00  0.00000000000E+00  0.15632433654E+03  0.15632433654E+03  0.00000000000E+00 0.  1.
          1   -1    0    0  504    0 -0.00000000000E+00 -0.00000000000E+00 -0.36955835666E+03  0.36955835666E+03  0.00000000000E+00 0.  1.
         21    1    1    2  503  502  0.56786552119E+02 -0.20188986705E+02  0.18950213843E+02  0.63177672404E+02  0.00000000000E+00 0.  1.
         21    1    1    2  504  503  0.24630873830E+02 -0.16169950954E+03 -0.37339460659E+02  0.16777260401E+03  0.00000000000E+00 0.  1.
         21    1    1    2  505  501 -0.12982760631E+01  0.64137348567E+02 -0.15648864274E+02  0.66031598155E+02  0.00000000000E+00 0. -1.
          1    1    1    2  501    0 -0.80119149886E+02  0.11775114768E+03 -0.17919590903E+03  0.22890081863E+03  0.00000000000E+00 0.  1.
<scales pt_clust_3="60.26863" pt_clust_4="14000.00000" pt_clust_5="60.74994" pt_clust_6="145.14939"></scales>
<clustering>
<clus scale="   60.269">  1  3  2 -1</clus>
<clus scale="   60.750">  1  5  2 -1</clus>
<clus scale="  145.149">  2  6  1 -1</clus>
<clus scale="   60.269">  1  3  2 -1</clus>
</clustering>
</event>
<event>
 6    0  0.3584505E+002  0.1044387E+03  0.7546771E-02  0.1271229E+00
          4   -1    0    0  505    0 -0.00000000000E+00  0.00000000000E+00  0.31002080321E+02  0.31002080321E+02  0.00000000000E+00 0.  1.
         21   -1    0    0  504  502  0.00000000000E+00 -0.00000000000E+00 -0.14345412538E+04  0.14345412538E+04  0.00000000000E+00 0.  1.
         21    1    1    2  503  501 -0.10795382632E+03  0.74265207081E+02 -0.69723755021E+03  0.70944312740E+03  0.00000000000E+00 0.  1.
         21    1    1    2  504  503  0.46128338171E+02  0.40220234220E+02 -0.38661736463E+03  0.39143131896E+03  0.00000000000E+00 0.  1.
         21    1    1    2  505  502 -0.76076450326E+01 -0.42287194997E+02 -0.21702705267E+03  0.22123929288E+03  0.00000000000E+00 0.  1.
          4    1    1    2  501    0  0.69433133177E+02 -0.72198246305E+02 -0.10265720598E+03  0.14342959490E+03  0.00000000000E+00 0.  1.
<scales pt_clust_3="104.43870" pt_clust_4="51.19764" pt_clust_5="42.96607" pt_clust_6="14000.00000"></scales>
<clustering>
<clus scale="   42.966">  2  5  1 -1</clus>
<clus scale="   51.198">  2  4  1 -1</clus>
<clus scale="  104.439">  2  3  1 -1</clus>
<clus scale="   42.966">  2  3  1 -1</clus>
</clustering>
</event>
<event>
 6    0  0.3584505E+002  0.7095591E+02  0.7546771E-02  0.1356872E+00
         21   -1    0    0  505  502  0.00000000000E+00  0.00000000000E+00  0.34255661950E+03  0.34255661950E+03  0.00000000000E+00 0.  1.
          1   -1    0    0  503    0 -0.00000000000E+00 -0.00000000000E+00 -0.29500512739E+03  0.29500512739E+03  0.00000000000E+00 0.  1.
         21    1    1    2  503  502 -0.35647335238E+02 -0.69148913029E+02  0.27723929835E+02  0.82588867096E+02  0.00000000000E+00 0.  1.
         21    1    1    2  504  501  0.33005839183E+02  0.55558263989E+02  0.14675212512E+02  0.66268152079E+02  0.00000000000E+00 0.  1.
         21    1    1    2  505  504 -0.48306352495E+02  0.32598673842E+02  0.24034412225E+03  0.24730845988E+03  0.00000000000E+00 0.  1.
          1    1    1    2  501    0  0.50947848551E+02 -0.19008024803E+02 -0.23519177249E+03  0.24139626784E+03  0.00000000000E+00 0.  1.
<scales pt_clust_3="14000.00000" pt_clust_4="70.95591" pt_clust_5="55.03634" pt_clust_6="54.37820"></scales>
<clustering>
<clus scale="   54.378">  2  6  1 -1</clus>
<clus scale="   55.036">  1  5  2 -1</clus>
<clus scale="   70.956">  2  4  1 -1</clus>
<clus scale="   55.036">  1  3  2 -1</clus>
</clustering>
</event>
<event>
 6    0  0.3584505E+002  0.2233146E+03  0.7546771E-02  0.1131436E+00
          1   -1    0    0  502    0 -0.00000000000E+00  0.00000000000E+00  0.13831098895E+04  0.13831098895E+04  0.00000000000E+00 0.  1.
         21   -1    0    0  503  502  0.00000000000E+00 -0.00000000000E+00 -0.20064401781E+03  0.20064401781E+03  0.00000000000E+00 0. -1.
         21    1    1    2  503  505 -0.44226864285E+02  0.57251429996E+02 -0.72193231994E+02  0.10220374018E+03  0.00000000000E+00 0. -1.
         21    1    1    2  504  501  0.13431804102E+03 -0.10718834810E+03  0.19167452384E+03  0.25742921591E+03  0.00000000000E+00 0. -1.
         21    1    1    2  505  504 -0.11058341608E+03  0.97086630430E+02 -0.12244755477E+02  0.14766326475E+03  0.00000000000E+00 0. -1.
          1    1    1    2  501    0  0.20492239339E+02 -0.47149712321E+02  0.10752293353E+04  0.10764576865E+04  0.00000000000E+00 0.  1.
<scales pt_clust_3="61.93894" pt_clust_4="205.79635" pt_clust_5="61.93894" pt_clust_6="51.41038"></scales>
<clustering>
<clus scale="   51.410">  1  6  2 -1</clus>
<clus scale="   61.939">  3  5 -1 -1</clus>
<clus scale="  205.796">  1  4  2 -1</clus>
<clus scale="  223.315">  2  3  1 -1</clus>
</clustering>
</event>
<event>
 6    0  0.3584505E+002  0.1157038E+03  0.7546771E-02  0.1250358E+00
         21   -1    0    0  505  502  0.00000000000E+00  0.00000000000E+00  0.49514518194E+03  0.49514518194E+03  0.00000000000E+00 0. -1.
          2   -1    0    0  504    0 -0.00000000000E+00 -0.00000000000E+00 -0.20633556378E+04  0.20633556378E+04  0.00000000000E+00 0. -1.
         21    1    1    2  503  501  0.17749916239E+02 -0.11549732415E+03 -0.16340256407E+03  0.20088576196E+03  0.00000000000E+00 0. -1.
         21    1    1    2  504  502 -0.93307775585E+02  0.59794140126E+02 -0.23454036364E+02  0.11327741169E+03  0.00000000000E+00 0. -1.
         21    1    1    2  505  503 -0.34808444432E+02  0.14709284511E+02  0.42874845083E+03  0.43041053071E+03  0.00000000000E+00 0. -1.
          2    1    1    2  501    0  0.11036630378E+03  0.40993899515E+02 -0.18101023062E+04  0.18139271153E+04  0.00000000000E+00 0. -1.
<scales pt_clust_3="111.56576" pt_clust_4="115.70380" pt_clust_5="37.78877" pt_clust_6="14000.00000"></scales>
<clustering>
<clus scale="   37.789">  1  5  2 -1</clus>
<clus scale="  111.566">  1  3  2 -1</clus>
<clus scale="  115.704">  1  4  2 -1</clus>
<clus scale="   37.789">  1  3  2 -1</clus>
</clustering>
</event>
<event>
 6    0  0.3584505E+002  0.7608336E+02  0.7546771E-02  0.1340549E+00
          1   -1    0    0  505    0 -0.00000000000E+00  0.00000000000E+00  0.20192703152E+04  0.20192703152E+04  0.00000000000E+00 0. -1.
         21   -1    0    0  503  502  0.00000000000E+00 -0.00000000000E+00 -0.58053556617E+03  0.58053556617E+03  0.00000000000E+00 0. -1.
         21    1    1    2  503  501  0.41907107214E+02  0.40193939739E+02 -0.53599473842E+03  0.53913089138E+03  0.00000000000E+00 0. -1.
         21    1    1    2  504  502  0.14334968179E+02 -0.51075869605E+02 -0.14472762196E+02  0.54988149762E+02  0.00000000000E+00 0.  1.
         21    1    1    2  505  504 -0.18786008321E+02  0.78945162052E+02  0.21532079424E+03  0.23010496986E+03  0.00000000000E+00 0. -1.
          1    1    1    2  501    0 -0.37456067073E+02 -0.68063232186E+02  0.17738814554E+04  0.17755818703E+04  0.00000000000E+00 0. -1.
<scales pt_clust_3="56.93060" pt_clust_4="53.04937" pt_clust_5="14000.00000" pt_clust_6="76.08336"></scales>
<clustering>
<clus scale="   53.049">  2  4  1 -1</clus>
<clus scale="   56.931">  2  3  1 -1</clus>
<clus scale="   76.083">  1  6  2 -1</clus>
<clus scale="   53.049">  2  3  1 -1</clus>
</clustering>
</event>
<event>
 6    0  0.3584505E+002  0.1757483E+03  0.7546771E-02  0.1171982E+00
          1   -1    0    0  505    0 -0.00000000000E+00  0.00000000000E+00  0.21043003622E+04  0.21043003622E+04  0.00000000000E+00 0.  1.
         21   -1    0    0  504  502  0.00000000000E+00 -0.00000000000E+00 -0.10040550967E+03  0.10040550967E+03  0.00000000000E+00 0. -1.
         21    1    1    2  503  502  0.16538303031E+03  0.61726620442E+02  0.16955371858E+03  0.24476557330E+03  0.00000000000E+00 0. -1.
         21    1    1    2  504  501  0.83573767168E+00  0.30831152707E+02 -0.33778392338E+02  0.45740990628E+02  0.00000000000E+00 0. -1.
         21    1    1    2  505  503 -0.13789442857E+03 -0.10299798274E+03  0.30058232366E+03  0.34637146415E+03  0.00000000000E+00 0. -1.
          1    1    1    2  501    0 -0.28324339409E+02  0.10440209587E+02  0.15675372026E+04  0.15678278438E+04  0.00000000000E+00 0.  1.
<scales pt_clust_3="175.74827" pt_clust_4="30.95189" pt_clust_5="14000.00000" pt_clust_6="30.18719"></scales>
<clustering>
<clus scale="   30.187">  1  6  2 -1</clus>
<clus scale="   30.952">  2  4  1 -1</clus>
<clus scale="  175.748">  2  3  1 -1</clus>
<clus scale="   30.952">  2  3  1 -1</clus>
</clustering>
</event>
<event>
 6    0  0.3584505E+002  0.1155254E+03  0.7546771E-02  0.1250667E+00
         21   -1    0    0  501  502  0.00000000000E+00  0.00000000000E+00  0.19266851735E+03  0.19266851735E+03  0.00000000000E+00 0. -1.
          1   -1    0    0  504    0 -0.00000000000E+00 -0.00000000000E+00 -0.72527574316E+03  0.72527574316E+03  0.00000000000E+00 0. -1.
         21    1    1    2  503  502 -0.15454964994E+02 -0.28910534240E+02  0.13554355362E+03  0.13945153230E+03  0.00000000000E+00 0. -1.
         21    1    1    2  504  505 -0.19680724139E+02 -0.25329299010E+02 -0.92129793812E+02  0.97554103957E+02  0.00000000000E+00 0. -1.
         21    1    1    2  505  503 -0.60986322502E+02 -0.61631051859E+02 -0.11829441752E+01  0.86712844738E+02  0.00000000000E+00 0. -1.
          1    1    1    2  501    0  0.96122011635E+02  0.11587088511E+03 -0.57483804145E+03  0.59422577951E+03  0.00000000000E+00 0. -1.
<scales pt_clust_3="32.88023" pt_clust_4="32.07654" pt_clust_5="14000.00000" pt_clust_6="115.52536"></scales>
<clustering>
<clus scale="   32.077">  2  4  1 -1</clus>
<clus scale="   32.880">  1  3  2 -1</clus>
<clus scale="  115.525">  2  6  1 -1</clus>
<clus scale="   32.880">  1  3  2 -1</clus>
</clustering>
</event>
<event>
 6    0  0.3584505E+002  0.1227966E+03  0.7546771E-02  0.1238553E+00
         21   -1    0    0  503  502  0.00000000000E+00  0.00000000000E+00  0.20537656551E+03  0.20537656551E+03  0.00000000000E+00 0.  1.
          1   -1    0    0  504    0 -0.00000000000E+00 -0.00000000000E+00 -0.11300257716E+04  0.11300257716E+04  0.00000000000E+00 0.  1.
         21    1    1    2  503  501 -0.25400886187E+02  0.22044681501E+02 -0.13063922088E+02  0.36081006942E+02  0.00000000000E+00 0. -1.
         21    1    1    2  504  505  0.30063940440E+02 -0.37966479910E+02 -0.47708329412E+03  0.47953494517E+03  0.00000000000E+00 0. -1.
         21    1    1    2  505  502 -0.82549927301E+02 -0.82430155945E+02  0.16790530505E+03  0.20445393753E+03  0.00000000000E+00 0.  1.
          1    1    1    2  501    0  0.77886873049E+02  0.98351954353E+02 -0.60240729497E+03  0.61533244750E+03  0.00000000000E+00 0.  1.
<scales pt_clust_3="33.63292" pt_clust_4="48.21927" pt_clust_5="14000.00000" pt_clust_6="122.79665"></scales>
<clustering>
<clus scale="   33.633">  1  3  2 -1</clus>
<clus scale="   48.219">  2  4  1 -1</clus>
<clus scale="  122.797">  2  6  1 -1</clus>
<clus scale="   33.633">  1  3  2 -1</clus>
</clustering>
</event>
<event>
 6    0  0.3584505E+002  0.2813744E+03  0.7546771E-02  0.1094941E+00
         -4   -1    0    0    0  501 -0.00000000000E+00  0.00000000000E+00  0.26084729677E+03  0.26084729677E+03  0.00000000000E+00 0.  1.
         21   -1    0    0  503  502  0.00000000000E+00 -0.00000000000E+00 -0.29419074063E+04  0.29419074063E+04  0.00000000000E+00 0.  1.
         21    1    1    2  503  501 -0.93974548482E+02  0.27851212734E+03 -0.22581521046E+04  0.22772024829E+04  0.00000000000E+00 0.  1.
         21    1    1    2  504  505 -0.23220162300E+02 -0.18903397032E+03 -0.52388463612E+03  0.55742993267E+03  0.00000000000E+00 0.  1.
         21    1    1    2  505  502  0.23960185770E+02 -0.47940895622E+02 -0.11630585422E+03  0.12806042208E+03  0.00000000000E+00 0.  1.
         -4    1    1    2    0  504  0.93234525012E+02 -0.41537261402E+02  0.21728248541E+03  0.24006186537E+03  0.00000000000E+00 0.  1.
<scales pt_clust_3="274.36475" pt_clust_4="33.10924" pt_clust_5="33.10924" pt_clust_6="102.06871"></scales>
<clustering>
<clus scale="   33.109">  4  5 -1 -1</clus>
<clus scale="  102.069">  1  6  2 -1</clus>
<clus scale="  274.365">  2  3  1 -1</clus>
<clus scale="  274.365">  2  3  1 -1</clus>
</clustering>
</event>
<event>
 6    0  0.3584505E+002  0.7475003E+02  0.7546771E-02  0.1344647E+00
          1   -1    0    0  505    0 -0.00000000000E+00  0.00000000000E+00  0.19359161696E+03  0.19359161696E+03  0.00000000000E+00 0. -1.
         21   -1    0    0  503  502  0.00000000000E+00 -0.00000000000E+00 -0.43154122026E+03  0.43154122026E+03  0.00000000000E+00 0. -1.
         21    1    1    2  503  501 -0.44435685029E+02 -0.64225364388E+02 -0.42115907608E+02  0.88730925885E+02  0.00000000000E+00 0. -1.
         21    1    1    2  504  502 -0.18166631313E+02 -0.23929505922E+02 -0.27967777044E+03  0.28128686962E+03  0.00000000000E+00 0. -1.
         21    1    1    2  505  504  0.85010059816E+02  0.15654303321E+02 -0.51015868313E+02  0.10037124241E+03  0.00000000000E+00 0. -1.
          1    1    1    2  501    0 -0.22407743473E+02  0.72500566989E+02  0.13485994306E+03  0.15474379931E+03  0.00000000000E+00 0. -1.
<scales pt_clust_3="73.63760" pt_clust_4="30.04410" pt_clust_5="14000.00000" pt_clust_6="74.75003"></scales>
<clustering>
<clus scale="   30.044">  2  4  1 -1</clus>
<clus scale="   74.750">  1  6  2 -1</clus>
<clus scale="   73.638">  1  3  2 -1</clus>
<clus scale="   30.044">  2  3  1 -1</clus>
</clustering>
</event>
<event>
 6    0  0.3584505E+002  0.9873577E+02  0.7546771E-02  0.1282977E+00
         21   -1    0    0  503  502  0.00000000000E+00  0.00000000000E+00  0.49451508307E+03  0.49451508307E+03  0.00000000000E+00 0. -1.
         -1   -1    0    0    0  501 -0.00000000000E+00 -0.00000000000E+00 -0.41262492184E+03  0.41262492184E+03  0.00000000000E+00 0.  1.
         21    1    1    2  503  504 -0.82505879173E+02  0.56910911167E+02  0.36425629877E+03  0.37779455144E+03  0.00000000000E+00 0. -1.
         21    1    1    2  504  501  0.57459121731E+02  0.15501451611E+02 -0.21405965405E+02  0.63246035663E+02  0.00000000000E+00 0. -1.
         21    1    1    2  505  502  0.41169622595E+02 -0.97735622793E+02  0.74304969335E+02  0.12949292743E+03  0.00000000000E+00 0. -1.
         -1    1    1    2    0  505 -0.16122865153E+02  0.25323260015E+02 -0.33526514147E+03  0.33660649037E+03  0.00000000000E+00 0.  1.
<scales pt_clust_3="98.73577" pt_clust_4="56.80736" pt_clust_5="14000.00000" pt_clust_6="30.02023"></scales>
<clustering>
<clus scale="   30.020">  2  6  1 -1</clus>
<clus scale="   56.807">  2  4  1 -1</clus>
<clus scale="   98.736">  1  3  2 -1</clus>
<clus scale="   98.736">  1  3  2 -1</clus>
</clustering>
</event>
<event>
 6    0  0.3584505E+002  0.9325424E+02  0.7546771E-02  0.1295157E+00
         -1   -1    0    0    0  501 -0.00000000000E+00  0.00000000000E+00  0.82216607242E+03  0.82216607242E+03  0.00000000000E+00 0.  1.
         21   -1    0    0  505  502  0.00000000000E+00 -0.00000000000E+00 -0.10406117831E+03  0.10406117831E+03  0.00000000000E+00 0. -1.
         21    1    1    2  503  502  0.48836315908E+02 -0.82167956229E+02 -0.56622429733E+02  0.11109751721E+03  0.00000000000E+00 0. -1.
         21    1    1    2  504  503 -0.10334369806E+03  0.24519132366E+02  0.16193575584E+03  0.19366026128E+03  0.00000000000E+00 0.  1.
         21    1    1    2  505  501  0.32317565415E+02  0.16061594647E+02  0.96446448053E+02  0.10297726545E+03  0.00000000000E+00 0.  1.
         -1    1    1    2    0  504  0.22189816733E+02  0.41587229216E+02  0.51634511995E+03  0.51849220679E+03  0.00000000000E+00 0.  1.
<scales pt_clust_3="93.25424" pt_clust_4="14000.00000" pt_clust_5="36.08878" pt_clust_6="69.81338"></scales>
<clustering>
<clus scale="   36.089">  1  5  2 -1</clus>
<clus scale="   69.813">  1  6  2 -1</clus>
<clus scale="   93.254">  2  3  1 -1</clus>
<clus scale="   93.254">  2  3  1 -1</clus>
</clustering>
</event>
<event>
 6    0  0.3584505E+002  0.9899100E+02  0.7546771E-02  0.1282432E+00
          2   -1    0    0  504    0 -0.00000000000E+00  0.00000000000E+00  0.88997697938E+03  0.88997697938E+03  0.00000000000E+00 0. -1.
         21   -1    0    0  501  502  0.00000000000E+00 -0.00000000000E+00 -0.14696505082E+03  0.14696505082E+03  0.00000000000E+00 0. -1.
         21    1    1    2  503  505  0.45177060407E+01 -0.14701036381E+03  0.48598619788E+02  0.15490087986E+03  0.00000000000E+00 0. -1.
         21    1    1    2  504  503 -0.73318956691E+02 -0.30779312423E+01  0.11608562420E+03  0.13733541138E+03  0.00000000000E+00 0. -1.
         21    1    1    2  505  502 -0.32283231308E+02  0.67880832815E+02 -0.58146881678E+02  0.95031964813E+02  0.00000000000E+00 0. -1.
          2    1    1    2  501    0  0.10108448196E+03  0.82207462236E+02  0.63647456625E+03  0.64967377416E+03  0.00000000000E+00 0. -1.
<scales pt_clust_3="98.99100" pt_clust_4="73.38353" pt_clust_5="75.87784" pt_clust_6="14000.00000"></scales>
<clustering>
<clus scale="   73.384">  1  4  2 -1</clus>
<clus scale="   75.878">  2  5  1 -1</clus>
<clus scale="   98.991">  2  3  1 -1</clus>
<clus scale="   75.878">  2  3  1 -1</clus>
</clustering>
</event>
<event>
 6    0  0.3584505E+002  0.1511911E+03  0.7546771E-02  0.1199017E+00
          2   -1    0    0  505    0 -0.00000000000E+00  0.00000000000E+00  0.47227430645E+03  0.47227430645E+03  0.00000000000E+00 0.  1.
         21   -1    0    0  503  502  0.00000000000E+00 -0.00000000000E+00 -0.12551728813E+03  0.12551728813E+03  0.00000000000E+00 0.  1.
         21    1    1    2  503  501 -0.36819903452E+02  0.13258697731E+03  0.63318014621E+02  0.15147337330E+03  0.00000000000E+00 0. -1.
         21    1    1    2  504  502  0.44130800333E+02 -0.11159675177E+03 -0.22794731759E+01  0.12002732415E+03  0.00000000000E+00 0.  1.
         21    1    1    2  505  504  0.33352421850E+02 -0.68222769380E+01 -0.31889398843E+01  0.34192058193E+02  0.00000000000E+00 0. -1.
          2    1    1    2  501    0 -0.40663318731E+02 -0.14167948598E+02  0.28890741676E+03  0.29209883895E+03  0.00000000000E+00 0.  1.
<scales pt_clust_3="138.31761" pt_clust_4="32.51567" pt_clust_5="32.51567" pt_clust_6="43.06084"></scales>
<clustering>
<clus scale="   32.516">  4  5 -1 -1</clus>
<clus scale="   43.061">  1  6  2 -1</clus>
<clus scale="  138.318">  1  3  2 -1</clus>
<clus scale="  151.191">  2  3  1 -1</clus>
</clustering>
</event>
<event>
 6    0  0.3584505E+002  0.1369128E+03  0.7546771E-02  0.1217544E+00
         -1   -1    0    0    0  501 -0.00000000000E+00  0.00000000000E+00  0.19500936173E+03  0.19500936173E+03  0.00000000000E+00 0.  1.
         21   -1    0    0  505  502  0.00000000000E+00 -0.00000000000E+00 -0.15437367030E+04  0.15437367030E+04  0.00000000000E+00 0. -1.
         21    1    1    2  503  502  0.69128255832E+02 -0.11931915555E+03 -0.10070586999E+04  0.10164560992E+04  0.00000000000E+00 0. -1.
         21    1    1    2  504  503  0.60908762773E+02  0.17514471188E+03 -0.20279308846E+03  0.27479189254E+03  0.00000000000E+00 0. -1.
         21    1    1    2  505  501 -0.10586390006E+03 -0.80335115348E+02 -0.27588799421E+03  0.30622717293E+03  0.00000000000E+00 0. -1.
         -1    1    1    2    0  504 -0.24173118543E+02  0.24509559018E+02  0.13701244126E+03  0.14127090006E+03  0.00000000000E+00 0.  1.
<scales pt_clust_3="136.91283" pt_clust_4="14000.00000" pt_clust_5="134.41991" pt_clust_6="34.42467"></scales>
<clustering>
<clus scale="   34.425">  1  6  2 -1</clus>
<clus scale="  134.420">  1  5  2 -1</clus>
<clus scale="  136.913">  2  3  1 -1</clus>
<clus scale="  136.913">  2  3  1 -1</clus>
</clustering>
</event>
<event>
 6    0  0.3584505E+002  0.2146133E+03  0.7546771E-02  0.1137964E+00
          3   -1    0    0  505    0 -0.00000000000E+00  0.00000000000E+00  0.18509726603E+03  0.18509726603E+03  0.00000000000E+00 0.  1.
         21   -1    0    0  504  502  0.00000000000E+00 -0.00000000000E+00 -0.10089912320E+04  0.10089912320E+04  0.00000000000E+00 0.  1.
         21    1    1    2  503  502  0.43156030834E+02  0.10459301431E+02 -0.22280865601E+03  0.22719053056E+03  0.00000000000E+00 0.  1.
         21    1    1    2  504  501 -0.16508917182E+03 -0.13155158734E+03 -0.31735488759E+03  0.38114876290E+03  0.00000000000E+00 0.  1.
         21    1    1    2  505  503  0.17312282592E+03  0.13468021636E+03 -0.40100358424E+03  0.45707127246E+03  0.00000000000E+00 0.  1.
          3    1    1    2  501    0 -0.51189684935E+02 -0.13587930445E+02  0.11727316191E+03  0.12867793207E+03  0.00000000000E+00 0.  1.
<scales pt_clust_3="44.40540" pt_clust_4="214.61329" pt_clust_5="14000.00000" pt_clust_6="52.63949"></scales>
<clustering>
<clus scale="   44.405">  2  3  1 -1</clus>
<clus scale="   52.639">  1  6  2 -1</clus>
<clus scale="  214.613">  2  4  1 -1</clus>
<clus scale="   44.405">  2  3  1 -1</clus>
</clustering>
</event>
<event>
 6    0  0.3584505E+002  0.7832107E+02  0.7546771E-02  0.1333885E+00
         21   -1    0    0  504  502  0.00000000000E+00  0.00000000000E+00  0.56100301936E+03  0.56100301936E+03  0.00000000000E+00 0.  1.
         -4   -1    0    0    0  501 -0.00000000000E+00 -0.00000000000E+00 -0.85027914730E+03  0.85027914730E+03  0.00000000000E+00 0.  1.
         21    1    1    2  503  502 -0.33732301717E+02 -0.22132842016E+02  0.38733493062E+02  0.55928654191E+02  0.00000000000E+00 0.  1.
         21    1    1    2  504  501  0.94649940104E+02 -0.21513925666E+02  0.45446349326E+03  0.46471338142E+03  0.00000000000E+00 0.  1.
         21    1    1    2  505  503  0.17152093594E+02  0.38332876590E+02  0.43794280119E+02  0.60675717659E+02  0.00000000000E+00 0.  1.
         -4    1    1    2    0  505 -0.78069731981E+02  0.53138910922E+01 -0.82626739438E+03  0.82996441340E+03  0.00000000000E+00 0.  1.
<scales pt_clust_3="40.34515" pt_clust_4="78.32107" pt_clust_5="38.60330" pt_clust_6="14000.00000"></scales>
<clustering>
<clus scale="   40.345">  1  3  2 -1</clus>
<clus scale="   38.603">  1  5  2 -1</clus>
<clus scale="   78.321">  1  4  2 -1</clus>
<clus scale="   40.345">  1  3  2 -1</clus>
</clustering>
</event>
<event>
 6    0  0.3584505E+002  0.9998083E+02  0.7546771E-02  0.1280336E+00
          2   -1    0    0  504    0 -0.00000000000E+00  0.00000000000E+00  0.11431453221E+04  0.11431453221E+04  0.00000000000E+00 0.  1.
         21   -1    0    0  505  502  0.00000000000E+00 -0.00000000000E+00 -0.82074386594E+02  0.82074386594E+02  0.00000000000E+00 0. -1.
         21    1    1    2  503  502  0.53105892019E+02  0.15336123098E+02 -0.49135833317E+00  0.55278150040E+02  0.00000000000E+00 0.  1.
         21    1    1    2  504  503  0.53936536145E+02 -0.86433706287E+02  0.40801004023E+02  0.10974815462E+03  0.00000000000E+00 0. -1.
         21    1    1    2  505  501 -0.37456283694E+02  0.85266558290E+02  0.99822313114E+02  0.13652052353E+03  0.00000000000E+00 0. -1.
          2    1    1    2  501    0 -0.69586144470E+02 -0.14168975101E+02  0.92093897674E+03  0.92367288053E+03  0.00000000000E+00 0.  1.
<scales pt_clust_3="55.27597" pt_clust_4="14000.00000" pt_clust_5="99.98083" pt_clust_6="69.62425"></scales>
<clustering>
<clus scale="   55.276">  2  3  1 -1</clus>
<clus scale="   69.624">  1  6  2 -1</clus>
<clus scale="   99.981">  1  5  2 -1</clus>
<clus scale="   55.276">  2  3  1 -1</clus>
</clustering>
</event>
<event>
 6    0  0.3584505E+002  0.9110344E+02  0.7546771E-02  0.1300201E+00
         21   -1    0    0  501  502  0.00000000000E+00  0.00000000000E+00  0.44058018648E+03  0.44058018648E+03  0.00000000000E+00 0. -1.
          2   -1    0    0  504    0 -0.00000000000E+00 -0.00000000000E+00 -0.23248776169E+04  0.23248776169E+04  0.00000000000E+00 0. -1.
         21    1    1    2  503  505 -0.12005755398E+03 -0.58070727423E+02 -0.32996601785E+03  0.35589829810E+03  0.00000000000E+00 0.  1.
         21    1    1    2  504  503  0.65319407875E+02 -0.98469494414E+01 -0.31728391573E+03  0.32408744289E+03  0.00000000000E+00 0.  1.
         21    1    1    2  505  502  0.21906778790E+02  0.44169394428E+02  0.42253158783E+03  0.42539838396E+03  0.00000000000E+00 0. -1.
          2    1    1    2  501    0  0.32831367312E+02  0.23748282436E+02 -0.16595790846E+04  0.16600736784E+04  0.00000000000E+00 0. -1.
<scales pt_clust_3="14000.00000" pt_clust_4="91.10344" pt_clust_5="49.38089" pt_clust_6="40.52011"></scales>
<clustering>
<clus scale="   40.520">  2  6  1 -1</clus>
<clus scale="   49.381">  1  5  2 -1</clus>
<clus scale="   91.103">  2  4  1 -1</clus>
<clus scale="   49.381">  1  3  2 -1</clus>
</clustering>
</event>
<event>
 6    0  0.3584505E+002  0.7857738E+02  0.7546771E-02  0.1333138E+00
         21   -1    0    0  503  502  0.00000000000E+00  0.00000000000E+00  0.10274567063E+03  0.10274567063E+03  0.00000000000E+00 0. -1.
          2   -1    0    0  505    0 -0.00000000000E+00 -0.00000000000E+00 -0.11586682788E+04  0.11586682788E+04  0.00000000000E+00 0. -1.
         21    1    1    2  503  504 -0.38401944480E+02  0.20366686739E+02  0.56645766111E+02  0.71402059402E+02  0.00000000000E+00 0. -1.
         21    1    1    2  504  501  0.27572761165E+02 -0.51417525939E+02 -0.46847690175E+02  0.74824629680E+02  0.00000000000E+00 0. -1.
         21    1    1    2  505  502  0.45608905310E+02  0.99265768729E+02 -0.10533541700E+03  0.15175445680E+03  0.00000000000E+00 0. -1.
          2    1    1    2  501    0 -0.34779721996E+02 -0.68214929528E+02 -0.96038526707E+03  0.96343280351E+03  0.00000000000E+00 0. -1.
<scales pt_clust_3="43.46851" pt_clust_4="46.14069" pt_clust_5="78.57738" pt_clust_6="14000.00000"></scales>
<clustering>
<clus scale="   43.469">  1  3  2 -1</clus>
<clus scale="   46.141">  1  4  2 -1</clus>
<clus scale="   78.577">  1  5  2 -1</clus>
<clus scale="   43.469">  1  3  2 -1</clus>
</clustering>
</event>
<event>
 6    0  0.3584505E+002  0.1081587E+03  0.7546771E-02  0.1264018E+00
         -1   -1    0    0    0  501 -0.00000000000E+00  0.00000000000E+00  0.23212780248E+04  0.23212780248E+04  0.00000000000E+00 0.  1.
         21   -1    0    0  505  502  0.00000000000E+00 -0.00000000000E+00 -0.17462781879E+03  0.17462781879E+03  0.00000000000E+00 0.  1.
         21    1    1    2  503  504  0.44348951749E+02  0.50854962530E+02  0.10276833665E+03  0.12294058627E+03  0.00000000000E+00 0. -1.
         21    1    1    2  504  502 -0.75182695565E+02 -0.10932314291E+03 -0.68467623410E+02  0.14930439627E+03  0.00000000000E+00 0.  1.
         21    1    1    2  505  501 -0.14394887314E+02  0.28513931295E+02 -0.50704534353E+02  0.59926679056E+02  0.00000000000E+00 0.  1.
         -1    1    1    2    0  503  0.45228631129E+02  0.29954249089E+02  0.21630540272E+04  0.21637341820E+04  0.00000000000E+00 0.  1.
<scales pt_clust_3="108.15871" pt_clust_4="14000.00000" pt_clust_5="31.94146" pt_clust_6="54.25912"></scales>
<clustering>
<clus scale="   31.941">  2  5  1 -1</clus>
<clus scale="   54.259">  1  6  2 -1</clus>
<clus scale="  108.159">  1  3  2 -1</clus>
<clus scale="   31.941">  2  3  1 -1</clus>
</clustering>
</event>
<event>
 6    0  0.3584505E+002  0.8867178E+02  0.7546771E-02  0.1306100E+00
         21   -1    0    0  505  502  0.00000000000E+00  0.00000000000E+00  0.93847825125E+02  0.93847825125E+02  0.00000000000E+00 0. -1.
         -2   -1    0    0    0  501 -0.00000000000E+00 -0.00000000000E+00 -0.47796984857E+03  0.47796984857E+03  0.00000000000E+00 0. -1.
         21    1    1    2  503  502 -0.10317277351E+01 -0.35234202728E+02  0.40025764335E+02  0.53334560227E+02  0.00000000000E+00 0. -1.
         21    1    1    2  504  503  0.34553132650E+02  0.59337881777E+02 -0.23864515361E+02  0.72694004451E+02  0.00000000000E+00 0. -1.
         21    1    1    2  505  501 -0.10875485683E+03  0.64704946771E+01 -0.17313942279E+03  0.20456477192E+03  0.00000000000E+00 0. -1.
         -2    1    1    2    0  504  0.75233451914E+02 -0.30574173726E+02 -0.22714384963E+03  0.24122433710E+03  0.00000000000E+00 0. -1.
<scales pt_clust_3="35.24931" pt_clust_4="53.35275" pt_clust_5="14000.00000" pt_clust_6="88.67178"></scales>
<clustering>
<clus scale="   35.249">  1  3  2 -1</clus>
<clus scale="   53.353">  1  4  2 -1</clus>
<clus scale="   88.672">  2  6  1 -1</clus>
<clus scale="   35.249">  1  3  2 -1</clus>
</clustering>
</event>
<event>
 6    0  0.3584505E+002  0.1103441E+03  0.7546771E-02  0.1259934E+00
         21   -1    0    0  505  502  0.00000000000E+00  0.00000000000E+00  0.67228145570E+02  0.67228145570E+02  0.00000000000E+00 0.  1.
          1   -1    0    0  504    0 -0.00000000000E+00 -0.00000000000E+00 -0.12484922249E+04  0.12484922249E+04  0.00000000000E+00 0.  1.
         21    1    1    2  503  501  0.82710963745E+02  0.48706526481E+02 -0.29825502985E+03  0.31332011119E+03  0.00000000000E+00 0.  1.
         21    1    1    2  504  502 -0.10565727986E+03  0.22640719026E+02 -0.86384379428E+02  0.13834133134E+03  0.00000000000E+00 0. -1.
         21    1    1    2  505  503  0.90924772772E+02 -0.77516745079E+02 -0.79096396540E+02  0.14329131173E+03  0.00000000000E+00 0.  1.
          1    1    1    2  501    0 -0.67978456653E+02  0.61694995720E+01 -0.71752827349E+03  0.72076761619E+03  0.00000000000E+00 0.  1.
<scales pt_clust_3="67.96604" pt_clust_4="110.34412" pt_clust_5="14000.00000" pt_clust_6="68.25784"></scales>
<clustering>
<clus scale="   68.258">  2  6  1 -1</clus>
<clus scale="   67.966">  2  3  1 -1</clus>
<clus scale="  110.344">  2  4  1 -1</clus>
<clus scale="  110.344">  1  3  2 -1</clus>
</clustering>
</event>
<event>
 6    0  0.3584505E+002  0.1259805E+03  0.7546771E-02  0.1233545E+00
         21   -1    0    0  504  502  0.00000000000E+00  0.00000000000E+00  0.17767237452E+03  0.17767237452E+03  0.00000000000E+00 0. -1.
         -1   -1    0    0    0  501 -0.00000000000E+00 -0.00000000000E+00 -0.42495500967E+03  0.42495500967E+03  0.00000000000E+00 0. -1.
         21    1    1    2  503  502 -0.53150786264E+02 -0.63523189592E+02  0.34856172413E+02  0.89861863166E+02  0.00000000000E+00 0. -1.
         21    1    1    2  504  501  0.10807901142E+03  0.41721078386E+02  0.42896302015E+02  0.12353871384E+03  0.00000000000E+00 0. -1.
         21    1    1    2  505  503 -0.46476150096E+02 -0.77576421921E+01  0.13722700744E+02  0.49076736402E+02  0.00000000000E+00 0. -1.
         -1    1    1    2    0  505 -0.84520750621E+01  0.29559753398E+02 -0.33875781033E+03  0.34015007078E+03  0.00000000000E+00 0. -1.
<scales pt_clust_3="34.68492" pt_clust_4="118.04039" pt_clust_5="34.68492" pt_clust_6="30.74437"></scales>
<clustering>
<clus scale="   30.744">  2  6  1 -1</clus>
<clus scale="   34.685">  3  5 -1 -1</clus>
<clus scale="  118.040">  1  4  2 -1</clus>
<clus scale="  118.040">  1  3  2 -1</clus>
</clustering>
</event>
<event>
 6    0  0.3584505E+002  0.8589263E+02  0.7546771E-02  0.1313115E+00
         21   -1    0    0  503  502  0.00000000000E+00  0.00000000000E+00  0.82999699848E+02  0.82999699848E+02  0.00000000000E+00 0. -1.
         -1   -1    0    0    0  501 -0.00000000000E+00 -0.00000000000E+00 -0.55390589764E+03  0.55390589764E+03  0.00000000000E+00 0. -1.
         21    1    1    2  503  505  0.78830605484E+02 -0.19329613905E+02  0.29054138186E+01  0.81217853728E+02  0.00000000000E+00 0. -1.
         21    1    1    2  504  501 -0.17808347082E+02  0.24491358161E+02 -0.13493172562E+03  0.13828786797E+03  0.00000000000E+00 0.  1.
         21    1    1    2  505  504 -0.98422147542E+02 -0.28897472696E+02 -0.32163009489E+02  0.10750089411E+03  0.00000000000E+00 0. -1.
         -1    1    1    2    0  502  0.37399889140E+02  0.23735728440E+02 -0.30671687650E+03  0.30989898168E+03  0.00000000000E+00 0. -1.
<scales pt_clust_3="14000.00000" pt_clust_4="30.28141" pt_clust_5="85.89263" pt_clust_6="48.34768"></scales>
<clustering>
<clus scale="   30.281">  2  4  1 -1</clus>
<clus scale="   48.348">  2  6  1 -1</clus>
<clus scale="   85.893">  2  5  1 -1</clus>
<clus scale="   85.893">  1  3  2 -1</clus>
</clustering>
</event>
<event>
 6    0  0.3584505E+002  0.8676470E+02  0.7546771E-02  0.1310881E+00
          2   -1    0    0  505    0 -0.00000000000E+00  0.00000000000E+00  0.27061914949E+04  0.27061914949E+04  0.00000000000E+00 0. -1.
         21   -1    0    0  504  502  0.00000000000E+00 -0.00000000000E+00 -0.86816143738E+02  0.86816143738E+02  0.00000000000E+00 0.  1.
         21    1    1    2  503  502  0.22054497517E+01 -0.34868164032E+02 -0.68251592162E+02  0.76674198426E+02  0.00000000000E+00 0.  1.
         21    1    1    2  504  501 -0.42263832019E+02  0.25528493586E+01  0.28595780871E+02  0.51092731581E+02  0.00000000000E+00 0. -1.
         21    1    1    2  505  503  0.67104829461E+02 -0.57006462682E+02  0.13847841109E+04  0.13875805665E+04  0.00000000000E+00 0. -1.
          2    1    1    2  501    0 -0.27046447194E+02  0.89321777355E+02  0.12742470516E+04  0.12776601421E+04  0.00000000000E+00 0. -1.
<scales pt_clust_3="34.93784" pt_clust_4="47.50600" pt_clust_5="14000.00000" pt_clust_6="86.76470"></scales>
<clustering>
<clus scale="   34.938">  2  3  1 -1</clus>
<clus scale="   47.506">  2  4  1 -1</clus>
<clus scale="   86.765">  2  6  1 -1</clus>
<clus scale="   34.938">  2  3  1 -1</clus>
</clustering>
</event>
<event>
 6    0  0.3584505E+002  0.1043103E+03  0.7546771E-02  0.1271484E+00
          2   -1    0    0  505    0 -0.00000000000E+00  0.00000000000E+00  0.18209813231E+04  0.18209813231E+04  0.00000000000E+00 0.  1.
         21   -1    0    0  504  502  0.00000000000E+00 -0.00000000000E+00 -0.51513132292E+02  0.51513132292E+02  0.00000000000E+00 0.  1.
         21    1    1    2  503  502 -0.43305108374E+02 -0.88948383216E+01  0.48044022433E+02  0.65289192456E+02  0.00000000000E+00 0.  1.
         21    1    1    2  504  501  0.45174233340E+02 -0.94636186937E+02  0.40005767403E+02  0.11223716257E+03  0.00000000000E+00 0.  1.
         21    1    1    2  505  503 -0.78977724739E+02  0.11120421097E+03  0.10777023307E+04  0.10862993009E+04  0.00000000000E+00 0.  1.
          2    1    1    2  501    0  0.77108599773E+02 -0.76731857151E+01  0.60371607030E+03  0.60866879950E+03  0.00000000000E+00 0.  1.
<scales pt_clust_3="44.20917" pt_clust_4="104.31035" pt_clust_5="14000.00000" pt_clust_6="75.05612"></scales>
<clustering>
<clus scale="   44.209">  2  3  1 -1</clus>
<clus scale="   75.056">  1  6  2 -1</clus>
<clus scale="  104.310">  2  4  1 -1</clus>
<clus scale="   44.209">  2  3  1 -1</clus>
</clustering>
</event>
<event>
 6    0  0.3584505E+002  0.1254773E+03  0.7546771E-02  0.1234325E+00
         21   -1    0    0  505  502  0.00000000000E+00  0.00000000000E+00  0.27470128208E+03  0.27470128208E+03  0.00000000000E+00 0. -1.
          2   -1    0    0  504    0 -0.00000000000E+00 -0.00000000000E+00 -0.43555217934E+04  0.43555217934E+04  0.00000000000E+00 0.  1.
         21    1    1    2  503  501  0.32656431917E+02 -0.44848955493E+02  0.80129866690E+01  0.56054253270E+02  0.00000000000E+00 0. -1.
         21    1    1    2  504  502 -0.17638196028E+03  0.85354898510E+02  0.18749020958E+03  0.27119851272E+03  0.00000000000E+00 0. -1.
         21    1    1    2  505  503  0.33055700881E+02  0.18026410369E+02 -0.16169020674E+02  0.40976432996E+02  0.00000000000E+00 0.  1.
          2    1    1    2  501    0  0.11066982748E+03 -0.58532353387E+02 -0.42601546869E+04  0.42619938765E+04  0.00000000000E+00 0.  1.
<scales pt_clust_3="56.26022" pt_clust_4="14000.00000" pt_clust_5="37.65144" pt_clust_6="125.47730"></scales>
<clustering>
<clus scale="   37.651">  1  5  2 -1</clus>
<clus scale="   56.260">  1  3  2 -1</clus>
<clus scale="  125.477">  2  6  1 -1</clus>
<clus scale="   37.651">  1  3  2 -1</clus>
</clustering>
</event>
<event>
 6    0  0.3584505E+002  0.1171571E+03  0.7546771E-02  0.1247862E+00
          1   -1    0    0  503    0 -0.00000000000E+00  0.00000000000E+00  0.73489611059E+03  0.73489611059E+03  0.00000000000E+00 0. -1.
         21   -1    0    0  504  502  0.00000000000E+00 -0.00000000000E+00 -0.19135546616E+03  0.19135546616E+03  0.00000000000E+00 0. -1.
         21    1    1    2  503  505  0.87844038672E+01 -0.50211398568E+02  0.33948014825E+02  0.61243922213E+02  0.00000000000E+00 0. -1.
         21    1    1    2  504  501  0.53179606890E+02 -0.94814296948E+01  0.23909888242E+03  0.24512495522E+03  0.00000000000E+00 0. -1.
         21    1    1    2  505  502 -0.81907957955E+02  0.93041012060E+02 -0.15170026190E+03  0.19590434646E+03  0.00000000000E+00 0. -1.
          1    1    1    2  501    0  0.19943947198E+02 -0.33348183798E+02  0.42219400908E+03  0.42397835286E+03  0.00000000000E+00 0. -1.
<scales pt_clust_3="56.55271" pt_clust_4="117.15715" pt_clust_5="14000.00000" pt_clust_6="38.85695"></scales>
<clustering>
<clus scale="   38.857">  1  6  2 -1</clus>
<clus scale="   56.553">  1  3  2 -1</clus>
<clus scale="  117.157">  1  4  2 -1</clus>
<clus scale="  117.157">  2  3  1 -1</clus>
</clustering>
</event>
<event>
 6    0  0.3584505E+002  0.1019089E+03  0.7546771E-02  0.1276332E+00
          3   -1    0    0  505    0 -0.00000000000E+00  0.00000000000E+00  0.50910751624E+03  0.50910751624E+03  0.00000000000E+00 0.  1.
         21   -1    0    0  503  502  0.00000000000E+00 -0.00000000000E+00 -0.70879847091E+03  0.70879847091E+03  0.00000000000E+00 0.  1.
         21    1    1    2  503  504 -0.26541266238E+02  0.22737752131E+02 -0.34426439652E+03  0.34603384068E+03  0.00000000000E+00 0.  1.
         21    1    1    2  504  501 -0.25503242126E+02  0.58810390437E+02 -0.30452583076E+03  0.31119938782E+03  0.00000000000E+00 0.  1.
         21    1    1    2  505  502  0.84949836902E+02 -0.20114781976E+02 -0.17383671144E+02  0.89012759008E+02  0.00000000000E+00 0.  1.
          3    1    1    2  501    0 -0.32905328539E+02 -0.61433360592E+02  0.46648294375E+03  0.47165999963E+03  0.00000000000E+00 0.  1.
<scales pt_clust_3="30.15671" pt_clust_4="30.15671" pt_clust_5="93.36697" pt_clust_6="69.69088"></scales>
<clustering>
<clus scale="   30.157">  3  4 -1 -1</clus>
<clus scale="   69.691">  1  6  2 -1</clus>
<clus scale="   93.367">  1  5  2 -1</clus>
<clus scale="  101.909">  2  3  1 -1</clus>
</clustering>
</event>
<event>
 6    0  0.3584505E+002  0.1092466E+03  0.7546771E-02  0.1261971E+00
          1   -1    0    0  503    0 -0.00000000000E+00  0.00000000000E+00  0.58782266959E+03  0.58782266959E+03  0.00000000000E+00 0.  1.
         21   -1    0    0  504  502  0.00000000000E+00 -0.00000000000E+00 -0.95316872987E+03  0.95316872987E+03  0.00000000000E+00 0.  1.
         21    1    1    2  503  505  0.34097183719E+02  0.45393242793E+02 -0.69761308451E+02  0.89943340975E+02  0.00000000000E+00 0.  1.
         21    1    1    2  504  501 -0.13530744966E+03 -0.13133349503E+03 -0.11749637207E+03  0.22217558439E+03  0.00000000000E+00 0.  1.
         21    1    1    2  505  502  0.23345663711E+00  0.49922550671E+02 -0.69710940401E+03  0.69889472506E+03  0.00000000000E+00 0.  1.
          1    1    1    2  501    0  0.10097680930E+03  0.36017701570E+02  0.51902102426E+03  0.52997774903E+03  0.00000000000E+00 0.  1.
<scales pt_clust_3="69.93261" pt_clust_4="14000.00000" pt_clust_5="49.92310" pt_clust_6="109.24662"></scales>
<clustering>
<clus scale="   49.923">  2  5  1 -1</clus>
<clus scale="   69.933">  2  3  1 -1</clus>
<clus scale="  109.247">  1  6  2 -1</clus>
<clus scale="   49.923">  2  3  1 -1</clus>
</clustering>
</event>
<event>
 6    0  0.3584505E+002  0.3148439E+03  0.7546771E-02  0.1078047E+00
          2   -1    0    0  503    0 -0.00000000000E+00  0.00000000000E+00  0.59409857344E+03  0.59409857344E+03  0.00000000000E+00 0. -1.
         21   -1    0    0  501  502  0.00000000000E+00 -0.00000000000E+00 -0.17738821978E+04  0.17738821978E+04  0.00000000000E+00 0.  1.
         21    1    1    2  503  505 -0.87551953208E+02  0.25530886256E+03 -0.10027805843E+03  0.28792993733E+03  0.00000000000E+00 0.  1.
         21    1    1    2  504  502 -0.47847245344E+02 -0.71289019307E+02 -0.98654075454E+03  0.99026973271E+03  0.00000000000E+00 0.  1.
         21    1    1    2  505  504  0.27172493183E+03 -0.21747117378E+03 -0.52815355293E+03  0.63251428876E+03  0.00000000000E+00 0.  1.
          2    1    1    2  501    0 -0.13632573328E+03  0.33451330535E+02  0.43518874150E+03  0.45726681248E+03  0.00000000000E+00 0. -1.
<scales pt_clust_3="14000.00000" pt_clust_4="85.85734" pt_clust_5="314.84385" pt_clust_6="140.78873"></scales>
<clustering>
<clus scale="   85.857">  2  4  1 -1</clus>
<clus scale="  140.789">  1  6  2 -1</clus>
<clus scale="  314.844">  2  5  1 -1</clus>
<clus scale="   85.857">  2  3  1 -1</clus>
</clustering>
</event>
<event>
 6    0  0.3584505E+002  0.1848041E+03  0.7546771E-02  0.1163233E+00
          2   -1    0    0  503    0 -0.00000000000E+00  0.00000000000E+00  0.50842688092E+03  0.50842688092E+03  0.00000000000E+00 0. -1.
         21   -1    0    0  505  502  0.00000000000E+00 -0.00000000000E+00 -0.28286382904E+03  0.28286382904E+03  0.00000000000E+00 0.  1.
         21    1    1    2  503  502 -0.22621031094E+03  0.25849442623E+02 -0.14261288081E+03  0.26865913763E+03  0.00000000000E+00 0.  1.
         21    1    1    2  504  501  0.46116686077E+02 -0.31839990656E+02  0.18638413534E+00  0.56040775144E+02  0.00000000000E+00 0.  1.
         21    1    1    2  505  504  0.57091443350E+01 -0.46574810007E+02 -0.91197978273E+01  0.47801443165E+02  0.00000000000E+00 0. -1.
          2    1    1    2  501    0  0.17438448053E+03  0.52565358040E+02  0.37710934638E+03  0.41878935402E+03  0.00000000000E+00 0. -1.
<scales pt_clust_3="14000.00000" pt_clust_4="103.45724" pt_clust_5="39.55510" pt_clust_6="184.80408"></scales>
<clustering>
<clus scale="   39.555">  4  5 -1 -1</clus>
<clus scale="  103.457">  2  4  1 -1</clus>
<clus scale="  184.804">  1  6  2 -1</clus>
<clus scale="  103.457">  2  3  1 -1</clus>
</clustering>
</event>
<event>
 6    0  0.3584505E+002  0.7235729E+03  0.7546771E-02  0.9677748E-01
         21   -1    0    0  503  502  0.00000000000E+00  0.00000000000E+00  0.76489903335E+03  0.76489903335E+03  0.00000000000E+00 0. -1.
          2   -1    0    0  502    0 -0.00000000000E+00 -0.00000000000E+00 -0.36212241467E+04  0.36212241467E+04  0.00000000000E+00 0. -1.
         21    1    1    2  503  504 -0.16777467695E+03 -0.52661873392E+02  0.48496935086E+03  0.51586518240E+03  0.00000000000E+00 0. -1.
         21    1    1    2  504  505  0.74329961512E+03  0.45424884843E+03 -0.65895782394E+03  0.10922736598E+04  0.00000000000E+00 0. -1.
         21    1    1    2  505  501 -0.53421955814E+03 -0.38849312603E+03 -0.22930425610E+04  0.23862861588E+04  0.00000000000E+00 0. -1.
          2    1    1    2  501    0 -0.41305380034E+02 -0.13093849002E+02 -0.38929407926E+03  0.39169817902E+03  0.00000000000E+00 0. -1.
<scales pt_clust_3="176.05262" pt_clust_4="14000.00000" pt_clust_5="723.57286" pt_clust_6="43.33109"></scales>
<clustering>
<clus scale="   43.331">  2  6  1 -1</clus>
<clus scale="  176.053">  1  3  2 -1</clus>
<clus scale="  723.573">  2  5  1 -1</clus>
<clus scale="  176.053">  1  3  2 -1</clus>
</clustering>
</event>
<event>
 6    0  0.3584505E+002  0.1229388E+03  0.7546771E-02  0.1238326E+00
         21   -1    0    0  503  502  0.00000000000E+00  0.00000000000E+00  0.62193364182E+03  0.62193364182E+03  0.00000000000E+00 0.  1.
          4   -1    0    0  504    0 -0.00000000000E+00 -0.00000000000E+00 -0.12904818969E+04  0.12904818969E+04  0.00000000000E+00 0. -1.
         21    1    1    2  503  505  0.96863071722E+02 -0.13062340753E+03  0.48954095496E+03  0.51584423603E+03  0.00000000000E+00 0.  1.
         21    1    1    2  504  502 -0.73589920860E+02  0.52637439225E+01  0.71963834831E+02  0.10306297578E+03  0.00000000000E+00 0.  1.
         21    1    1    2  505  501  0.38474686610E+01  0.10412053802E+03 -0.54750216405E+02  0.11770078865E+03  0.00000000000E+00 0. -1.
          4    1    1    2  501    0 -0.27120619523E+02  0.21239125588E+02 -0.11753028285E+04  0.11758075383E+04  0.00000000000E+00 0. -1.
<scales pt_clust_3="14000.00000" pt_clust_4="77.68669" pt_clust_5="122.93877" pt_clust_6="34.44747"></scales>
<clustering>
<clus scale="   34.447">  2  6  1 -1</clus>
<clus scale="   77.687">  1  4  2 -1</clus>
<clus scale="  122.939">  2  5  1 -1</clus>
<clus scale="   77.687">  1  3  2 -1</clus>
</clustering>
</event>
<event>
 6    0  0.3584505E+002  0.9141219E+02  0.7546771E-02  0.1299467E+00
         21   -1    0    0  505  502  0.00000000000E+00  0.00000000000E+00  0.46839981952E+03  0.46839981952E+03  0.00000000000E+00 0.  1.
          2   -1    0    0  503    0 -0.00000000000E+00 -0.00000000000E+00 -0.53085329826E+03  0.53085329826E+03  0.00000000000E+00 0.  1.
         21    1    1    2  503  504 -0.17032592067E+03  0.34368783811E+02 -0.46223868399E+01  0.17382030667E+03  0.00000000000E+00 0.  1.
         21    1    1    2  504  502  0.86129909820E+02  0.12899853527E+02  0.35379591098E+03  0.36435739901E+03  0.00000000000E+00 0.  1.
         21    1    1    2  505  501  0.55645034567E+02 -0.43204327675E+01 -0.10679902261E+02  0.56825138130E+02  0.00000000000E+00 0.  1.
          2    1    1    2  501    0  0.28550976279E+02 -0.42948204570E+02 -0.40094710061E+03  0.40425027398E+03  0.00000000000E+00 0.  1.
<scales pt_clust_3="14000.00000" pt_clust_4="91.41219" pt_clust_5="65.06232" pt_clust_6="51.57234"></scales>
<clustering>
<clus scale="   51.572">  2  6  1 -1</clus>
<clus scale="   65.062">  2  5  1 -1</clus>
<clus scale="   91.412">  1  4  2 -1</clus>
<clus scale="   91.412">  1  3  2 -1</clus>
</clustering>
</event>
<event>
 6    0  0.3584505E+002  0.1445794E+03  0.7546771E-02  0.1207297E+00
          2   -1    0    0  504    0 -0.00000000000E+00  0.00000000000E+00  0.27923853779E+04  0.27923853779E+04  0.00000000000E+00 0. -1.
         21   -1    0    0  501  502  0.00000000000E+00 -0.00000000000E+00 -0.31246032433E+02  0.31246032433E+02  0.00000000000E+00 0. -1.
         21    1    1    2  503  502 -0.62789140844E+02 -0.54910278653E+02  0.10351127628E+03  0.13293682420E+03  0.00000000000E+00 0. -1.
         21    1    1    2  504  505  0.77364878989E+02  0.15473342685E+02  0.73311741970E+03  0.73735059497E+03  0.00000000000E+00 0. -1.
         21    1    1    2  505  503  0.93440460739E+02 -0.92945180081E+02  0.44809676631E+03  0.46707669411E+03  0.00000000000E+00 0. -1.
          2    1    1    2  501    0 -0.10801619888E+03  0.13238211605E+03  0.14764138831E+04  0.14862672970E+04  0.00000000000E+00 0. -1.
<scales pt_clust_3="79.51212" pt_clust_4="78.89708" pt_clust_5="144.57941" pt_clust_6="14000.00000"></scales>
<clustering>
<clus scale="   78.897">  1  4  2 -1</clus>
<clus scale="   79.512">  2  3  1 -1</clus>
<clus scale="  144.579">  2  5  1 -1</clus>
<clus scale="   79.512">  2  3  1 -1</clus>
</clustering>
</event>
<event>
 6    0  0.3584505E+002  0.7383782E+02  0.7546771E-02  0.1347508E+00
          2   -1    0    0  505    0 -0.00000000000E+00  0.00000000000E+00  0.88785620113E+03  0.88785620113E+03  0.00000000000E+00 0.  1.
         21   -1    0    0  503  502  0.00000000000E+00 -0.00000000000E+00 -0.27213741841E+03  0.27213741841E+03  0.00000000000E+00 0. -1.
         21    1    1    2  503  501  0.13082894247E+03  0.38384450432E+02 -0.18145774101E+03  0.22697244325E+03  0.00000000000E+00 0. -1.
         21    1    1    2  504  502 -0.66280960881E+01 -0.33189118911E+02 -0.35031839835E+02  0.48710153706E+02  0.00000000000E+00 0. -1.
         21    1    1    2  505  504 -0.54107950046E+02  0.16383563025E+02  0.82941600799E+01  0.57139167713E+02  0.00000000000E+00 0. -1.
          2    1    1    2  501    0 -0.70092896337E+02 -0.21578894546E+02  0.82391420348E+03  0.82717185487E+03  0.00000000000E+00 0.  1.
<scales pt_clust_3="73.83782" pt_clust_4="33.84449" pt_clust_5="56.30016" pt_clust_6="14000.00000"></scales>
<clustering>
<clus scale="   33.844">  2  4  1 -1</clus>
<clus scale="   56.300">  2  5  1 -1</clus>
<clus scale="   73.838">  2  3  1 -1</clus>
<clus scale="   33.844">  2  3  1 -1</clus>
</clustering>
</event>
<event>
 6    0  0.3584505E+002  0.7134521E+02  0.7546771E-02  0.1355577E+00
         21   -1    0    0  503  502  0.00000000000E+00  0.00000000000E+00  0.11601868065E+04  0.11601868065E+04  0.00000000000E+00 0.  1.
          4   -1    0    0  505    0 -0.00000000000E+00 -0.00000000000E+00 -0.23758425796E+03  0.23758425796E+03  0.00000000000E+00 0. -1.
         21    1    1    2  503  501 -0.48288371563E+02 -0.27736100702E+02  0.10736194531E+04  0.10750626904E+04  0.00000000000E+00 0.  1.
         21    1    1    2  504  502  0.91194801690E+02  0.17125923747E+01  0.20947980990E+02  0.93585483572E+02  0.00000000000E+00 0. -1.
         21    1    1    2  505  504 -0.34287615171E+02 -0.56727348470E+02 -0.58388465469E+02  0.88333716770E+02  0.00000000000E+00 0. -1.
          4    1    1    2  501    0 -0.86188149554E+01  0.82750856797E+02 -0.11357642005E+03  0.14078917381E+03  0.00000000000E+00 0. -1.
<scales pt_clust_3="55.68714" pt_clust_4="61.32532" pt_clust_5="71.34521" pt_clust_6="14000.00000"></scales>
<clustering>
<clus scale="   55.687">  1  3  2 -1</clus>
<clus scale="   61.325">  1  4  2 -1</clus>
<clus scale="   71.345">  1  5  2 -1</clus>
<clus scale="   55.687">  1  3  2 -1</clus>
</clustering>
</event>
<event>
 6    0  0.3584505E+002  0.1139775E+03  0.7546771E-02  0.1253377E+00
         -1   -1    0    0    0  501 -0.00000000000E+00  0.00000000000E+00  0.43583277543E+03  0.43583277543E+03  0.00000000000E+00 0.  1.
         21   -1    0    0  505  502  0.00000000000E+00 -0.00000000000E+00 -0.29974295808E+03  0.29974295808E+03  0.00000000000E+00 0.  1.
         21    1    1    2  503  502  0.46900928738E+02 -0.41147988002E+02 -0.11793806418E+03  0.13342503894E+03  0.00000000000E+00 0.  1.
         21    1    1    2  504  501 -0.78487517465E+00 -0.11189392277E+03  0.15413333323E+03  0.19046771483E+03  0.00000000000E+00 0.  1.
         21    1    1    2  505  504 -0.10485159238E+02  0.40572032203E+02 -0.13903498907E+03  0.14521279746E+03  0.00000000000E+00 0.  1.
         -1    1    1    2    0  503 -0.35630894326E+02  0.11246987857E+03  0.23892953736E+03  0.26647018227E+03  0.00000000000E+00 0.  1.
<scales pt_clust_3="39.53152" pt_clust_4="113.97749" pt_clust_5="41.90499" pt_clust_6="14000.00000"></scales>
<clustering>
<clus scale="   41.905">  2  5  1 -1</clus>
<clus scale="   39.532">  2  3  1 -1</clus>
<clus scale="  113.977">  2  4  1 -1</clus>
<clus scale="   41.905">  2  3  1 -1</clus>
</clustering>
</event>
<event>
 6    0  0.3584505E+002  0.1258101E+03  0.7546771E-02  0.1233809E+00
         21   -1    0    0  503  502  0.00000000000E+00  0.00000000000E+00  0.14039618366E+03  0.14039618366E+03  0.00000000000E+00 0. -1.
          2   -1    0    0  505    0 -0.00000000000E+00 -0.00000000000E+00 -0.15198411079E+04  0.15198411079E+04  0.00000000000E+00 0.  1.
         21    1    1    2  503  501  0.97188025889E+02 -0.88086194801E+02 -0.11924423819E+02  0.13170756233E+03  0.00000000000E+00 0. -1.
         21    1    1    2  504  502 -0.25185222165E+02 -0.19032521897E+02  0.66378412099E+02  0.73502557085E+02  0.00000000000E+00 0. -1.
         21    1    1    2  505  504 -0.88923078724E+02  0.10767689539E+01 -0.23393398621E+03  0.25026702393E+03  0.00000000000E+00 0.  1.
          2    1    1    2  501    0  0.16920274999E+02  0.10604194774E+03 -0.11999649263E+04  0.12047601483E+04  0.00000000000E+00 0.  1.
<scales pt_clust_3="14000.00000" pt_clust_4="31.56790" pt_clust_5="91.84924" pt_clust_6="125.81009"></scales>
<clustering>
<clus scale="   31.568">  1  4  2 -1</clus>
<clus scale="   91.849">  2  5  1 -1</clus>
<clus scale="  125.810">  2  6  1 -1</clus>
<clus scale="   31.568">  1  3  2 -1</clus>
</clustering>
</event>
<event>
 6    0  0.3584505E+002  0.1513949E+03  0.7546771E-02  0.1198769E+00
          2   -1    0    0  503    0 -0.00000000000E+00  0.00000000000E+00  0.15002130385E+04  0.15002130385E+04  0.00000000000E+00 0.  1.
         21   -1    0    0  505  502  0.00000000000E+00 -0.00000000000E+00 -0.30854940473E+03  0.30854940473E+03  0.00000000000E+00 0.  1.
         21    1    1    2  503  502  0.44340291261E+02  0.35430321811E+01  0.27498886939E+02  0.52295346724E+02  0.00000000000E+00 0.  1.
         21    1    1    2  504  501  0.34433415379E+02  0.12822222366E+03  0.28749396613E+03  0.31666919537E+03  0.00000000000E+00 0.  1.
         21    1    1    2  505  504 -0.17581347731E+02 -0.15843070398E+03 -0.25794283131E+03  0.30322251891E+03  0.00000000000E+00 0.  1.
          2    1    1    2  501    0 -0.61192358909E+02  0.26665448142E+02  0.11346136120E+04  0.11365753822E+04  0.00000000000E+00 0.  1.
<scales pt_clust_3="44.48162" pt_clust_4="151.39494" pt_clust_5="14000.00000" pt_clust_6="66.62000"></scales>
<clustering>
<clus scale="   44.482">  2  3  1 -1</clus>
<clus scale="   66.620">  1  6  2 -1</clus>
<clus scale="  151.395">  1  4  2 -1</clus>
<clus scale="   44.482">  2  3  1 -1</clus>
</clustering>
</event>
<event>
 6    0  0.3584505E+002  0.9058221E+02  0.7546771E-02  0.1301448E+00
          2   -1    0    0  504    0 -0.00000000000E+00  0.00000000000E+00  0.16481601612E+04  0.16481601612E+04  0.00000000000E+00 0. -1.
         21   -1    0    0  505  502  0.00000000000E+00 -0.00000000000E+00 -0.21287372880E+03  0.21287372880E+03  0.00000000000E+00 0.  1.
         21    1    1    2  503  501 -0.13494026577E+03  0.23927201386E+02  0.43610741805E+03  0.45713353232E+03  0.00000000000E+00 0.  1.
         21    1    1    2  504  502  0.28358664420E+02 -0.32527991914E+02 -0.81038561350E+02  0.91812485705E+02  0.00000000000E+00 0.  1.
         21    1    1    2  505  503  0.62128382610E+02  0.27107311379E+02 -0.10549655316E+03  0.12539643131E+03  0.00000000000E+00 0.  1.
          2    1    1    2  501    0  0.44453218740E+02 -0.18506520850E+02  0.11857141289E+04  0.11866914407E+04  0.00000000000E+00 0. -1.
<scales pt_clust_3="14000.00000" pt_clust_4="43.15419" pt_clust_5="90.58221" pt_clust_6="48.30118"></scales>
<clustering>
<clus scale="   43.154">  2  4  1 -1</clus>
<clus scale="   48.301">  1  6  2 -1</clus>
<clus scale="   90.582">  2  5  1 -1</clus>
<clus scale="   43.154">  2  3  1 -1</clus>
</clustering>
</event>
<event>
 6    0  0.3584505E+002  0.1001791E+03  0.7546771E-02  0.1279920E+00
          2   -1    0    0  503    0 -0.00000000000E+00  0.00000000000E+00  0.88332825629E+03  0.88332825629E+03  0.00000000000E+00 0. -1.
         21   -1    0    0  501  502  0.00000000000E+00 -0.00000000000E+00 -0.98407840323E+02  0.98407840323E+02  0.00000000000E+00 0. -1.
         21    1    1    2  503  504  0.58110309551E+02  0.13071019665E+02  0.13861606292E+03  0.15087104603E+03  0.00000000000E+00 0. -1.
         21    1    1    2  504  505 -0.98165733706E+02  0.39410670216E+02  0.11045311275E+03  0.15293659574E+03  0.00000000000E+00 0. -1.
         21    1    1    2  505  502 -0.20311577367E+02 -0.63266575982E+02 -0.53553856352E+02  0.85341873320E+02  0.00000000000E+00 0. -1.
          2    1    1    2  501    0  0.60367001523E+02  0.10784886101E+02  0.58940509665E+03  0.59258658152E+03  0.00000000000E+00 0. -1.
<scales pt_clust_3="59.56223" pt_clust_4="14000.00000" pt_clust_5="65.80632" pt_clust_6="100.17913"></scales>
<clustering>
<clus scale="   59.562">  1  3  2 -1</clus>
<clus scale="   65.806">  2  5  1 -1</clus>
<clus scale="  100.179">  1  6  2 -1</clus>
<clus scale="   65.806">  2  3  1 -1</clus>
</clustering>
</event>
<event>
 6    0  0.3584505E+002  0.8670013E+02  0.7546771E-02  0.1311045E+00
         21   -1    0    0  504  502  0.00000000000E+00  0.00000000000E+00  0.32069817896E+03  0.32069817896E+03  0.00000000000E+00 0.  1.
          1   -1    0    0  505    0 -0.00000000000E+00 -0.00000000000E+00 -0.73032699893E+03  0.73032699893E+03  0.00000000000E+00 0.  1.
         21    1    1    2  503  502 -0.43898710555E+01  0.76952411501E+02 -0.24633322938E+01  0.77116876296E+02  0.00000000000E+00 0.  1.
         21    1    1    2  504  501 -0.49102458512E+02 -0.76617444150E+02  0.26300560135E+03  0.27830420500E+03  0.00000000000E+00 0.  1.
         21    1    1    2  505  503  0.25609282445E+02  0.61821013521E+02 -0.93805311030E+02  0.11522634003E+03  0.00000000000E+00 0.  1.
          1    1    1    2  501    0  0.27883047122E+02 -0.62155980872E+02 -0.57636577799E+03  0.58037775656E+03  0.00000000000E+00 0.  1.
<scales pt_clust_3="86.70013" pt_clust_4="14000.00000" pt_clust_5="66.91542" pt_clust_6="51.79500"></scales>
<clustering>
<clus scale="   66.915">  2  5  1 -1</clus>
<clus scale="   51.795">  2  6  1 -1</clus>
<clus scale="   86.700">  2  3  1 -1</clus>
<clus scale="   86.700">  1  3  2 -1</clus>
</clustering>
</event>
<event>
 6    0  0.3584505E+002  0.7345051E+02  0.7546771E-02  0.1348738E+00
         -3   -1    0    0    0  501 -0.00000000000E+00  0.00000000000E+00  0.51764782549E+03  0.51764782549E+03  0.00000000000E+00 0.  1.
         21   -1    0    0  505  502  0.00000000000E+00 -0.00000000000E+00 -0.11434456348E+03  0.11434456348E+03  0.00000000000E+00 0.  1.
         21    1    1    2  503  501  0.25959414601E+02 -0.94057913827E+02  0.11847894329E+03  0.15348629373E+03  0.00000000000E+00 0.  1.
         21    1    1    2  504  502  0.21440414680E+02  0.91683879604E+02  0.26784911811E+01  0.94195538514E+02  0.00000000000E+00 0.  1.
         21    1    1    2  505  503 -0.13488170069E+02 -0.35785720137E+02 -0.41632959514E+02  0.56531865487E+02  0.00000000000E+00 0.  1.
         -3    1    1    2    0  504 -0.33911659212E+02  0.38159754360E+02  0.32377878706E+03  0.32777869124E+03  0.00000000000E+00 0.  1.
<scales pt_clust_3="14000.00000" pt_clust_4="73.45051" pt_clust_5="38.24328" pt_clust_6="50.51613"></scales>
<clustering>
<clus scale="   38.243">  2  5  1 -1</clus>
<clus scale="   50.516">  1  6  2 -1</clus>
<clus scale="   73.451">  2  4  1 -1</clus>
<clus scale="   38.243">  2  3  1 -1</clus>
</clustering>
</event>
<event>
 6    0  0.3584505E+002  0.1219086E+03  0.7546771E-02  0.1239981E+00
          2   -1    0    0  504    0 -0.00000000000E+00  0.00000000000E+00  0.44162059105E+03  0.44162059105E+03  0.00000000000E+00 0. -1.
         21   -1    0    0  503  502  0.00000000000E+00 -0.00000000000E+00 -0.11252722540E+04  0.11252722540E+04  0.00000000000E+00 0. -1.
         21    1    1    2  503  501 -0.84507549390E+02 -0.15825420541E+02 -0.36621389829E+03  0.37617095733E+03  0.00000000000E+00 0. -1.
         21    1    1    2  504  505  0.57279201723E+02  0.72254435220E+02  0.11896399488E+03  0.15051259893E+03  0.00000000000E+00 0. -1.
         21    1    1    2  505  502  0.15205504424E+02 -0.89643359825E+02 -0.73445928990E+03  0.74006593480E+03  0.00000000000E+00 0. -1.
          2    1    1    2  501    0  0.12022843243E+02  0.33214345146E+02  0.29805753041E+03  0.30014335394E+03  0.00000000000E+00 0. -1.
<scales pt_clust_3="85.35682" pt_clust_4="121.90863" pt_clust_5="14000.00000" pt_clust_6="35.32338"></scales>
<clustering>
<clus scale="   35.323">  1  6  2 -1</clus>
<clus scale="   85.357">  2  3  1 -1</clus>
<clus scale="  121.909">  1  4  2 -1</clus>
<clus scale="   85.357">  2  3  1 -1</clus>
</clustering>
</event>
<event>
 6    0  0.3584505E+002  0.1197590E+03  0.7546771E-02  0.1243495E+00
          4   -1    0    0  504    0 -0.00000000000E+00  0.00000000000E+00  0.19367177568E+03  0.19367177568E+03  0.00000000000E+00 0.  1.
         21   -1    0    0  503  502  0.00000000000E+00 -0.00000000000E+00 -0.14015652013E+04  0.14015652013E+04  0.00000000000E+00 0. -1.
         21    1    1    2  503  501  0.55234833993E+01  0.40984812663E+02 -0.10088661818E+04  0.10097134428E+04  0.00000000000E+00 0. -1.
         21    1    1    2  504  505 -0.18017776341E+02  0.68546508435E+02 -0.23665194923E+03  0.24703726269E+03  0.00000000000E+00 0. -1.
         21    1    1    2  505  502 -0.48304603118E+02 -0.12363688780E+01 -0.12491175784E+03  0.13393211167E+03  0.00000000000E+00 0. -1.
          4    1    1    2  501    0  0.60798896060E+02 -0.10829495222E+03  0.16253646323E+03  0.20455415987E+03  0.00000000000E+00 0.  1.
<scales pt_clust_3="41.35534" pt_clust_4="14000.00000" pt_clust_5="48.07844" pt_clust_6="119.75897"></scales>
<clustering>
<clus scale="   41.355">  2  3  1 -1</clus>
<clus scale="   48.078">  2  5  1 -1</clus>
<clus scale="  119.759">  1  6  2 -1</clus>
<clus scale="   41.355">  2  3  1 -1</clus>
</clustering>
</event>
<event>
 6    0  0.3584505E+002  0.9055484E+02  0.7546771E-02  0.1301514E+00
          2   -1    0    0  505    0 -0.00000000000E+00  0.00000000000E+00  0.13297721342E+04  0.13297721342E+04  0.00000000000E+00 0. -1.
         21   -1    0    0  504  502  0.00000000000E+00 -0.00000000000E+00 -0.14358727757E+03  0.14358727757E+03  0.00000000000E+00 0. -1.
         21    1    1    2  503  501  0.67858970802E+02  0.35727052723E+02 -0.68462157762E+02  0.10280237964E+03  0.00000000000E+00 0. -1.
         21    1    1    2  504  503 -0.12811294978E+01  0.33289721847E+02 -0.13345800856E+02  0.35888121627E+02  0.00000000000E+00 0. -1.
         21    1    1    2  505  502  0.23782673485E+02 -0.80526516285E+02  0.23975394421E+02  0.87320987860E+02  0.00000000000E+00 0. -1.
          2    1    1    2  501    0 -0.90360514789E+02  0.11509741716E+02  0.12440174208E+04  0.12473479226E+04  0.00000000000E+00 0. -1.
<scales pt_clust_3="90.55484" pt_clust_4="33.31436" pt_clust_5="75.40050" pt_clust_6="14000.00000"></scales>
<clustering>
<clus scale="   33.314">  2  4  1 -1</clus>
<clus scale="   75.400">  2  5  1 -1</clus>
<clus scale="   90.555">  2  3  1 -1</clus>
<clus scale="   33.314">  2  3  1 -1</clus>
</clustering>
</event>
<event>
 6    0  0.3584505E+002  0.1668109E+03  0.7546771E-02  0.1181215E+00
         21   -1    0    0  503  502  0.00000000000E+00  0.00000000000E+00  0.28688917362E+03  0.28688917362E+03  0.00000000000E+00 0.  1.
          1   -1    0    0  504    0 -0.00000000000E+00 -0.00000000000E+00 -0.32644968023E+04  0.32644968023E+04  0.00000000000E+00 0.  1.
         21    1    1    2  503  501  0.10675553495E+03 -0.12865418256E+03  0.25128284859E+03  0.30181403700E+03  0.00000000000E+00 0.  1.
         21    1    1    2  504  505 -0.12055191140E+02  0.44024239912E+02 -0.91606671430E+02  0.10234863743E+03  0.00000000000E+00 0. -1.
         21    1    1    2  505  502  0.50269667402E+02  0.15187701208E+02 -0.17286853080E+04  0.17294827550E+04  0.00000000000E+00 0.  1.
          1    1    1    2  501    0 -0.14497001122E+03  0.69442241443E+02 -0.14085984979E+04  0.14177405465E+04  0.00000000000E+00 0.  1.
<scales pt_clust_3="14000.00000" pt_clust_4="45.64495" pt_clust_5="58.71037" pt_clust_6="166.81091"></scales>
<clustering>
<clus scale="   45.645">  2  4  1 -1</clus>
<clus scale="   58.710">  2  5  1 -1</clus>
<clus scale="  166.811">  2  6  1 -1</clus>
<clus scale="  166.811">  1  3  2 -1</clus>
</clustering>
</event>
<event>
 6    0  0.3584505E+002  0.7614662E+02  0.7546771E-02  0.1340357E+00
          2   -1    0    0  505    0 -0.00000000000E+00  0.00000000000E+00  0.12706262842E+04  0.12706262842E+04  0.00000000000E+00 0. -1.
         21   -1    0    0  501  502  0.00000000000E+00 -0.00000000000E+00 -0.14708275426E+03  0.14708275426E+03  0.00000000000E+00 0.  1.
         21    1    1    2  503  502  0.67809533456E+00  0.64714383480E+02 -0.82156282207E+02  0.10458520903E+03  0.00000000000E+00 0.  1.
         21    1    1    2  504  503  0.45306038811E+02 -0.11753601093E+03  0.36172030644E+02  0.13105634978E+03  0.00000000000E+00 0.  1.
         21    1    1    2  505  504 -0.21484505716E+02 -0.29419049794E+02  0.67491663439E+02  0.76695430831E+02  0.00000000000E+00 0.  1.
          2    1    1    2  501    0 -0.24499628430E+02  0.82240677240E+02  0.11020361181E+04  0.11053720488E+04  0.00000000000E+00 0. -1.
<scales pt_clust_3="64.44088" pt_clust_4="14000.00000" pt_clust_5="36.42890" pt_clust_6="76.14662"></scales>
<clustering>
<clus scale="   36.429">  1  5  2 -1</clus>
<clus scale="   64.441">  2  3  1 -1</clus>
<clus scale="   76.147">  1  6  2 -1</clus>
<clus scale="   64.441">  2  3  1 -1</clus>
</clustering>
</event>
<event>
 6    0  0.3584505E+002  0.1495109E+03  0.7546771E-02  0.1201075E+00
         21   -1    0    0  503  502  0.00000000000E+00  0.00000000000E+00  0.17001533845E+03  0.17001533845E+03  0.00000000000E+00 0. -1.
          2   -1    0    0  505    0 -0.00000000000E+00 -0.00000000000E+00 -0.25272350255E+04  0.25272350255E+04  0.00000000000E+00 0.  1.
         21    1    1    2  503  504 -0.15747417815E+01  0.12928754881E+03 -0.36369344991E+03  0.38599310304E+03  0.00000000000E+00 0. -1.
         21    1    1    2  504  501 -0.46941424419E+02  0.44717942398E+02 -0.49816817546E+02  0.81761280623E+02  0.00000000000E+00 0. -1.
         21    1    1    2  505  502  0.32924335802E+02 -0.14835257129E+03  0.10235036955E+03  0.18321598032E+03  0.00000000000E+00 0. -1.
          2    1    1    2  501    0  0.15591830398E+02 -0.25652919913E+02 -0.20460597891E+04  0.20462799999E+04  0.00000000000E+00 0.  1.
<scales pt_clust_3="149.51091" pt_clust_4="60.87774" pt_clust_5="14000.00000" pt_clust_6="30.01962"></scales>
<clustering>
<clus scale="   30.020">  2  6  1 -1</clus>
<clus scale="   60.878">  2  4  1 -1</clus>
<clus scale="  149.511">  2  3  1 -1</clus>
<clus scale="  149.511">  1  3  2 -1</clus>
</clustering>
</event>
<event>
 6    0  0.3584505E+002  0.1738329E+03  0.7546771E-02  0.1173909E+00
         21   -1    0    0  504  502  0.00000000000E+00  0.00000000000E+00  0.32621201680E+03  0.32621201680E+03  0.00000000000E+00 0.  1.
          2   -1    0    0  502    0 -0.00000000000E+00 -0.00000000000E+00 -0.15039775639E+04  0.15039775639E+04  0.00000000000E+00 0.  1.
         21    1    1    2  503  505 -0.73544285308E+02  0.12917557722E+03  0.16121525441E+03  0.21928394813E+03  0.00000000000E+00 0.  1.
         21    1    1    2  504  503 -0.12733662512E+02  0.30316226366E+02  0.12608210009E+03  0.13029933118E+03  0.00000000000E+00 0. -1.
         21    1    1    2  505  501  0.40798201313E+02 -0.10381399696E+03 -0.47434097420E+03  0.48727938495E+03  0.00000000000E+00 0.  1.
          2    1    1    2  501    0  0.45479746507E+02 -0.55677806624E+02 -0.99072192743E+03  0.99332691647E+03  0.00000000000E+00 0.  1.
<scales pt_clust_3="173.83288" pt_clust_4="32.88191" pt_clust_5="14000.00000" pt_clust_6="71.68437"></scales>
<clustering>
<clus scale="   32.882">  1  4  2 -1</clus>
<clus scale="   71.684">  2  6  1 -1</clus>
<clus scale="  173.833">  1  3  2 -1</clus>
<clus scale="   32.882">  1  3  2 -1</clus>
</clustering>
</event>
<event>
 6    0  0.3584505E+002  0.1166490E+03  0.7546771E-02  0.1248730E+00
         21   -1    0    0  505  502  0.00000000000E+00  0.00000000000E+00  0.21620639906E+04  0.21620639906E+04  0.00000000000E+00 0.  1.
          3   -1    0    0  503    0 -0.00000000000E+00 -0.00000000000E+00 -0.15531482433E+03  0.15531482433E+03  0.00000000000E+00 0.  1.
         21    1    1    2  503  502 -0.42162548219E+02 -0.12974896265E+02  0.47592816828E+02  0.64893024425E+02  0.00000000000E+00 0. -1.
         21    1    1    2  504  501 -0.45428896655E+02 -0.34795633360E+02  0.39673214569E+03  0.40083776790E+03  0.00000000000E+00 0.  1.
         21    1    1    2  505  504 -0.31489853255E+02  0.27340630341E+02  0.16814963344E+04  0.16820133899E+04  0.00000000000E+00 0.  1.
          3    1    1    2  501    0  0.11908129813E+03  0.20429899284E+02 -0.11907213063E+03  0.16963463279E+03  0.00000000000E+00 0.  1.
<scales pt_clust_3="46.88000" pt_clust_4="14000.00000" pt_clust_5="41.70277" pt_clust_6="116.64904"></scales>
<clustering>
<clus scale="   41.703">  1  5  2 -1</clus>
<clus scale="   46.880">  1  3  2 -1</clus>
<clus scale="  116.649">  2  6  1 -1</clus>
<clus scale="   41.703">  1  3  2 -1</clus>
</clustering>
</event>
<event>
 6    0  0.3584505E+002  0.9398515E+02  0.7546771E-02  0.1293478E+00
         21   -1    0    0  503  502  0.00000000000E+00  0.00000000000E+00  0.34077449917E+02  0.34077449917E+02  0.00000000000E+00 0. -1.
          2   -1    0    0  504    0 -0.00000000000E+00 -0.00000000000E+00 -0.16341665762E+04  0.16341665762E+04  0.00000000000E+00 0.  1.
         21    1    1    2  503  501 -0.18420752730E+02 -0.58091701568E+02 -0.64729277813E+02  0.88903595700E+02  0.00000000000E+00 0. -1.
         21    1    1    2  504  505  0.24704459234E+02 -0.82148091570E+02 -0.39083591080E+03  0.40013913633E+03  0.00000000000E+00 0.  1.
         21    1    1    2  505  502  0.81277949163E+02  0.78043054293E+02 -0.20818920493E+03  0.23672678005E+03  0.00000000000E+00 0. -1.
          2    1    1    2  501    0 -0.87561655668E+02  0.62196738845E+02 -0.93633473273E+03  0.94247451403E+03  0.00000000000E+00 0.  1.
<scales pt_clust_3="60.94235" pt_clust_4="93.98515" pt_clust_5="80.21259" pt_clust_6="14000.00000"></scales>
<clustering>
<clus scale="   60.942">  1  3  2 -1</clus>
<clus scale="   80.213">  1  5  2 -1</clus>
<clus scale="   93.985">  1  4  2 -1</clus>
<clus scale="   60.942">  1  3  2 -1</clus>
</clustering>
</event>
<event>
 6    0  0.3584505E+002  0.5926262E+02  0.7546771E-02  0.1400953E+00
         21   -1    0    0  504  502  0.00000000000E+00  0.00000000000E+00  0.30262757578E+03  0.30262757578E+03  0.00000000000E+00 0. -1.
          1   -1    0    0  503    0 -0.00000000000E+00 -0.00000000000E+00 -0.63953060747E+03  0.63953060747E+03  0.00000000000E+00 0. -1.
         21    1    1    2  503  505  0.80095468448E+02  0.15434652617E+02 -0.88285567482E+02  0.12019922626E+03  0.00000000000E+00 0. -1.
         21    1    1    2  504  501  0.13429873443E+02  0.48001933085E+02  0.15507047837E+03  0.16288462280E+03  0.00000000000E+00 0. -1.
         21    1    1    2  505  502 -0.62483090773E+02 -0.67328605276E+02  0.11063751215E+03  0.14379825039E+03  0.00000000000E+00 0.  1.
          1    1    1    2  501    0 -0.31042251117E+02  0.38920195742E+01 -0.51432545472E+03  0.51527608381E+03  0.00000000000E+00 0. -1.
<scales pt_clust_3="59.26262" pt_clust_4="49.71010" pt_clust_5="14000.00000" pt_clust_6="31.28529"></scales>
<clustering>
<clus scale="   31.285">  2  6  1 -1</clus>
<clus scale="   49.710">  1  4  2 -1</clus>
<clus scale="   59.263">  2  3  1 -1</clus>
<clus scale="   49.710">  1  3  2 -1</clus>
</clustering>
</event>
<event>
 6    0  0.3584505E+002  0.8251647E+02  0.7546771E-02  0.1322058E+00
         21   -1    0    0  503  502  0.00000000000E+00  0.00000000000E+00  0.13427748594E+03  0.13427748594E+03  0.00000000000E+00 0.  1.
          2   -1    0    0  505    0 -0.00000000000E+00 -0.00000000000E+00 -0.95126671085E+03  0.95126671085E+03  0.00000000000E+00 0.  1.
         21    1    1    2  503  501 -0.53131607072E+02 -0.11073731194E+03 -0.44344643438E+03  0.46014178259E+03  0.00000000000E+00 0.  1.
         21    1    1    2  504  502  0.42380062806E+02  0.62413354441E+01  0.51846918664E+02  0.67254196647E+02  0.00000000000E+00 0.  1.
         21    1    1    2  505  504  0.63874430529E+01  0.61025079031E+02  0.50983486501E+02  0.79775783263E+02  0.00000000000E+00 0.  1.
          2    1    1    2  501    0  0.43641012132E+01  0.43470897465E+02 -0.47637319570E+03  0.47837243428E+03  0.00000000000E+00 0.  1.
<scales pt_clust_3="14000.00000" pt_clust_4="42.83718" pt_clust_5="82.51647" pt_clust_6="43.83263"></scales>
<clustering>
<clus scale="   42.837">  1  4  2 -1</clus>
<clus scale="   43.833">  2  6  1 -1</clus>
<clus scale="   82.516">  1  5  2 -1</clus>
<clus scale="   42.837">  1  3  2 -1</clus>
</clustering>
</event>
<event>
 6    0  0.3584505E+002  0.1362340E+03  0.7546771E-02  0.1218488E+00
          2   -1    0    0  505    0 -0.00000000000E+00  0.00000000000E+00  0.52554815313E+03  0.52554815313E+03  0.00000000000E+00 0. -1.
         21   -1    0    0  504  502  0.00000000000E+00 -0.00000000000E+00 -0.13573399016E+03  0.13573399016E+03  0.00000000000E+00 0. -1.
         21    1    1    2  503  502  0.83714404890E+01 -0.89959644933E+02 -0.65363251863E+02  0.11151310877E+03  0.00000000000E+00 0. -1.
         21    1    1    2  504  501 -0.20137492917E+02  0.84713070341E+02  0.16144957223E+03  0.18343333198E+03  0.00000000000E+00 0. -1.
         21    1    1    2  505  503  0.39173107651E+02 -0.33844044368E+02 -0.15032166120E+02  0.53906564726E+02  0.00000000000E+00 0. -1.
          2    1    1    2  501    0 -0.27407055223E+02  0.39090618960E+02  0.30876000873E+03  0.31242913782E+03  0.00000000000E+00 0. -1.
<scales pt_clust_3="43.56559" pt_clust_4="123.47993" pt_clust_5="43.56559" pt_clust_6="47.74121"></scales>
<clustering>
<clus scale="   43.566">  3  5 -1 -1</clus>
<clus scale="   47.741">  1  6  2 -1</clus>
<clus scale="  123.480">  1  4  2 -1</clus>
<clus scale="  136.234">  2  3  1 -1</clus>
</clustering>
</event>
<event>
 6    0  0.4274717E+002  0.1515030E+03  0.7546771E-02  0.1198638E+00
          1   -1    0    0  503    0 -0.00000000000E+00  0.00000000000E+00  0.18532269396E+04  0.18532269396E+04  0.00000000000E+00 0.  1.
         21   -1    0    0  504  502  0.00000000000E+00 -0.00000000000E+00 -0.16046297067E+03  0.16046297067E+03  0.00000000000E+00 0. -1.
         21    1    1    2  503  502 -0.91423441711E+02 -0.11704504519E+03 -0.10706265505E+03  0.18308522716E+03  0.00000000000E+00 0. -1.
         21    1    1    2  504  505 -0.95303616307E+00  0.59633590724E+02  0.13029012773E+03  0.14329197746E+03  0.00000000000E+00 0.  1.
         21    1    1    2  505  501  0.42544797137E+02  0.32859997285E+02  0.77566256848E+02  0.94373531175E+02  0.00000000000E+00 0.  1.
          1    1    1    2  501    0  0.49831680737E+02  0.24551457181E+02  0.15919702394E+04  0.15929391745E+04  0.00000000000E+00 0.  1.
<scales pt_clust_3="141.27091" pt_clust_4="51.96284" pt_clust_5="51.96284" pt_clust_6="55.55151"></scales>
<clustering>
<clus scale="   51.963">  4  5 -1 -1</clus>
<clus scale="   55.552">  1  6  2 -1</clus>
<clus scale="  141.271">  2  3  1 -1</clus>
<clus scale="  141.271">  2  3  1 -1</clus>
</clustering>
</event>
<event>
 6    0  0.3584505E+002  0.7157769E+02  0.7546771E-02  0.1354809E+00
          4   -1    0    0  503    0 -0.00000000000E+00  0.00000000000E+00  0.66654967927E+02  0.66654967927E+02  0.00000000000E+00 0. -1.
         21   -1    0    0  505  502  0.00000000000E+00 -0.00000000000E+00 -0.15976159180E+04  0.15976159180E+04  0.00000000000E+00 0. -1.
         21    1    1    2  503  504  0.42152008421E+02 -0.15941146372E+02  0.25841513773E+02  0.51948972999E+02  0.00000000000E+00 0. -1.
         21    1    1    2  504  502 -0.18662519328E+02 -0.10240821529E+03 -0.62260036924E+03  0.63124238765E+03  0.00000000000E+00 0. -1.
         21    1    1    2  505  501 -0.29318548729E+01  0.63676070001E+02 -0.91834537786E+03  0.92055497973E+03  0.00000000000E+00 0. -1.
          4    1    1    2  501    0 -0.20557634220E+02  0.54673291660E+02 -0.15856716716E+02  0.60524545522E+02  0.00000000000E+00 0. -1.
<scales pt_clust_3="45.06564" pt_clust_4="71.57769" pt_clust_5="14000.00000" pt_clust_6="43.92744"></scales>
<clustering>
<clus scale="   45.066">  1  3  2 -1</clus>
<clus scale="   43.927">  1  6  2 -1</clus>
<clus scale="   71.578">  1  4  2 -1</clus>
<clus scale="   71.578">  2  3  1 -1</clus>
</clustering>
</event>
<event>
 6    0  0.3584505E+002  0.1121928E+03  0.7546771E-02  0.1256562E+00
          2   -1    0    0  502    0 -0.00000000000E+00  0.00000000000E+00  0.13229068009E+04  0.13229068009E+04  0.00000000000E+00 0.  1.
         21   -1    0    0  504  502  0.00000000000E+00 -0.00000000000E+00 -0.41770786370E+03  0.41770786370E+03  0.00000000000E+00 0. -1.
         21    1    1    2  503  505 -0.14919803029E+02 -0.92441408518E+02 -0.21977629178E+02  0.96182278594E+02  0.00000000000E+00 0. -1.
         21    1    1    2  504  503  0.37270757420E+02 -0.15799747230E+02 -0.33687425617E+03  0.33929781290E+03  0.00000000000E+00 0. -1.
         21    1    1    2  505  501 -0.37104991434E+02  0.15573741585E+03  0.30210603720E+03  0.34190492947E+03  0.00000000000E+00 0.  1.
          2    1    1    2  501    0  0.14754037043E+02 -0.47496260103E+02  0.96194478531E+03  0.96322964360E+03  0.00000000000E+00 0.  1.
<scales pt_clust_3="14000.00000" pt_clust_4="40.48137" pt_clust_5="112.19278" pt_clust_6="49.94663"></scales>
<clustering>
<clus scale="   40.481">  2  4  1 -1</clus>
<clus scale="   49.947">  1  6  2 -1</clus>
<clus scale="  112.193">  1  5  2 -1</clus>
<clus scale="   40.481">  2  3  1 -1</clus>
</clustering>
</event>
<event>
 6    0  0.3584505E+002  0.7356722E+02  0.7546771E-02  0.1348366E+00
         21   -1    0    0  505  502  0.00000000000E+00  0.00000000000E+00  0.37231381927E+03  0.37231381927E+03  0.00000000000E+00 0.  1.
          2   -1    0    0  504    0 -0.00000000000E+00 -0.00000000000E+00 -0.87892836286E+03  0.87892836286E+03  0.00000000000E+00 0.  1.
         21    1    1    2  503  501 -0.44695280068E+02  0.91187315724E+01 -0.42353586818E+02  0.62246651655E+02  0.00000000000E+00 0.  1.
         21    1    1    2  504  502  0.60014638182E+02 -0.10142788773E+03  0.45464020979E+02  0.12631844841E+03  0.00000000000E+00 0.  1.
         21    1    1    2  505  503  0.15676200720E+02  0.69893498348E+02  0.27136064541E+03  0.28065538345E+03  0.00000000000E+00 0.  1.
          2    1    1    2  501    0 -0.30995558834E+02  0.22415657811E+02 -0.78108562317E+03  0.78202169861E+03  0.00000000000E+00 0.  1.
<scales pt_clust_3="64.88944" pt_clust_4="73.56722" pt_clust_5="14000.00000" pt_clust_6="38.25162"></scales>
<clustering>
<clus scale="   38.252">  2  6  1 -1</clus>
<clus scale="   64.889">  2  3  1 -1</clus>
<clus scale="   73.567">  2  4  1 -1</clus>
<clus scale="   73.567">  1  3  2 -1</clus>
</clustering>
</event>
<event>
 6    0  0.3584505E+002  0.6676568E+02  0.7546771E-02  0.1371450E+00
         21   -1    0    0  503  502  0.00000000000E+00  0.00000000000E+00  0.48045695468E+03  0.48045695468E+03  0.00000000000E+00 0.  1.
          3   -1    0    0  505    0 -0.00000000000E+00 -0.00000000000E+00 -0.25480810020E+03  0.25480810020E+03  0.00000000000E+00 0. -1.
         21    1    1    2  503  501 -0.29982152092E+00  0.92318796855E+02  0.70398001674E+02  0.11609792757E+03  0.00000000000E+00 0.  1.
         21    1    1    2  504  502  0.36375682395E+02 -0.26492258679E+02  0.33081803180E+03  0.33386464354E+03  0.00000000000E+00 0.  1.
         21    1    1    2  505  504 -0.68522402780E+02 -0.21771791623E+02  0.25989809309E+02  0.76451296792E+02  0.00000000000E+00 0.  1.
          3    1    1    2  501    0  0.32446541905E+02 -0.44054746553E+02 -0.20155698830E+03  0.20885118699E+03  0.00000000000E+00 0. -1.
<scales pt_clust_3="14000.00000" pt_clust_4="45.00033" pt_clust_5="66.76568" pt_clust_6="55.77120"></scales>
<clustering>
<clus scale="   45.000">  1  4  2 -1</clus>
<clus scale="   55.771">  2  6  1 -1</clus>
<clus scale="   66.766">  2  5  1 -1</clus>
<clus scale="   45.000">  1  3  2 -1</clus>
</clustering>
</event>
<event>
 6    0  0.3584505E+002  0.1557932E+03  0.7546771E-02  0.1193530E+00
          2   -1    0    0  504    0 -0.00000000000E+00  0.00000000000E+00  0.29676490386E+04  0.29676490386E+04  0.00000000000E+00 0.  1.
         21   -1    0    0  503  502  0.00000000000E+00 -0.00000000000E+00 -0.49280973412E+02  0.49280973412E+02  0.00000000000E+00 0.  1.
         21    1    1    2  503  501  0.13633323814E+03  0.75735241551E+02  0.16686483082E+03  0.22839976007E+03  0.00000000000E+00 0.  1.
         21    1    1    2  504  505 -0.52884502966E+02 -0.31490672160E+01  0.40882906615E+02  0.66918602284E+02  0.00000000000E+00 0. -1.
         21    1    1    2  505  502  0.41240788777E+02  0.20969853294E+02  0.16909490945E+03  0.17531008473E+03  0.00000000000E+00 0.  1.
          2    1    1    2  501    0 -0.12468952395E+03 -0.93556027629E+02  0.25415254183E+04  0.25463015649E+04  0.00000000000E+00 0.  1.
<scales pt_clust_3="155.79323" pt_clust_4="41.34974" pt_clust_5="46.26594" pt_clust_6="14000.00000"></scales>
<clustering>
<clus scale="   46.266">  2  5  1 -1</clus>
<clus scale="   41.350">  2  4  1 -1</clus>
<clus scale="  155.793">  2  3  1 -1</clus>
<clus scale="   46.266">  2  3  1 -1</clus>
</clustering>
</event>
<event>
 6    0  0.3584505E+002  0.1531830E+03  0.7546771E-02  0.1196615E+00
          1   -1    0    0  503    0 -0.00000000000E+00  0.00000000000E+00  0.10986047457E+04  0.10986047457E+04  0.00000000000E+00 0.  1.
         21   -1    0    0  505  502  0.00000000000E+00 -0.00000000000E+00 -0.24912858366E+03  0.24912858366E+03  0.00000000000E+00 0.  1.
         21    1    1    2  503  504 -0.73818799619E+01  0.38432846966E+02  0.41071865821E+02  0.56731596485E+02  0.00000000000E+00 0.  1.
         21    1    1    2  504  502 -0.10987730753E+03 -0.44031919018E+02 -0.43349822855E+02  0.12605966739E+03  0.00000000000E+00 0. -1.
         21    1    1    2  505  501  0.18706635676E+02 -0.91703287433E+02 -0.13734071337E+03  0.16619838355E+03  0.00000000000E+00 0.  1.
          1    1    1    2  501    0  0.98552551814E+02  0.97302359486E+02  0.98909483243E+03  0.99874368191E+03  0.00000000000E+00 0.  1.
<scales pt_clust_3="39.13535" pt_clust_4="153.18297" pt_clust_5="93.05393" pt_clust_6="14000.00000"></scales>
<clustering>
<clus scale="   39.135">  1  3  2 -1</clus>
<clus scale="   93.054">  2  5  1 -1</clus>
<clus scale="  153.183">  2  4  1 -1</clus>
<clus scale="   93.054">  2  3  1 -1</clus>
</clustering>
</event>
<event>
 6    0  0.3584505E+002  0.1118225E+03  0.7546771E-02  0.1257232E+00
         21   -1    0    0  503  502  0.00000000000E+00  0.00000000000E+00  0.28779566823E+02  0.28779566823E+02  0.00000000000E+00 0.  1.
          2   -1    0    0  505    0 -0.00000000000E+00 -0.00000000000E+00 -0.33660928091E+04  0.33660928091E+04  0.00000000000E+00 0. -1.
         21    1    1    2  503  504  0.91902023409E+01  0.35406776670E+02 -0.27942930927E+02  0.46031587438E+02  0.00000000000E+00 0.  1.
         21    1    1    2  504  501  0.35184626870E+02  0.72267114670E+02 -0.11042815358E+04  0.11072028739E+04  0.00000000000E+00 0. -1.
         21    1    1    2  505  502 -0.52604957664E+02 -0.14147562589E+03 -0.29628209194E+03  0.33251422872E+03  0.00000000000E+00 0.  1.
          2    1    1    2  501    0  0.82301284529E+01  0.33801734554E+02 -0.19088066836E+04  0.19091236858E+04  0.00000000000E+00 0. -1.
<scales pt_clust_3="37.46303" pt_clust_4="14000.00000" pt_clust_5="111.82246" pt_clust_6="34.78926"></scales>
<clustering>
<clus scale="   34.789">  2  6  1 -1</clus>
<clus scale="   37.463">  1  3  2 -1</clus>
<clus scale="  111.822">  1  5  2 -1</clus>
<clus scale="   37.463">  1  3  2 -1</clus>
</clustering>
</event>
<event>
 6    0  0.3584505E+002  0.1609985E+03  0.7546771E-02  0.1187574E+00
         21   -1    0    0  503  502  0.00000000000E+00  0.00000000000E+00  0.46225864009E+03  0.46225864009E+03  0.00000000000E+00 0.  1.
         -1   -1    0    0    0  501 -0.00000000000E+00 -0.00000000000E+00 -0.29230192743E+03  0.29230192743E+03  0.00000000000E+00 0. -1.
         21    1    1    2  503  504 -0.17374589675E+02 -0.16561199914E+03  0.33896939006E+03  0.37766315417E+03  0.00000000000E+00 0.  1.
         21    1    1    2  504  501  0.37518221004E+02  0.11374915943E+03 -0.44364214413E+01  0.11985895884E+03  0.00000000000E+00 0. -1.
         21    1    1    2  505  502 -0.32355067813E+02 -0.12324377782E+02  0.33674541530E+02  0.48298193011E+02  0.00000000000E+00 0.  1.
         -1    1    1    2    0  505  0.12211436484E+02  0.64187217496E+02 -0.19825079748E+03  0.20874026150E+03  0.00000000000E+00 0. -1.
<scales pt_clust_3="14000.00000" pt_clust_4="160.99849" pt_clust_5="34.62283" pt_clust_6="65.11351"></scales>
<clustering>
<clus scale="   34.623">  1  5  2 -1</clus>
<clus scale="   65.114">  2  6  1 -1</clus>
<clus scale="  160.998">  2  4  1 -1</clus>
<clus scale="   34.623">  1  3  2 -1</clus>
</clustering>
</event>
<event>
 6    0  0.3584505E+002  0.9464369E+02  0.7546771E-02  0.1291981E+00
         -2   -1    0    0    0  501 -0.00000000000E+00  0.00000000000E+00  0.39507880672E+03  0.39507880672E+03  0.00000000000E+00 0.  1.
         21   -1    0    0  504  502  0.00000000000E+00 -0.00000000000E+00 -0.14419365729E+03  0.14419365729E+03  0.00000000000E+00 0. -1.
         21    1    1    2  503  501  0.78008077561E+02 -0.43339117852E+02  0.18632669317E+03  0.20659423005E+03  0.00000000000E+00 0.  1.
         21    1    1    2  504  503  0.59967669387E+02  0.15304576660E+02 -0.62812902949E+02  0.88180565973E+02  0.00000000000E+00 0. -1.
         21    1    1    2  505  502 -0.34326194004E+02  0.68943957547E+01 -0.35775709795E+02  0.50057184289E+02  0.00000000000E+00 0.  1.
         -2    1    1    2    0  505 -0.10364955294E+03  0.21140145438E+02  0.16314706900E+03  0.19444048369E+03  0.00000000000E+00 0.  1.
<scales pt_clust_3="14000.00000" pt_clust_4="39.99868" pt_clust_5="35.01172" pt_clust_6="94.64369"></scales>
<clustering>
<clus scale="   35.012">  2  5  1 -1</clus>
<clus scale="   39.999">  2  4  1 -1</clus>
<clus scale="   94.644">  2  6  1 -1</clus>
<clus scale="   35.012">  2  3  1 -1</clus>
</clustering>
</event>
<event>
 6    0  0.3584505E+002  0.1167748E+03  0.7546771E-02  0.1248514E+00
          2   -1    0    0  503    0 -0.00000000000E+00  0.00000000000E+00  0.68933859141E+03  0.68933859141E+03  0.00000000000E+00 0. -1.
         21   -1    0    0  505  502  0.00000000000E+00 -0.00000000000E+00 -0.95149107319E+03  0.95149107319E+03  0.00000000000E+00 0. -1.
         21    1    1    2  503  504  0.81512401954E+02 -0.10943357927E+03  0.25524641689E+03  0.28943170745E+03  0.00000000000E+00 0.  1.
         21    1    1    2  504  502  0.54121821328E+02 -0.11359297821E+02 -0.11253305198E+03  0.12538697293E+03  0.00000000000E+00 0.  1.
         21    1    1    2  505  501 -0.63170783516E+02  0.39875783134E+02 -0.80649769190E+03  0.80995009291E+03  0.00000000000E+00 0. -1.
          2    1    1    2  501    0 -0.72463439765E+02  0.80917093958E+02  0.40163184521E+03  0.41606089132E+03  0.00000000000E+00 0. -1.
<scales pt_clust_3="116.77484" pt_clust_4="55.30104" pt_clust_5="30.74400" pt_clust_6="14000.00000"></scales>
<clustering>
<clus scale="   55.301">  2  4  1 -1</clus>
<clus scale="   30.744">  2  5  1 -1</clus>
<clus scale="  116.775">  2  3  1 -1</clus>
<clus scale="   55.301">  2  3  1 -1</clus>
</clustering>
</event>
<event>
 6    0  0.3584505E+002  0.1028989E+03  0.7546771E-02  0.1274315E+00
          2   -1    0    0  505    0 -0.00000000000E+00  0.00000000000E+00  0.20615279523E+04  0.20615279523E+04  0.00000000000E+00 0.  1.
         21   -1    0    0  503  502  0.00000000000E+00 -0.00000000000E+00 -0.32297176580E+03  0.32297176580E+03  0.00000000000E+00 0. -1.
         21    1    1    2  503  501 -0.15178936598E+02 -0.60583342108E+02  0.32409151975E-02  0.62455916194E+02  0.00000000000E+00 0.  1.
         21    1    1    2  504  502  0.97410148257E+02  0.43638220895E+02 -0.27491295393E+03  0.29490704221E+03  0.00000000000E+00 0. -1.
         21    1    1    2  505  504 -0.55451974910E+02  0.40480119396E+02  0.17019118944E+03  0.18351730859E+03  0.00000000000E+00 0.  1.
          2    1    1    2  501    0 -0.26779236749E+02 -0.23534998184E+02  0.18432747101E+04  0.18436194511E+04  0.00000000000E+00 0.  1.
<scales pt_clust_3="66.72021" pt_clust_4="14000.00000" pt_clust_5="102.89891" pt_clust_6="35.65142"></scales>
<clustering>
<clus scale="   35.651">  1  6  2 -1</clus>
<clus scale="   66.720">  1  3  2 -1</clus>
<clus scale="  102.899">  1  5  2 -1</clus>
<clus scale="  102.899">  2  3  1 -1</clus>
</clustering>
</event>
<event>
 6    0  0.3584505E+002  0.7733179E+02  0.7546771E-02  0.1336799E+00
         21   -1    0    0  504  502  0.00000000000E+00  0.00000000000E+00  0.34538743719E+03  0.34538743719E+03  0.00000000000E+00 0.  1.
         -1   -1    0    0    0  501 -0.00000000000E+00 -0.00000000000E+00 -0.36580127986E+03  0.36580127986E+03  0.00000000000E+00 0. -1.
         21    1    1    2  503  502  0.36062621001E+02 -0.27902077034E+02  0.18483100075E+02  0.49200239071E+02  0.00000000000E+00 0.  1.
         21    1    1    2  504  505 -0.85615086779E+02 -0.18322315661E+02  0.11212863171E+03  0.14226201314E+03  0.00000000000E+00 0.  1.
         21    1    1    2  505  501  0.84369854861E+00  0.10611423881E+03  0.16402333279E+03  0.19535761363E+03  0.00000000000E+00 0.  1.
         -1    1    1    2    0  503  0.48708767230E+02 -0.59889846112E+02 -0.31504890725E+03  0.32436885120E+03  0.00000000000E+00 0. -1.
<scales pt_clust_3="45.59648" pt_clust_4="76.86714" pt_clust_5="77.33179" pt_clust_6="14000.00000"></scales>
<clustering>
<clus scale="   45.596">  1  3  2 -1</clus>
<clus scale="   76.867">  1  4  2 -1</clus>
<clus scale="   77.332">  1  5  2 -1</clus>
<clus scale="   45.596">  1  3  2 -1</clus>
</clustering>
</event>
<event>
 6    0  0.3584505E+002  0.1050934E+03  0.7546771E-02  0.1269936E+00
          2   -1    0    0  505    0 -0.00000000000E+00  0.00000000000E+00  0.23846474036E+04  0.23846474036E+04  0.00000000000E+00 0. -1.
         21   -1    0    0  503  502  0.00000000000E+00 -0.00000000000E+00 -0.51978500753E+02  0.51978500753E+02  0.00000000000E+00 0. -1.
         21    1    1    2  503  504  0.25055068947E+02 -0.26895269238E+02 -0.35086133002E+02  0.50814847401E+02  0.00000000000E+00 0. -1.
         21    1    1    2  504  501 -0.10577201007E+02  0.92112448848E+02  0.12683573667E+04  0.12717417152E+04  0.00000000000E+00 0. -1.
         21    1    1    2  505  502  0.23014787830E+02 -0.86465841932E+02  0.28917808544E+03  0.30270445550E+03  0.00000000000E+00 0.  1.
          2    1    1    2  501    0 -0.37492655770E+02  0.21248662323E+02  0.81021958369E+03  0.81136488627E+03  0.00000000000E+00 0. -1.
<scales pt_clust_3="36.75748" pt_clust_4="105.09342" pt_clust_5="14000.00000" pt_clust_6="40.87751"></scales>
<clustering>
<clus scale="   36.757">  2  3  1 -1</clus>
<clus scale="   40.878">  1  6  2 -1</clus>
<clus scale="  105.093">  1  4  2 -1</clus>
<clus scale="   36.757">  2  3  1 -1</clus>
</clustering>
</event>
<event>
 6    0  0.3584505E+002  0.9858321E+02  0.7546771E-02  0.1283304E+00
         21   -1    0    0  505  502  0.00000000000E+00  0.00000000000E+00  0.11258822947E+04  0.11258822947E+04  0.00000000000E+00 0.  1.
          1   -1    0    0  503    0 -0.00000000000E+00 -0.00000000000E+00 -0.44564425349E+03  0.44564425349E+03  0.00000000000E+00 0. -1.
         21    1    1    2  503  504 -0.23228845385E+02  0.19532079839E+02 -0.10440581286E+03  0.10872743518E+03  0.00000000000E+00 0. -1.
         21    1    1    2  504  502  0.16907756666E+01 -0.98739185788E+02  0.10902474743E+04  0.10947108480E+04  0.00000000000E+00 0.  1.
         21    1    1    2  505  501  0.53695503969E+02  0.91944669815E+02 -0.64440178199E+02  0.12445708505E+03  0.00000000000E+00 0. -1.
          1    1    1    2  501    0 -0.32157434250E+02 -0.12737563866E+02 -0.24116344199E+03  0.24363117999E+03  0.00000000000E+00 0. -1.
<scales pt_clust_3="30.34932" pt_clust_4="14000.00000" pt_clust_5="98.58321" pt_clust_6="48.77849"></scales>
<clustering>
<clus scale="   30.349">  2  3  1 -1</clus>
<clus scale="   48.778">  2  6  1 -1</clus>
<clus scale="   98.583">  2  5  1 -1</clus>
<clus scale="   98.583">  1  3  2 -1</clus>
</clustering>
</event>
<event>
 6    0  0.3584505E+002  0.1997180E+03  0.7546771E-02  0.1149977E+00
         21   -1    0    0  503  502  0.00000000000E+00  0.00000000000E+00  0.17533546910E+03  0.17533546910E+03  0.00000000000E+00 0.  1.
          2   -1    0    0  504    0 -0.00000000000E+00 -0.00000000000E+00 -0.12362540907E+04  0.12362540907E+04  0.00000000000E+00 0.  1.
         21    1    1    2  503  505 -0.21183935566E+03  0.47144991543E+02 -0.28883619275E+03  0.36128231216E+03  0.00000000000E+00 0.  1.
         21    1    1    2  504  502  0.38409201918E+02 -0.92286175247E+01  0.12597129686E+03  0.13201970234E+03  0.00000000000E+00 0.  1.
         21    1    1    2  505  501  0.14351493385E+03 -0.14710956751E+02 -0.56658394423E+03  0.58466256451E+03  0.00000000000E+00 0.  1.
          2    1    1    2  501    0  0.29915219889E+02 -0.23205417267E+02 -0.33146978144E+03  0.33362498075E+03  0.00000000000E+00 0.  1.
<scales pt_clust_3="186.14892" pt_clust_4="39.50233" pt_clust_5="37.06833" pt_clust_6="37.06833"></scales>
<clustering>
<clus scale="   37.068">  5  6 -1 -1</clus>
<clus scale="   39.502">  1  4  2 -1</clus>
<clus scale="  186.149">  1  3  2 -1</clus>
<clus scale="   39.502">  1  3  2 -1</clus>
</clustering>
</event>
<event>
 6    0  0.3584505E+002  0.1711657E+03  0.7546771E-02  0.1176638E+00
         -1   -1    0    0    0  501 -0.00000000000E+00  0.00000000000E+00  0.13597408034E+04  0.13597408034E+04  0.00000000000E+00 0. -1.
         21   -1    0    0  504  502  0.00000000000E+00 -0.00000000000E+00 -0.46587833449E+03  0.46587833449E+03  0.00000000000E+00 0. -1.
         21    1    1    2  503  501  0.11057158604E+03 -0.16425572577E+02  0.46133929810E+01  0.11188010756E+03  0.00000000000E+00 0. -1.
         21    1    1    2  504  503  0.68118701981E+02 -0.69454097642E+01 -0.37395617741E+03  0.38017314331E+03  0.00000000000E+00 0. -1.
         21    1    1    2  505  502 -0.25391247529E+03  0.43129858196E+02  0.46483462242E+03  0.53141599146E+03  0.00000000000E+00 0. -1.
         -1    1    1    2    0  505  0.75222187274E+02 -0.19758875855E+02  0.79837063092E+03  0.80214989556E+03  0.00000000000E+00 0. -1.
<scales pt_clust_3="14000.00000" pt_clust_4="68.47186" pt_clust_5="171.16573" pt_clust_6="79.21360"></scales>
<clustering>
<clus scale="   68.472">  2  4  1 -1</clus>
<clus scale="   79.214">  1  6  2 -1</clus>
<clus scale="  171.166">  1  5  2 -1</clus>
<clus scale="   68.472">  2  3  1 -1</clus>
</clustering>
</event>
<event>
 6    0  0.3584505E+002  0.1385525E+03  0.7546771E-02  0.1215290E+00
          2   -1    0    0  505    0 -0.00000000000E+00  0.00000000000E+00  0.34104012823E+04  0.34104012823E+04  0.00000000000E+00 0.  1.
         21   -1    0    0  503  502  0.00000000000E+00 -0.00000000000E+00 -0.34676984505E+03  0.34676984505E+03  0.00000000000E+00 0.  1.
         21    1    1    2  503  504  0.36502730196E+02  0.57081353031E+02 -0.76043615803E+02  0.10184970142E+03  0.00000000000E+00 0. -1.
         21    1    1    2  504  501 -0.14774306164E+03 -0.84115223661E+02  0.51048183917E+03  0.53804748046E+03  0.00000000000E+00 0. -1.
         21    1    1    2  505  502  0.62915276963E+02  0.42254854562E+02 -0.23792707954E+03  0.24970602713E+03  0.00000000000E+00 0.  1.
          2    1    1    2  501    0  0.48325054476E+02 -0.15220983932E+02  0.28671202934E+04  0.28675679183E+04  0.00000000000E+00 0.  1.
<scales pt_clust_3="68.07876" pt_clust_4="14000.00000" pt_clust_5="138.55255" pt_clust_6="50.66546"></scales>
<clustering>
<clus scale="   50.665">  1  6  2 -1</clus>
<clus scale="   68.079">  2  3  1 -1</clus>
<clus scale="  138.553">  2  5  1 -1</clus>
<clus scale="   68.079">  2  3  1 -1</clus>
</clustering>
</event>
<event>
 6    0  0.3584505E+002  0.7570035E+02  0.7546771E-02  0.1341716E+00
         21   -1    0    0  503  502  0.00000000000E+00  0.00000000000E+00  0.59808910607E+02  0.59808910607E+02  0.00000000000E+00 0.  1.
          2   -1    0    0  504    0 -0.00000000000E+00 -0.00000000000E+00 -0.37366628783E+03  0.37366628783E+03  0.00000000000E+00 0.  1.
         21    1    1    2  503  501  0.18447575932E+02 -0.50974306769E+02 -0.30154100792E+02  0.62031949856E+02  0.00000000000E+00 0. -1.
         21    1    1    2  504  505 -0.10251723339E+03  0.28513062139E+01 -0.88815994602E+02  0.13566942908E+03  0.00000000000E+00 0.  1.
         21    1    1    2  505  502  0.50440940533E+02  0.41536373443E+02 -0.38851951762E+02  0.76019951041E+02  0.00000000000E+00 0.  1.
          2    1    1    2  501    0  0.33628716928E+02  0.65866271120E+01 -0.15603533007E+03  0.15975386846E+03  0.00000000000E+00 0.  1.
<scales pt_clust_3="55.80215" pt_clust_4="14000.00000" pt_clust_5="75.70035" pt_clust_6="34.26769"></scales>
<clustering>
<clus scale="   34.268">  2  6  1 -1</clus>
<clus scale="   55.802">  1  3  2 -1</clus>
<clus scale="   75.700">  1  5  2 -1</clus>
<clus scale="   55.802">  1  3  2 -1</clus>
</clustering>
</event>
<event>
 6    0  0.3584505E+002  0.8389440E+02  0.7546771E-02  0.1318349E+00
          1   -1    0    0  504    0 -0.00000000000E+00  0.00000000000E+00  0.13400591838E+03  0.13400591838E+03  0.00000000000E+00 0.  1.
         21   -1    0    0  501  502  0.00000000000E+00 -0.00000000000E+00 -0.35219853316E+03  0.35219853316E+03  0.00000000000E+00 0.  1.
         21    1    1    2  503  502  0.41371305612E+02  0.10594888510E+02 -0.27853771567E+02  0.50986951086E+02  0.00000000000E+00 0.  1.
         21    1    1    2  504  505 -0.92024129045E+02 -0.86812638306E+02 -0.27992674810E+02  0.12957030655E+03  0.00000000000E+00 0.  1.
         21    1    1    2  505  503 -0.23302824426E+01  0.61217788671E+02 -0.21854396949E+03  0.22696809129E+03  0.00000000000E+00 0.  1.
          1    1    1    2  501    0  0.52983105875E+02  0.14999961125E+02  0.56197801078E+02  0.78679102613E+02  0.00000000000E+00 0.  1.
<scales pt_clust_3="42.70640" pt_clust_4="14000.00000" pt_clust_5="83.89440" pt_clust_6="56.59980"></scales>
<clustering>
<clus scale="   42.706">  2  3  1 -1</clus>
<clus scale="   56.600">  1  6  2 -1</clus>
<clus scale="   83.894">  2  5  1 -1</clus>
<clus scale="   42.706">  2  3  1 -1</clus>
</clustering>
</event>
<event>
 6    0  0.3584505E+002  0.9365275E+02  0.7546771E-02  0.1294240E+00
          2   -1    0    0  503    0 -0.00000000000E+00  0.00000000000E+00  0.18897940448E+04  0.18897940448E+04  0.00000000000E+00 0.  1.
         21   -1    0    0  504  502  0.00000000000E+00 -0.00000000000E+00 -0.75497363542E+03  0.75497363542E+03  0.00000000000E+00 0.  1.
         21    1    1    2  503  502  0.77514091884E+02  0.49846452596E+02 -0.19591775677E+03  0.21651067109E+03  0.00000000000E+00 0.  1.
         21    1    1    2  504  505 -0.47043810119E+02  0.32924163760E+02 -0.48339839131E+03  0.48679680089E+03  0.00000000000E+00 0.  1.
         21    1    1    2  505  501 -0.36191020707E+02 -0.15071283410E+03  0.32309289219E+02  0.15832889348E+03  0.00000000000E+00 0.  1.
          2    1    1    2  501    0  0.57207389424E+01  0.67942217743E+02  0.17818272683E+04  0.17831313148E+04  0.00000000000E+00 0.  1.
<scales pt_clust_3="93.65275" pt_clust_4="57.42056" pt_clust_5="14000.00000" pt_clust_6="68.25247"></scales>
<clustering>
<clus scale="   57.421">  2  4  1 -1</clus>
<clus scale="   68.252">  1  6  2 -1</clus>
<clus scale="   93.653">  2  3  1 -1</clus>
<clus scale="   57.421">  2  3  1 -1</clus>
</clustering>
</event>
<event>
 6    0  0.3584505E+002  0.8266015E+02  0.7546771E-02  0.1321667E+00
          2   -1    0    0  504    0 -0.00000000000E+00  0.00000000000E+00  0.12041001460E+04  0.12041001460E+04  0.00000000000E+00 0.  1.
         21   -1    0    0  503  502  0.00000000000E+00 -0.00000000000E+00 -0.10137085723E+03  0.10137085723E+03  0.00000000000E+00 0.  1.
         21    1    1    2  503  505 -0.42398301389E+02 -0.80529514443E+01 -0.65914502868E+02  0.78785707308E+02  0.00000000000E+00 0.  1.
         21    1    1    2  504  502 -0.60766848563E+02 -0.14759973665E+02  0.22835783690E+03  0.23676521784E+03  0.00000000000E+00 0.  1.
         21    1    1    2  505  501  0.10757120236E+03  0.58921964020E+02  0.12966579387E+03  0.17848411560E+03  0.00000000000E+00 0.  1.
          2    1    1    2  501    0 -0.44060524066E+01 -0.36109038911E+02  0.81062016088E+03  0.81143596249E+03  0.00000000000E+00 0.  1.
<scales pt_clust_3="43.34120" pt_clust_4="14000.00000" pt_clust_5="82.66015" pt_clust_6="36.37686"></scales>
<clustering>
<clus scale="   36.377">  1  6  2 -1</clus>
<clus scale="   43.341">  2  3  1 -1</clus>
<clus scale="   82.660">  2  5  1 -1</clus>
<clus scale="   43.341">  2  3  1 -1</clus>
</clustering>
</event>
<event>
 6    0  0.3584505E+002  0.9146457E+02  0.7546771E-02  0.1299343E+00
          1   -1    0    0  504    0 -0.00000000000E+00  0.00000000000E+00  0.15034986641E+04  0.15034986641E+04  0.00000000000E+00 0. -1.
         21   -1    0    0  503  502  0.00000000000E+00 -0.00000000000E+00 -0.63702410941E+03  0.63702410941E+03  0.00000000000E+00 0. -1.
         21    1    1    2  503  505  0.81309975577E+01  0.31019748466E+02 -0.72970090948E+02  0.79705533617E+02  0.00000000000E+00 0. -1.
         21    1    1    2  504  502  0.32966429387E+02  0.50518515452E+02 -0.54234733336E+03  0.54569179568E+03  0.00000000000E+00 0. -1.
         21    1    1    2  505  501 -0.73182158769E+02 -0.10837329606E+03  0.24575454605E+03  0.27838048883E+03  0.00000000000E+00 0. -1.
          1    1    1    2  501    0  0.32084731824E+02  0.26835032143E+02  0.12360374329E+04  0.12367449553E+04  0.00000000000E+00 0. -1.
<scales pt_clust_3="32.06771" pt_clust_4="14000.00000" pt_clust_5="91.46457" pt_clust_6="41.84410"></scales>
<clustering>
<clus scale="   32.068">  2  3  1 -1</clus>
<clus scale="   41.844">  1  6  2 -1</clus>
<clus scale="   91.465">  1  5  2 -1</clus>
<clus scale="   32.068">  2  3  1 -1</clus>
</clustering>
</event>
<event>
 6    0  0.3584505E+002  0.1335697E+03  0.7546771E-02  0.1222253E+00
         -1   -1    0    0    0  501 -0.00000000000E+00  0.00000000000E+00  0.10459271205E+03  0.10459271205E+03  0.00000000000E+00 0. -1.
         21   -1    0    0  505  502  0.00000000000E+00 -0.00000000000E+00 -0.12963121777E+04  0.12963121777E+04  0.00000000000E+00 0.  1.
         21    1    1    2  503  504 -0.10032381551E+03  0.80407574049E+02 -0.42148466201E+03  0.44065810583E+03  0.00000000000E+00 0. -1.
         21    1    1    2  504  502  0.13459041741E+03 -0.40107924086E+02 -0.82430222336E+03  0.83618023264E+03  0.00000000000E+00 0.  1.
         21    1    1    2  505  501 -0.43219677506E+02  0.88699066822E+01 -0.75148757984E+01  0.44755883709E+02  0.00000000000E+00 0.  1.
         -1    1    1    2    0  503  0.89530756149E+01 -0.49169556646E+02  0.61582295536E+02  0.79310667550E+02  0.00000000000E+00 0. -1.
<scales pt_clust_3="133.56974" pt_clust_4="14000.00000" pt_clust_5="44.12047" pt_clust_6="49.55751"></scales>
<clustering>
<clus scale="   44.120">  1  5  2 -1</clus>
<clus scale="   49.558">  1  6  2 -1</clus>
<clus scale="  133.570">  1  3  2 -1</clus>
<clus scale="  133.570">  2  3  1 -1</clus>
</clustering>
</event>
<event>
 6    0  0.3584505E+002  0.8066362E+02  0.7546771E-02  0.1327179E+00
         -1   -1    0    0    0  501 -0.00000000000E+00  0.00000000000E+00  0.21699613254E+04  0.21699613254E+04  0.00000000000E+00 0. -1.
         21   -1    0    0  505  502  0.00000000000E+00 -0.00000000000E+00 -0.28486121148E+03  0.28486121148E+03  0.00000000000E+00 0. -1.
         21    1    1    2  503  504  0.44790014685E+02  0.26466437942E+02  0.91103059179E+02  0.10491132038E+03  0.00000000000E+00 0. -1.
         21    1    1    2  504  501 -0.55536302120E+02  0.78300796223E+02  0.12436822993E+04  0.12473816405E+04  0.00000000000E+00 0.  1.
         21    1    1    2  505  503  0.11287095350E+02 -0.30275003544E+02 -0.27347568807E+03  0.27537778837E+03  0.00000000000E+00 0. -1.
         -1    1    1    2    0  502 -0.54080791537E+00 -0.74492230621E+02  0.82379044354E+03  0.82715178762E+03  0.00000000000E+00 0. -1.
<scales pt_clust_3="52.65294" pt_clust_4="14000.00000" pt_clust_5="32.31059" pt_clust_6="80.66362"></scales>
<clustering>
<clus scale="   32.311">  2  5  1 -1</clus>
<clus scale="   52.653">  2  3  1 -1</clus>
<clus scale="   80.664">  1  6  2 -1</clus>
<clus scale="   32.311">  2  3  1 -1</clus>
</clustering>
</event>
<event>
 6    0  0.3584505E+002  0.7832905E+02  0.7546771E-02  0.1333861E+00
         -3   -1    0    0    0  501 -0.00000000000E+00  0.00000000000E+00  0.70026151341E+03  0.70026151341E+03  0.00000000000E+00 0.  1.
         21   -1    0    0  503  502  0.00000000000E+00 -0.00000000000E+00 -0.94167425628E+02  0.94167425628E+02  0.00000000000E+00 0.  1.
         21    1    1    2  503  504  0.36083865489E+02  0.38955111719E+01  0.31118659451E+02  0.47807858370E+02  0.00000000000E+00 0.  1.
         21    1    1    2  504  501 -0.45217342760E+02  0.10259273590E+03  0.90974947308E+02  0.14438254252E+03  0.00000000000E+00 0.  1.
         21    1    1    2  505  502 -0.24498735305E+02 -0.68779150689E+02 -0.34871456820E+02  0.80912162879E+02  0.00000000000E+00 0.  1.
         -3    1    1    2    0  505  0.33632212576E+02 -0.37709096384E+02  0.51887193785E+03  0.52132637528E+03  0.00000000000E+00 0.  1.
<scales pt_clust_3="36.29353" pt_clust_4="14000.00000" pt_clust_5="78.32905" pt_clust_6="50.83185"></scales>
<clustering>
<clus scale="   36.294">  2  3  1 -1</clus>
<clus scale="   50.832">  1  6  2 -1</clus>
<clus scale="   78.329">  2  5  1 -1</clus>
<clus scale="   36.294">  2  3  1 -1</clus>
</clustering>
</event>
<event>
 6    0  0.3584505E+002  0.9584298E+02  0.7546771E-02  0.1289289E+00
         21   -1    0    0  504  502  0.00000000000E+00  0.00000000000E+00  0.21487054119E+04  0.21487054119E+04  0.00000000000E+00 0.  1.
          2   -1    0    0  505    0 -0.00000000000E+00 -0.00000000000E+00 -0.21632755218E+03  0.21632755218E+03  0.00000000000E+00 0. -1.
         21    1    1    2  503  502  0.18681997238E+02  0.79428168212E+02  0.12533740554E+04  0.12560272185E+04  0.00000000000E+00 0.  1.
         21    1    1    2  504  501  0.33617505442E+02 -0.96103248854E+01  0.14243423746E+03  0.14666290266E+03  0.00000000000E+00 0. -1.
         21    1    1    2  505  503 -0.88736806139E+02 -0.87748679848E+02  0.74226201148E+03  0.75267984247E+03  0.00000000000E+00 0.  1.
          2    1    1    2  501    0  0.36437303458E+02  0.17930836522E+02 -0.20569244460E+03  0.20966300043E+03  0.00000000000E+00 0. -1.
<scales pt_clust_3="14000.00000" pt_clust_4="34.96420" pt_clust_5="95.84298" pt_clust_6="40.63593"></scales>
<clustering>
<clus scale="   34.964">  1  4  2 -1</clus>
<clus scale="   40.636">  2  6  1 -1</clus>
<clus scale="   95.843">  2  5  1 -1</clus>
<clus scale="   34.964">  1  3  2 -1</clus>
</clustering>
</event>
<event>
 6    0  0.3584505E+002  0.1398241E+03  0.7546771E-02  0.1213566E+00
          2   -1    0    0  503    0 -0.00000000000E+00  0.00000000000E+00  0.67817258787E+03  0.67817258787E+03  0.00000000000E+00 0. -1.
         21   -1    0    0  505  502  0.00000000000E+00 -0.00000000000E+00 -0.95783305362E+02  0.95783305362E+02  0.00000000000E+00 0. -1.
         21    1    1    2  503  504 -0.15533927875E+02 -0.13462560933E+03  0.29561228702E+03  0.32519529800E+03  0.00000000000E+00 0. -1.
         21    1    1    2  504  502 -0.77418760924E+02  0.40178433541E+02 -0.36408416534E+02  0.94517426221E+02  0.00000000000E+00 0. -1.
         21    1    1    2  505  501  0.50127202905E+02  0.20783731742E+02  0.80923869878E+02  0.97433940145E+02  0.00000000000E+00 0. -1.
          2    1    1    2  501    0  0.42825485895E+02  0.73663444044E+02  0.24226154214E+03  0.25680922886E+03  0.00000000000E+00 0. -1.
<scales pt_clust_3="126.77474" pt_clust_4="87.22368" pt_clust_5="47.07006" pt_clust_6="47.07006"></scales>
<clustering>
<clus scale="   47.070">  5  6 -1 -1</clus>
<clus scale="   87.224">  2  4  1 -1</clus>
<clus scale="  126.775">  2  3  1 -1</clus>
<clus scale="   87.224">  2  3  1 -1</clus>
</clustering>
</event>
<event>
 6    0  0.3584505E+002  0.6774472E+02  0.7546771E-02  0.1367935E+00
         21   -1    0    0  505  502  0.00000000000E+00  0.00000000000E+00  0.24311817820E+03  0.24311817820E+03  0.00000000000E+00 0. -1.
          2   -1    0    0  504    0 -0.00000000000E+00 -0.00000000000E+00 -0.62256775485E+03  0.62256775485E+03  0.00000000000E+00 0.  1.
         21    1    1    2  503  501  0.41179741733E+02  0.56492892040E+02 -0.14119715610E+03  0.15755587857E+03  0.00000000000E+00 0.  1.
         21    1    1    2  504  502 -0.97740386990E+01 -0.66854355416E+02 -0.56640706302E+02  0.88165788609E+02  0.00000000000E+00 0.  1.
         21    1    1    2  505  503 -0.54613611529E+01 -0.53881160457E+02  0.21276425002E+03  0.21954870076E+03  0.00000000000E+00 0. -1.
          2    1    1    2  501    0 -0.25944341881E+02  0.64242623833E+02 -0.39437596427E+03  0.40041556511E+03  0.00000000000E+00 0.  1.
<scales pt_clust_3="56.33687" pt_clust_4="67.74472" pt_clust_5="54.15723" pt_clust_6="14000.00000"></scales>
<clustering>
<clus scale="   54.157">  1  5  2 -1</clus>
<clus scale="   56.337">  1  3  2 -1</clus>
<clus scale="   67.745">  1  4  2 -1</clus>
<clus scale="   54.157">  1  3  2 -1</clus>
</clustering>
</event>
<event>
 6    0  0.3584505E+002  0.7457627E+02  0.7546771E-02  0.1345188E+00
          2   -1    0    0  503    0 -0.00000000000E+00  0.00000000000E+00  0.43149401666E+03  0.43149401666E+03  0.00000000000E+00 0.  1.
         21   -1    0    0  504  502  0.00000000000E+00 -0.00000000000E+00 -0.27935083617E+03  0.27935083617E+03  0.00000000000E+00 0.  1.
         21    1    1    2  503  505 -0.44555376942E+02 -0.30636054511E+02  0.72798659592E+02  0.90682932732E+02  0.00000000000E+00 0. -1.
         21    1    1    2  504  501 -0.42709965142E+02 -0.60928381670E+02 -0.23572883293E+03  0.24719322703E+03  0.00000000000E+00 0.  1.
         21    1    1    2  505  502  0.82314369388E+02 -0.49000524049E+01  0.65349146511E+02  0.10521490803E+03  0.00000000000E+00 0. -1.
          2    1    1    2  501    0  0.49509726957E+01  0.96464488587E+02  0.24972420731E+03  0.26775378504E+03  0.00000000000E+00 0.  1.
<scales pt_clust_3="54.07171" pt_clust_4="74.57627" pt_clust_5="72.51314" pt_clust_6="14000.00000"></scales>
<clustering>
<clus scale="   54.072">  1  3  2 -1</clus>
<clus scale="   72.513">  1  5  2 -1</clus>
<clus scale="   74.576">  2  4  1 -1</clus>
<clus scale="   74.576">  2  3  1 -1</clus>
</clustering>
</event>
<event>
 6    0  0.3584505E+002  0.9469527E+02  0.7546771E-02  0.1291864E+00
         21   -1    0    0  503  502  0.00000000000E+00  0.00000000000E+00  0.19754322129E+03  0.19754322129E+03  0.00000000000E+00 0. -1.
          2   -1    0    0  504    0 -0.00000000000E+00 -0.00000000000E+00 -0.51285010148E+03  0.51285010148E+03  0.00000000000E+00 0. -1.
         21    1    1    2  503  501  0.11555369993E+03  0.12504578412E+01  0.19242328920E+02  0.11715156181E+03  0.00000000000E+00 0. -1.
         21    1    1    2  504  505 -0.40707749158E+02  0.10827937863E+03  0.12633545902E+02  0.11636645204E+03  0.00000000000E+00 0. -1.
         21    1    1    2  505  502 -0.27875489400E+02 -0.40388782844E+02  0.50550862662E+02  0.70453434301E+02  0.00000000000E+00 0. -1.
          2    1    1    2  501    0 -0.46970461370E+02 -0.69141053627E+02 -0.39773361768E+03  0.40642187462E+03  0.00000000000E+00 0. -1.
<scales pt_clust_3="94.69527" pt_clust_4="14000.00000" pt_clust_5="49.07440" pt_clust_6="85.14213"></scales>
<clustering>
<clus scale="   49.074">  1  5  2 -1</clus>
<clus scale="   85.142">  2  6  1 -1</clus>
<clus scale="   94.695">  1  3  2 -1</clus>
<clus scale="   49.074">  1  3  2 -1</clus>
</clustering>
</event>
<event>
 6    0  0.3584505E+002  0.7584476E+02  0.7546771E-02  0.1341275E+00
          2   -1    0    0  505    0 -0.00000000000E+00  0.00000000000E+00  0.12474666432E+04  0.12474666432E+04  0.00000000000E+00 0.  1.
         21   -1    0    0  503  502  0.00000000000E+00 -0.00000000000E+00 -0.59139331290E+02  0.59139331290E+02  0.00000000000E+00 0.  1.
         21    1    1    2  503  501 -0.32987990406E+02  0.30351041405E+02  0.26926981404E+03  0.27297550436E+03  0.00000000000E+00 0. -1.
         21    1    1    2  504  502 -0.73233126852E+01  0.72382809072E+02 -0.13408318356E+02  0.73977597684E+02  0.00000000000E+00 0.  1.
         21    1    1    2  505  504  0.74153312755E+02 -0.93961156204E+02  0.25945562170E+03  0.28573524861E+03  0.00000000000E+00 0. -1.
          2    1    1    2  501    0 -0.33842009664E+02 -0.87726942726E+01  0.67301019456E+03  0.67391762387E+03  0.00000000000E+00 0.  1.
<scales pt_clust_3="55.54425" pt_clust_4="14000.00000" pt_clust_5="75.84476" pt_clust_6="34.96057"></scales>
<clustering>
<clus scale="   34.961">  1  6  2 -1</clus>
<clus scale="   55.544">  1  3  2 -1</clus>
<clus scale="   75.845">  1  5  2 -1</clus>
<clus scale="   75.845">  2  3  1 -1</clus>
</clustering>
</event>
<event>
 6    0  0.3584505E+002  0.1295170E+03  0.7546771E-02  0.1228174E+00
         21   -1    0    0  505  502  0.00000000000E+00  0.00000000000E+00  0.69343626082E+02  0.69343626082E+02  0.00000000000E+00 0. -1.
          4   -1    0    0  503    0 -0.00000000000E+00 -0.00000000000E+00 -0.18540934225E+04  0.18540934225E+04  0.00000000000E+00 0. -1.
         21    1    1    2  503  502 -0.22467312429E+02  0.46974192394E+02 -0.37136904394E+03  0.37500176223E+03  0.00000000000E+00 0.  1.
         21    1    1    2  504  501  0.35163982495E+02 -0.87929624876E+02 -0.17935994992E+01  0.94717166315E+02  0.00000000000E+00 0. -1.
         21    1    1    2  505  504 -0.18787516316E+02 -0.31449419416E+02  0.34690000515E+01  0.36797699824E+02  0.00000000000E+00 0. -1.
          4    1    1    2  501    0  0.60908462501E+01  0.72404851899E+02 -0.14150561530E+04  0.14169204202E+04  0.00000000000E+00 0. -1.
<scales pt_clust_3="52.07067" pt_clust_4="32.75698" pt_clust_5="32.75698" pt_clust_6="118.32512"></scales>
<clustering>
<clus scale="   32.757">  4  5 -1 -1</clus>
<clus scale="   52.071">  2  3  1 -1</clus>
<clus scale="  118.325">  2  6  1 -1</clus>
<clus scale="  129.517">  1  3  2 -1</clus>
</clustering>
</event>
<event>
 6    0  0.3584505E+002  0.7748582E+02  0.7546771E-02  0.1336342E+00
         21   -1    0    0  505  502  0.00000000000E+00  0.00000000000E+00  0.24351564495E+03  0.24351564495E+03  0.00000000000E+00 0.  1.
          2   -1    0    0  504    0 -0.00000000000E+00 -0.00000000000E+00 -0.65975558711E+03  0.65975558711E+03  0.00000000000E+00 0.  1.
         21    1    1    2  503  502  0.26659483007E+02  0.62919546171E+02  0.99292372465E+02  0.12053452847E+03  0.00000000000E+00 0.  1.
         21    1    1    2  504  503  0.18381825052E+02 -0.13202937858E+03 -0.73178396479E+02  0.15206816239E+03  0.00000000000E+00 0.  1.
         21    1    1    2  505  501 -0.41364896624E+02  0.82613587612E+01  0.87596440583E+02  0.97223665453E+02  0.00000000000E+00 0.  1.
          2    1    1    2  501    0 -0.36764114349E+01  0.60848473647E+02 -0.52995035872E+03  0.53344487574E+03  0.00000000000E+00 0.  1.
<scales pt_clust_3="77.48582" pt_clust_4="14000.00000" pt_clust_5="42.18181" pt_clust_6="61.08546"></scales>
<clustering>
<clus scale="   42.182">  1  5  2 -1</clus>
<clus scale="   61.085">  2  6  1 -1</clus>
<clus scale="   77.486">  1  3  2 -1</clus>
<clus scale="   42.182">  1  3  2 -1</clus>
</clustering>
</event>
<event>
 6    0  0.3584505E+002  0.6918386E+02  0.7546771E-02  0.1362891E+00
         21   -1    0    0  504  502  0.00000000000E+00  0.00000000000E+00  0.84949579523E+02  0.84949579523E+02  0.00000000000E+00 0. -1.
          2   -1    0    0  503    0 -0.00000000000E+00 -0.00000000000E+00 -0.60713351934E+03  0.60713351934E+03  0.00000000000E+00 0. -1.
         21    1    1    2  503  505 -0.18152804995E+02  0.41557139452E+02 -0.11923553679E+03  0.12756815199E+03  0.00000000000E+00 0. -1.
         21    1    1    2  504  501  0.19659935654E+02  0.42656615698E+02  0.28345585639E+02  0.54859567607E+02  0.00000000000E+00 0. -1.
         21    1    1    2  505  502 -0.81638071202E+02 -0.27814772559E+02 -0.22294257090E+02  0.89081255836E+02  0.00000000000E+00 0.  1.
          2    1    1    2  501    0  0.80130940542E+02 -0.56398982592E+02 -0.40899973157E+03  0.42057412343E+03  0.00000000000E+00 0. -1.
<scales pt_clust_3="45.34887" pt_clust_4="47.80425" pt_clust_5="14000.00000" pt_clust_6="69.18386"></scales>
<clustering>
<clus scale="   45.349">  2  3  1 -1</clus>
<clus scale="   47.804">  1  4  2 -1</clus>
<clus scale="   69.184">  2  6  1 -1</clus>
<clus scale="   47.804">  1  3  2 -1</clus>
</clustering>
</event>
<event>
 6    0  0.3584505E+002  0.1178812E+03  0.7546771E-02  0.1246634E+00
         21   -1    0    0  504  502  0.00000000000E+00  0.00000000000E+00  0.26987780000E+04  0.26987780000E+04  0.00000000000E+00 0. -1.
          1   -1    0    0  505    0 -0.00000000000E+00 -0.00000000000E+00 -0.21289091511E+03  0.21289091511E+03  0.00000000000E+00 0. -1.
         21    1    1    2  503  501 -0.10774470022E+01 -0.10185925179E+03  0.60906450089E+02  0.11868472408E+03  0.00000000000E+00 0.  1.
         21    1    1    2  504  503 -0.23905824534E+02  0.47178253306E+02  0.23744004989E+04  0.23749894748E+04  0.00000000000E+00 0. -1.
         21    1    1    2  505  502 -0.97048068804E+01 -0.62669733646E+02  0.20866079318E+03  0.21808485826E+03  0.00000000000E+00 0.  1.
          1    1    1    2  501    0  0.34688078417E+02  0.11735073213E+03 -0.15808065729E+03  0.19990985800E+03  0.00000000000E+00 0. -1.
<scales pt_clust_3="14000.00000" pt_clust_4="52.88928" pt_clust_5="40.57678" pt_clust_6="117.88117"></scales>
<clustering>
<clus scale="   52.889">  1  4  2 -1</clus>
<clus scale="   40.577">  1  5  2 -1</clus>
<clus scale="  117.881">  2  6  1 -1</clus>
<clus scale="   52.889">  1  3  2 -1</clus>
</clustering>
</event>
<event>
 6    0  0.3584505E+002  0.1111115E+03  0.7546771E-02  0.1258525E+00
          2   -1    0    0  505    0 -0.00000000000E+00  0.00000000000E+00  0.36505464682E+04  0.36505464682E+04  0.00000000000E+00 0.  1.
         21   -1    0    0  503  502  0.00000000000E+00 -0.00000000000E+00 -0.10476229464E+04  0.10476229464E+04  0.00000000000E+00 0.  1.
         21    1    1    2  503  501  0.21397621939E+02  0.60722922323E+02 -0.15040432369E+03  0.16360498802E+03  0.00000000000E+00 0. -1.
         21    1    1    2  504  502 -0.18719193491E+02  0.38596627407E+02 -0.88380230152E+03  0.88484270694E+03  0.00000000000E+00 0.  1.
         21    1    1    2  505  504 -0.11075435720E+03 -0.10456724473E+03  0.11252816015E+04  0.11355437107E+04  0.00000000000E+00 0.  1.
          2    1    1    2  501    0  0.10807592875E+03  0.52476949976E+01  0.25118485456E+04  0.25141780090E+04  0.00000000000E+00 0.  1.
<scales pt_clust_3="97.89059" pt_clust_4="42.89648" pt_clust_5="14000.00000" pt_clust_6="111.11146"></scales>
<clustering>
<clus scale="   42.896">  2  4  1 -1</clus>
<clus scale="   97.891">  2  3  1 -1</clus>
<clus scale="  111.111">  1  6  2 -1</clus>
<clus scale="   42.896">  2  3  1 -1</clus>
</clustering>
</event>
<event>
 6    0  0.3584505E+002  0.8484189E+02  0.7546771E-02  0.1315847E+00
          1   -1    0    0  504    0 -0.00000000000E+00  0.00000000000E+00  0.18446241852E+04  0.18446241852E+04  0.00000000000E+00 0.  1.
         21   -1    0    0  503  502  0.00000000000E+00 -0.00000000000E+00 -0.21305845223E+03  0.21305845223E+03  0.00000000000E+00 0. -1.
         21    1    1    2  503  505  0.12926413113E+02  0.52810103069E+02 -0.17769713152E+03  0.18582860300E+03  0.00000000000E+00 0. -1.
         21    1    1    2  504  502 -0.97603008507E+02 -0.37993109063E+02  0.14605311299E+03  0.17972572276E+03  0.00000000000E+00 0. -1.
         21    1    1    2  505  501  0.61088735939E+02  0.29374371969E+02  0.67595463004E+02  0.95727916544E+02  0.00000000000E+00 0. -1.
          1    1    1    2  501    0  0.23587859455E+02 -0.44191365975E+02  0.15956142885E+04  0.15964003951E+04  0.00000000000E+00 0.  1.
<scales pt_clust_3="53.76163" pt_clust_4="14000.00000" pt_clust_5="84.84189" pt_clust_6="50.09255"></scales>
<clustering>
<clus scale="   50.093">  1  6  2 -1</clus>
<clus scale="   53.762">  2  3  1 -1</clus>
<clus scale="   84.842">  1  5  2 -1</clus>
<clus scale="   53.762">  2  3  1 -1</clus>
</clustering>
</event>
<event>
 6    0  0.3584505E+002  0.7771658E+02  0.7546771E-02  0.1335659E+00
         21   -1    0    0  504  502  0.00000000000E+00  0.00000000000E+00  0.27682625223E+03  0.27682625223E+03  0.00000000000E+00 0. -1.
          2   -1    0    0  503    0 -0.00000000000E+00 -0.00000000000E+00 -0.31656191557E+04  0.31656191557E+04  0.00000000000E+00 0. -1.
         21    1    1    2  503  502 -0.19020359289E+02  0.75510869656E+02  0.26240522619E+03  0.27371548775E+03  0.00000000000E+00 0. -1.
         21    1    1    2  504  505 -0.78676033057E+02 -0.70824709043E+02 -0.10305450941E+04  0.10359677836E+04  0.00000000000E+00 0. -1.
         21    1    1    2  505  501  0.64017162590E+02 -0.27872664872E+01 -0.16781097417E+03  0.17962875330E+03  0.00000000000E+00 0. -1.
          2    1    1    2  501    0  0.33679229756E+02 -0.18988941255E+01 -0.19528420614E+04  0.19531333833E+04  0.00000000000E+00 0. -1.
<scales pt_clust_3="77.71658" pt_clust_4="14000.00000" pt_clust_5="68.90994" pt_clust_6="33.73272"></scales>
<clustering>
<clus scale="   33.733">  2  6  1 -1</clus>
<clus scale="   68.910">  2  5  1 -1</clus>
<clus scale="   77.717">  1  3  2 -1</clus>
<clus scale="   77.717">  1  3  2 -1</clus>
</clustering>
</event>
<event>
 6    0  0.3584505E+002  0.1159040E+03  0.7546771E-02  0.1250011E+00
          2   -1    0    0  505    0 -0.00000000000E+00  0.00000000000E+00  0.88395565109E+03  0.88395565109E+03  0.00000000000E+00 0.  1.
         21   -1    0    0  504  502  0.00000000000E+00 -0.00000000000E+00 -0.18294511545E+03  0.18294511545E+03  0.00000000000E+00 0. -1.
         21    1    1    2  503  502 -0.76909252679E+02 -0.10097733920E+03  0.57207644105E+03  0.58598883145E+03  0.00000000000E+00 0.  1.
         21    1    1    2  504  501  0.53992973635E+02  0.48555759798E+02 -0.14959556703E+03  0.16628811349E+03  0.00000000000E+00 0. -1.
         21    1    1    2  505  503 -0.78313610538E+01 -0.41386047990E+02  0.48081733125E+02  0.63921735305E+02  0.00000000000E+00 0.  1.
          2    1    1    2  501    0  0.30747640098E+02  0.93807627393E+02  0.23044792849E+03  0.25070208630E+03  0.00000000000E+00 0.  1.
<scales pt_clust_3="14000.00000" pt_clust_4="72.27755" pt_clust_5="42.12048" pt_clust_6="115.90404"></scales>
<clustering>
<clus scale="   42.120">  1  5  2 -1</clus>
<clus scale="   72.278">  2  4  1 -1</clus>
<clus scale="  115.904">  2  6  1 -1</clus>
<clus scale="   72.278">  2  3  1 -1</clus>
</clustering>
</event>
<event>
 6    0  0.3584505E+002  0.1326664E+03  0.7546771E-02  0.1223552E+00
          1   -1    0    0  505    0 -0.00000000000E+00  0.00000000000E+00  0.61827147198E+03  0.61827147198E+03  0.00000000000E+00 0.  1.
         21   -1    0    0  503  502  0.00000000000E+00 -0.00000000000E+00 -0.18321553041E+03  0.18321553041E+03  0.00000000000E+00 0.  1.
         21    1    1    2  503  501 -0.73766144166E+02 -0.20792740541E+02 -0.69847810553E+02  0.10369425598E+03  0.00000000000E+00 0.  1.
         21    1    1    2  504  502  0.32808151643E+02  0.42882034877E+02 -0.35660268103E+02  0.64706247385E+02  0.00000000000E+00 0.  1.
         21    1    1    2  505  504 -0.10024737333E+03 -0.20072601506E+02  0.34832590546E+02  0.10800812263E+03  0.00000000000E+00 0. -1.
          1    1    1    2  501    0  0.14120536585E+03 -0.20166928303E+01  0.50573142967E+03  0.52507837639E+03  0.00000000000E+00 0.  1.
<scales pt_clust_3="52.85641" pt_clust_4="53.99300" pt_clust_5="14000.00000" pt_clust_6="132.66635"></scales>
<clustering>
<clus scale="   53.993">  2  4  1 -1</clus>
<clus scale="   52.856">  2  3  1 -1</clus>
<clus scale="  132.666">  1  6  2 -1</clus>
<clus scale="   53.993">  2  3  1 -1</clus>
</clustering>
</event>
<event>
 6    0  0.3584505E+002  0.7761306E+02  0.7546771E-02  0.1335965E+00
          1   -1    0    0  505    0 -0.00000000000E+00  0.00000000000E+00  0.18347356225E+04  0.18347356225E+04  0.00000000000E+00 0. -1.
         21   -1    0    0  503  502  0.00000000000E+00 -0.00000000000E+00 -0.11745850318E+03  0.11745850318E+03  0.00000000000E+00 0.  1.
         21    1    1    2  503  501 -0.41497632834E+02  0.38981307169E+02  0.26663337407E+02  0.62869145065E+02  0.00000000000E+00 0. -1.
         21    1    1    2  504  502  0.21608474544E+02  0.37559097300E+02 -0.88752615779E+02  0.98765574821E+02  0.00000000000E+00 0.  1.
         21    1    1    2  505  504  0.30323910129E+02 -0.12336807619E+03  0.80050159316E+03  0.81051960026E+03  0.00000000000E+00 0. -1.
          1    1    1    2  501    0 -0.10434751839E+02  0.46827671723E+02  0.97886480454E+03  0.98003980555E+03  0.00000000000E+00 0. -1.
<scales pt_clust_3="14000.00000" pt_clust_4="43.33142" pt_clust_5="77.61306" pt_clust_6="48.77387"></scales>
<clustering>
<clus scale="   43.331">  2  4  1 -1</clus>
<clus scale="   48.774">  1  6  2 -1</clus>
<clus scale="   77.613">  1  5  2 -1</clus>
<clus scale="   43.331">  2  3  1 -1</clus>
</clustering>
</event>
<event>
 6    0  0.3584505E+002  0.2340524E+03  0.7546771E-02  0.1123820E+00
          2   -1    0    0  504    0 -0.00000000000E+00  0.00000000000E+00  0.47745765315E+03  0.47745765315E+03  0.00000000000E+00 0.  1.
         21   -1    0    0  503  502  0.00000000000E+00 -0.00000000000E+00 -0.25199111757E+04  0.25199111757E+04  0.00000000000E+00 0. -1.
         21    1    1    2  503  501 -0.39129880418E+02  0.14970574581E+03 -0.49633709308E+02  0.16250065529E+03  0.00000000000E+00 0. -1.
         21    1    1    2  504  505 -0.20424545862E+03 -0.87101604051E+01  0.17074631483E+03  0.26635761354E+03  0.00000000000E+00 0.  1.
         21    1    1    2  505  502  0.20299657342E+03 -0.11981155219E+03 -0.23575169212E+04  0.23692717131E+04  0.00000000000E+00 0. -1.
          2    1    1    2  501    0  0.40378765624E+02 -0.21184033217E+02  0.19395079310E+03  0.19923884692E+03  0.00000000000E+00 0.  1.
<scales pt_clust_3="148.71959" pt_clust_4="234.05237" pt_clust_5="14000.00000" pt_clust_6="45.59833"></scales>
<clustering>
<clus scale="   45.598">  1  6  2 -1</clus>
<clus scale="  148.720">  1  3  2 -1</clus>
<clus scale="  234.052">  1  4  2 -1</clus>
<clus scale="  234.052">  2  3  1 -1</clus>
</clustering>
</event>
<event>
 6    0  0.3584505E+002  0.8034222E+02  0.7546771E-02  0.1328083E+00
         21   -1    0    0  501  502  0.00000000000E+00  0.00000000000E+00  0.11850207816E+03  0.11850207816E+03  0.00000000000E+00 0.  1.
         -1   -1    0    0    0  501 -0.00000000000E+00 -0.00000000000E+00 -0.18893035952E+04  0.18893035952E+04  0.00000000000E+00 0.  1.
         21    1    1    2  503  502 -0.69570904861E+02 -0.29842140020E+02  0.43534449064E+02  0.87326470097E+02  0.00000000000E+00 0.  1.
         21    1    1    2  504  503  0.10114887075E+03 -0.42402674406E+01 -0.26782633907E+02  0.10472050134E+03  0.00000000000E+00 0.  1.
         21    1    1    2  505  504 -0.40559014664E+02  0.69246256382E+02 -0.10186003789E+03  0.12967476629E+03  0.00000000000E+00 0.  1.
         -1    1    1    2    0  505  0.89810487704E+01 -0.35163848921E+02 -0.16856932943E+04  0.16860839356E+04  0.00000000000E+00 0.  1.
<scales pt_clust_3="80.34222" pt_clust_4="14000.00000" pt_clust_5="60.66722" pt_clust_6="36.29264"></scales>
<clustering>
<clus scale="   36.293">  2  6  1 -1</clus>
<clus scale="   60.667">  2  5  1 -1</clus>
<clus scale="   80.342">  1  3  2 -1</clus>
<clus scale="   80.342">  1  3  2 -1</clus>
</clustering>
</event>
<event>
 6    0  0.3584505E+002  0.1484995E+03  0.7546771E-02  0.1202329E+00
          1   -1    0    0  505    0 -0.00000000000E+00  0.00000000000E+00  0.24057095025E+03  0.24057095025E+03  0.00000000000E+00 0.  1.
         21   -1    0    0  504  502  0.00000000000E+00 -0.00000000000E+00 -0.67030938561E+03  0.67030938561E+03  0.00000000000E+00 0. -1.
         21    1    1    2  503  501  0.47301767177E+02 -0.14893910727E+02 -0.11425481384E+03  0.12455299370E+03  0.00000000000E+00 0.  1.
         21    1    1    2  504  503  0.86702718609E+02 -0.48104413810E+02 -0.47358695903E+03  0.48385535422E+03  0.00000000000E+00 0. -1.
         21    1    1    2  505  502 -0.65482989210E+02  0.88681170563E+02 -0.18066800644E+02  0.11170846509E+03  0.00000000000E+00 0. -1.
          1    1    1    2  501    0 -0.68521496575E+02 -0.25682846025E+02  0.17617013815E+03  0.19076352284E+03  0.00000000000E+00 0.  1.
<scales pt_clust_3="36.58934" pt_clust_4="36.58934" pt_clust_5="139.19526" pt_clust_6="73.17653"></scales>
<clustering>
<clus scale="   36.589">  3  4 -1 -1</clus>
<clus scale="   73.177">  1  6  2 -1</clus>
<clus scale="  139.195">  1  5  2 -1</clus>
<clus scale="  148.499">  2  3  1 -1</clus>
</clustering>
</event>
<event>
 6    0  0.3584505E+002  0.1024529E+03  0.7546771E-02  0.1275221E+00
          2   -1    0    0  504    0 -0.00000000000E+00  0.00000000000E+00  0.31711322231E+04  0.31711322231E+04  0.00000000000E+00 0.  1.
         21   -1    0    0  503  502  0.00000000000E+00 -0.00000000000E+00 -0.26940630752E+03  0.26940630752E+03  0.00000000000E+00 0.  1.
         21    1    1    2  503  505 -0.89274774394E+02 -0.62983498365E+02 -0.81271585833E+02  0.13616892844E+03  0.00000000000E+00 0.  1.
         21    1    1    2  504  502  0.42113728830E+02 -0.30487555127E+02 -0.15442504542E+03  0.16294217326E+03  0.00000000000E+00 0.  1.
         21    1    1    2  505  501  0.26686840057E+02  0.61328170892E+02  0.59959603199E+03  0.60331478811E+03  0.00000000000E+00 0.  1.
          2    1    1    2  501    0  0.20474205507E+02  0.32142882599E+02  0.25378265148E+04  0.25381126408E+04  0.00000000000E+00 0.  1.
<scales pt_clust_3="102.45293" pt_clust_4="51.97634" pt_clust_5="14000.00000" pt_clust_6="38.10981"></scales>
<clustering>
<clus scale="   38.110">  1  6  2 -1</clus>
<clus scale="   51.976">  2  4  1 -1</clus>
<clus scale="  102.453">  2  3  1 -1</clus>
<clus scale="   51.976">  2  3  1 -1</clus>
</clustering>
</event>
<event>
 6    0  0.3584505E+002  0.1573261E+03  0.7546771E-02  0.1191749E+00
          2   -1    0    0  504    0 -0.00000000000E+00  0.00000000000E+00  0.32747767651E+04  0.32747767651E+04  0.00000000000E+00 0.  1.
         21   -1    0    0  501  502  0.00000000000E+00 -0.00000000000E+00 -0.89248934383E+03  0.89248934383E+03  0.00000000000E+00 0. -1.
         21    1    1    2  503  505 -0.52680680551E+02 -0.11704228921E+03 -0.51380569139E+02  0.13825380448E+03  0.00000000000E+00 0. -1.
         21    1    1    2  504  503 -0.12009423789E+03  0.10009703101E+03 -0.66344042720E+03  0.68161223730E+03  0.00000000000E+00 0. -1.
         21    1    1    2  505  502  0.15707988151E+02  0.27394534806E+02 -0.12119893252E+03  0.12524529002E+03  0.00000000000E+00 0. -1.
          2    1    1    2  501    0  0.15706693029E+03 -0.10449276605E+02  0.32183073501E+04  0.32221547771E+04  0.00000000000E+00 0.  1.
<scales pt_clust_3="124.47855" pt_clust_4="157.32610" pt_clust_5="31.57850" pt_clust_6="14000.00000"></scales>
<clustering>
<clus scale="   31.578">  2  5  1 -1</clus>
<clus scale="  124.479">  2  3  1 -1</clus>
<clus scale="  157.326">  2  4  1 -1</clus>
<clus scale="   31.578">  2  3  1 -1</clus>
</clustering>
</event>
<event>
 6    0  0.3584505E+002  0.8974818E+02  0.7546771E-02  0.1303463E+00
         21   -1    0    0  503  502  0.00000000000E+00  0.00000000000E+00  0.48820176166E+03  0.48820176166E+03  0.00000000000E+00 0.  1.
          1   -1    0    0  504    0 -0.00000000000E+00 -0.00000000000E+00 -0.24357323909E+04  0.24357323909E+04  0.00000000000E+00 0. -1.
         21    1    1    2  503  505  0.58749592856E+02  0.67689984221E+02  0.46976123266E+03  0.47823536500E+03  0.00000000000E+00 0.  1.
         21    1    1    2  504  502  0.53823973741E+02 -0.27232245482E+02 -0.10847346097E+03  0.12411731175E+03  0.00000000000E+00 0. -1.
         21    1    1    2  505  501 -0.70029789384E+02 -0.74158729906E+02 -0.42821891520E+03  0.44019896406E+03  0.00000000000E+00 0. -1.
          1    1    1    2  501    0 -0.42543777213E+02  0.33700991167E+02 -0.18805994858E+04  0.18813825118E+04  0.00000000000E+00 0. -1.
<scales pt_clust_3="89.74818" pt_clust_4="49.22589" pt_clust_5="14000.00000" pt_clust_6="54.27458"></scales>
<clustering>
<clus scale="   54.275">  2  6  1 -1</clus>
<clus scale="   49.226">  2  4  1 -1</clus>
<clus scale="   89.748">  1  3  2 -1</clus>
<clus scale="   89.748">  1  3  2 -1</clus>
</clustering>
</event>
<event>
 6    0  0.3584505E+002  0.9801414E+02  0.7546771E-02  0.1284528E+00
         21   -1    0    0  504  502  0.00000000000E+00  0.00000000000E+00  0.52291616446E+03  0.52291616446E+03  0.00000000000E+00 0.  1.
         -2   -1    0    0    0  501 -0.00000000000E+00 -0.00000000000E+00 -0.19381411661E+03  0.19381411661E+03  0.00000000000E+00 0.  1.
         21    1    1    2  503  505  0.59134172266E+02 -0.52056712841E+02 -0.58043302833E+02  0.97855897549E+02  0.00000000000E+00 0.  1.
         21    1    1    2  504  501  0.17028696721E+02  0.90923112425E+02  0.32724780061E+03  0.34007074542E+03  0.00000000000E+00 0.  1.
         21    1    1    2  505  502 -0.84430618468E+02 -0.64028908698E+01  0.15574316646E+03  0.17727227715E+03  0.00000000000E+00 0.  1.
         -2    1    1    2    0  503  0.82677494800E+01 -0.32463508714E+02 -0.95845616375E+02  0.10153136096E+03  0.00000000000E+00 0.  1.
<scales pt_clust_3="98.01414" pt_clust_4="14000.00000" pt_clust_5="84.10087" pt_clust_6="33.49978"></scales>
<clustering>
<clus scale="   33.500">  2  6  1 -1</clus>
<clus scale="   84.101">  1  5  2 -1</clus>
<clus scale="   98.014">  2  3  1 -1</clus>
<clus scale="   84.101">  1  3  2 -1</clus>
</clustering>
</event>
<event>
 6    0  0.3584505E+002  0.1033760E+03  0.7546771E-02  0.1273353E+00
          2   -1    0    0  503    0 -0.00000000000E+00  0.00000000000E+00  0.49449723411E+03  0.49449723411E+03  0.00000000000E+00 0.  1.
         21   -1    0    0  505  502  0.00000000000E+00 -0.00000000000E+00 -0.15821631722E+04  0.15821631722E+04  0.00000000000E+00 0.  1.
         21    1    1    2  503  504  0.11530721052E+03  0.51027916898E+01 -0.24291734385E+03  0.26894353910E+03  0.00000000000E+00 0.  1.
         21    1    1    2  504  502 -0.31172803656E+02 -0.52149773696E+02 -0.11930366010E+04  0.11945826359E+04  0.00000000000E+00 0.  1.
         21    1    1    2  505  501 -0.10441196393E+03  0.22479789820E+02 -0.11024477706E+03  0.15349628670E+03  0.00000000000E+00 0. -1.
          2    1    1    2  501    0  0.20277557064E+02  0.24567192186E+02  0.45853278386E+03  0.45963794461E+03  0.00000000000E+00 0.  1.
<scales pt_clust_3="103.37605" pt_clust_4="60.06908" pt_clust_5="14000.00000" pt_clust_6="31.85477"></scales>
<clustering>
<clus scale="   31.855">  1  6  2 -1</clus>
<clus scale="   60.069">  2  4  1 -1</clus>
<clus scale="  103.376">  2  3  1 -1</clus>
<clus scale="   60.069">  2  3  1 -1</clus>
</clustering>
</event>
<event>
 6    0  0.3584505E+002  0.1123370E+03  0.7546771E-02  0.1256302E+00
          2   -1    0    0  504    0 -0.00000000000E+00  0.00000000000E+00  0.33779305657E+04  0.33779305657E+04  0.00000000000E+00 0.  1.
         21   -1    0    0  503  502  0.00000000000E+00 -0.00000000000E+00 -0.23078667851E+02  0.23078667851E+02  0.00000000000E+00 0. -1.
         21    1    1    2  503  501 -0.22448660341E+02  0.26866005460E+02  0.45355014816E+02  0.57295741286E+02  0.00000000000E+00 0.  1.
         21    1    1    2  504  505 -0.57288201544E+02  0.63703507379E+02  0.11647080441E+04  0.11678548296E+04  0.00000000000E+00 0. -1.
         21    1    1    2  505  502  0.12669969972E+03 -0.76332702123E+02  0.34464707191E+03  0.37504812958E+03  0.00000000000E+00 0. -1.
          2    1    1    2  501    0 -0.46962837839E+02 -0.14236810716E+02  0.18001417670E+04  0.18008105331E+04  0.00000000000E+00 0.  1.
<scales pt_clust_3="35.01035" pt_clust_4="14000.00000" pt_clust_5="112.33703" pt_clust_6="49.34493"></scales>
<clustering>
<clus scale="   35.010">  2  3  1 -1</clus>
<clus scale="   49.345">  1  6  2 -1</clus>
<clus scale="  112.337">  2  5  1 -1</clus>
<clus scale="   35.010">  2  3  1 -1</clus>
</clustering>
</event>
<event>
 6    0  0.3584505E+002  0.1341225E+03  0.7546771E-02  0.1221464E+00
         21   -1    0    0  504  502  0.00000000000E+00  0.00000000000E+00  0.24915105474E+03  0.24915105474E+03  0.00000000000E+00 0.  1.
          1   -1    0    0  505    0 -0.00000000000E+00 -0.00000000000E+00 -0.14937780832E+04  0.14937780832E+04  0.00000000000E+00 0.  1.
         21    1    1    2  503  502  0.84203240763E+01 -0.33104280788E+02  0.10784487730E+03  0.11312520861E+03  0.00000000000E+00 0.  1.
         21    1    1    2  504  501 -0.11204258675E+03 -0.63020057371E+02 -0.10854423159E+03  0.16824660201E+03  0.00000000000E+00 0.  1.
         21    1    1    2  505  503  0.52284283941E+02 -0.31791687518E+02  0.96389183251E+02  0.11417194222E+03  0.00000000000E+00 0.  1.
          1    1    1    2  501    0  0.51337978728E+02  0.12791602568E+03 -0.13403168574E+04  0.13473853851E+04  0.00000000000E+00 0.  1.
<scales pt_clust_3="33.87709" pt_clust_4="14000.00000" pt_clust_5="99.76193" pt_clust_6="134.12250"></scales>
<clustering>
<clus scale="   33.877">  3  5 -1 -1</clus>
<clus scale="   99.762">  1  3  2 -1</clus>
<clus scale="  134.123">  2  6  1 -1</clus>
<clus scale="   99.762">  1  3  2 -1</clus>
</clustering>
</event>
<event>
 6    0  0.3584505E+002  0.1088069E+03  0.7546771E-02  0.1262795E+00
          2   -1    0    0  503    0 -0.00000000000E+00  0.00000000000E+00  0.28492302429E+03  0.28492302429E+03  0.00000000000E+00 0. -1.
         21   -1    0    0  505  502  0.00000000000E+00 -0.00000000000E+00 -0.36138197310E+03  0.36138197310E+03  0.00000000000E+00 0. -1.
         21    1    1    2  503  504 -0.13564770207E+03 -0.27083480658E+02  0.45160041185E+02  0.14551028597E+03  0.00000000000E+00 0. -1.
         21    1    1    2  504  502  0.82105127952E+02 -0.22037787747E+02 -0.18218483074E+03  0.20104285283E+03  0.00000000000E+00 0. -1.
         21    1    1    2  505  501  0.27962523808E+02  0.30319916226E+02 -0.11456679535E+03  0.12176514548E+03  0.00000000000E+00 0. -1.
          2    1    1    2  501    0  0.25580050314E+02  0.18801352179E+02  0.17513263609E+03  0.17798671310E+03  0.00000000000E+00 0. -1.
<scales pt_clust_3="14000.00000" pt_clust_4="108.80689" pt_clust_5="42.28113" pt_clust_6="31.74634"></scales>
<clustering>
<clus scale="   31.746">  1  6  2 -1</clus>
<clus scale="   42.281">  2  5  1 -1</clus>
<clus scale="  108.807">  2  4  1 -1</clus>
<clus scale="   42.281">  2  3  1 -1</clus>
</clustering>
</event>
<event>
 6    0  0.3584505E+002  0.9108668E+02  0.7546771E-02  0.1300241E+00
         21   -1    0    0  503  502  0.00000000000E+00  0.00000000000E+00  0.20202512654E+03  0.20202512654E+03  0.00000000000E+00 0. -1.
         -4   -1    0    0    0  501 -0.00000000000E+00 -0.00000000000E+00 -0.12159519037E+04  0.12159519037E+04  0.00000000000E+00 0. -1.
         21    1    1    2  503  504  0.16705172669E+02  0.38094015443E+02  0.15262794029E+03  0.15819451622E+03  0.00000000000E+00 0. -1.
         21    1    1    2  504  505  0.76140323409E+02  0.24065333566E+02 -0.11763540938E+02  0.80714744774E+02  0.00000000000E+00 0. -1.
         21    1    1    2  505  501 -0.82522952085E+02 -0.12212443777E+02 -0.13981509862E+03  0.16281106598E+03  0.00000000000E+00 0. -1.
         -4    1    1    2    0  502 -0.10322543993E+02 -0.49946905231E+02 -0.10149760779E+04  0.10162567033E+04  0.00000000000E+00 0. -1.
<scales pt_clust_3="41.59587" pt_clust_4="91.08668" pt_clust_5="14000.00000" pt_clust_6="50.44368"></scales>
<clustering>
<clus scale="   41.596">  1  3  2 -1</clus>
<clus scale="   50.444">  2  6  1 -1</clus>
<clus scale="   91.087">  1  4  2 -1</clus>
<clus scale="   41.596">  1  3  2 -1</clus>
</clustering>
</event>
<event>
 6    0  0.3584505E+002  0.1586238E+03  0.7546771E-02  0.1190259E+00
         21   -1    0    0  504  502  0.00000000000E+00  0.00000000000E+00  0.15849777812E+03  0.15849777812E+03  0.00000000000E+00 0.  1.
          2   -1    0    0  505    0 -0.00000000000E+00 -0.00000000000E+00 -0.19201559706E+04  0.19201559706E+04  0.00000000000E+00 0.  1.
         21    1    1    2  503  502 -0.13841130557E+02 -0.28970788588E+02 -0.23108239018E+02  0.39558490834E+02  0.00000000000E+00 0.  1.
         21    1    1    2  504  501 -0.38118599523E+02 -0.10880149521E+03  0.93441584309E+02  0.14839852650E+03  0.00000000000E+00 0.  1.
         21    1    1    2  505  503 -0.45850776994E+02  0.11103895668E+02  0.43670082123E+01  0.47377853589E+02  0.00000000000E+00 0.  1.
          2    1    1    2  501    0  0.97810507074E+02  0.12666838813E+03 -0.18363585459E+04  0.18433188777E+04  0.00000000000E+00 0.  1.
<scales pt_clust_3="32.10737" pt_clust_4="14000.00000" pt_clust_5="48.62001" pt_clust_6="158.62382"></scales>
<clustering>
<clus scale="   32.107">  1  3  2 -1</clus>
<clus scale="   48.620">  1  5  2 -1</clus>
<clus scale="  158.624">  2  6  1 -1</clus>
<clus scale="   32.107">  1  3  2 -1</clus>
</clustering>
</event>
<event>
 6    0  0.3584505E+002  0.8737927E+02  0.7546771E-02  0.1309325E+00
          2   -1    0    0  504    0 -0.00000000000E+00  0.00000000000E+00  0.16982779348E+04  0.16982779348E+04  0.00000000000E+00 0.  1.
         21   -1    0    0  505  502  0.00000000000E+00 -0.00000000000E+00 -0.64127870494E+02  0.64127870494E+02  0.00000000000E+00 0. -1.
         21    1    1    2  503  502 -0.29642847119E+02 -0.13137773127E+02 -0.69402096091E+01  0.33158196234E+02  0.00000000000E+00 0. -1.
         21    1    1    2  504  503  0.16781708637E+01 -0.72842863742E+02  0.42399950962E+02  0.84300978032E+02  0.00000000000E+00 0. -1.
         21    1    1    2  505  501 -0.59025147885E+01  0.10547668221E+03  0.99102852688E+02  0.14485007967E+03  0.00000000000E+00 0. -1.
          2    1    1    2  501    0  0.33867191044E+02 -0.19496045335E+02  0.14995874702E+04  0.15000965513E+04  0.00000000000E+00 0.  1.
<scales pt_clust_3="32.42375" pt_clust_4="87.37927" pt_clust_5="14000.00000" pt_clust_6="38.96769"></scales>
<clustering>
<clus scale="   32.424">  2  3  1 -1</clus>
<clus scale="   38.968">  1  6  2 -1</clus>
<clus scale="   87.379">  2  4  1 -1</clus>
<clus scale="   32.424">  2  3  1 -1</clus>
</clustering>
</event>
<event>
 6    0  0.3584505E+002  0.9555926E+02  0.7546771E-02  0.1289921E+00
         21   -1    0    0  503  502  0.00000000000E+00  0.00000000000E+00  0.23469009528E+03  0.23469009528E+03  0.00000000000E+00 0. -1.
          2   -1    0    0  504    0 -0.00000000000E+00 -0.00000000000E+00 -0.36334940218E+04  0.36334940218E+04  0.00000000000E+00 0. -1.
         21    1    1    2  503  505  0.54540263888E+02 -0.17552029221E+02  0.69167647623E+02  0.89815798123E+02  0.00000000000E+00 0. -1.
         21    1    1    2  504  502  0.26929002075E+02 -0.30350067649E+02 -0.29845293745E+03  0.30119836260E+03  0.00000000000E+00 0.  1.
         21    1    1    2  505  501 -0.13591821596E+02  0.10415647340E+03  0.13523752992E+03  0.17123813263E+03  0.00000000000E+00 0. -1.
          2    1    1    2  501    0 -0.67877444366E+02 -0.56254376528E+02 -0.33047561666E+04  0.33059318238E+04  0.00000000000E+00 0. -1.
<scales pt_clust_3="57.40319" pt_clust_4="40.57459" pt_clust_5="95.55926" pt_clust_6="14000.00000"></scales>
<clustering>
<clus scale="   40.575">  2  4  1 -1</clus>
<clus scale="   57.403">  1  3  2 -1</clus>
<clus scale="   95.559">  1  5  2 -1</clus>
<clus scale="   57.403">  1  3  2 -1</clus>
</clustering>
</event>
<event>
 6    0  0.3584505E+002  0.1521262E+03  0.7546771E-02  0.1197884E+00
          2   -1    0    0  503    0 -0.00000000000E+00  0.00000000000E+00  0.21193974768E+04  0.21193974768E+04  0.00000000000E+00 0.  1.
         21   -1    0    0  505  502  0.00000000000E+00 -0.00000000000E+00 -0.53476135289E+02  0.53476135289E+02  0.00000000000E+00 0.  1.
         21    1    1    2  503  502 -0.52090526302E+02  0.53569941410E+00  0.22124419986E+02  0.56596818497E+02  0.00000000000E+00 0.  1.
         21    1    1    2  504  501  0.15495660922E+03  0.83217957431E+02  0.61050306933E+03  0.63533516890E+03  0.00000000000E+00 0.  1.
         21    1    1    2  505  504 -0.94936582420E+01  0.30983313948E+02 -0.69322685961E+01  0.33138371081E+02  0.00000000000E+00 0.  1.
          2    1    1    2  501    0 -0.93372424674E+02 -0.11473697079E+03  0.14402261208E+04  0.14478032536E+04  0.00000000000E+00 0.  1.
<scales pt_clust_3="59.32601" pt_clust_4="152.12616" pt_clust_5="32.40517" pt_clust_6="14000.00000"></scales>
<clustering>
<clus scale="   32.405">  2  5  1 -1</clus>
<clus scale="   59.326">  2  3  1 -1</clus>
<clus scale="  152.126">  2  4  1 -1</clus>
<clus scale="   32.405">  2  3  1 -1</clus>
</clustering>
</event>
<event>
 6    0  0.3584505E+002  0.1034790E+03  0.7546771E-02  0.1273146E+00
         21   -1    0    0  503  502  0.00000000000E+00  0.00000000000E+00  0.32076938975E+03  0.32076938975E+03  0.00000000000E+00 0. -1.
         -4   -1    0    0    0  501 -0.00000000000E+00 -0.00000000000E+00 -0.50702727960E+03  0.50702727960E+03  0.00000000000E+00 0. -1.
         21    1    1    2  503  501  0.30492971417E+02 -0.28013600709E+01  0.16599783522E+02  0.34831332691E+02  0.00000000000E+00 0.  1.
         21    1    1    2  504  502 -0.68677379979E+02 -0.74795151041E+02  0.17790439728E+03  0.20484352982E+03  0.00000000000E+00 0. -1.
         21    1    1    2  505  504  0.24480991973E+02  0.14247076306E+03  0.49486152383E+02  0.15279436041E+03  0.00000000000E+00 0. -1.
         -4    1    1    2    0  505  0.13703416588E+02 -0.64874251950E+02 -0.43024822303E+03  0.43532744642E+03  0.00000000000E+00 0. -1.
<scales pt_clust_3="30.62138" pt_clust_4="14000.00000" pt_clust_5="103.47900" pt_clust_6="66.38406"></scales>
<clustering>
<clus scale="   30.621">  1  3  2 -1</clus>
<clus scale="   66.384">  2  6  1 -1</clus>
<clus scale="  103.479">  2  5  1 -1</clus>
<clus scale="   30.621">  1  3  2 -1</clus>
</clustering>
</event>
<event>
 6    0  0.3584505E+002  0.1426756E+03  0.7546771E-02  0.1209773E+00
         21   -1    0    0  504  502  0.00000000000E+00  0.00000000000E+00  0.20403015422E+03  0.20403015422E+03  0.00000000000E+00 0.  1.
          2   -1    0    0  505    0 -0.00000000000E+00 -0.00000000000E+00 -0.88444921489E+03  0.88444921489E+03  0.00000000000E+00 0.  1.
         21    1    1    2  503  502  0.53333244863E+02 -0.33162227949E+02 -0.32312290370E+02  0.70627561753E+02  0.00000000000E+00 0. -1.
         21    1    1    2  504  501  0.55155048818E+02  0.17084314391E+03  0.88037317561E+02  0.19995006506E+03  0.00000000000E+00 0.  1.
         21    1    1    2  505  503 -0.94228710879E+02 -0.65856820692E+02 -0.45902671399E+02  0.12378701882E+03  0.00000000000E+00 0.  1.
          2    1    1    2  501    0 -0.14259582801E+02 -0.71824095273E+02 -0.69024141646E+03  0.69411472349E+03  0.00000000000E+00 0.  1.
<scales pt_clust_3="62.80261" pt_clust_4="14000.00000" pt_clust_5="142.67559" pt_clust_6="73.46045"></scales>
<clustering>
<clus scale="   62.803">  1  3  2 -1</clus>
<clus scale="   73.460">  2  6  1 -1</clus>
<clus scale="  142.676">  2  5  1 -1</clus>
<clus scale="   62.803">  1  3  2 -1</clus>
</clustering>
</event>
<event>
 6    0  0.3584505E+002  0.8878331E+02  0.7546771E-02  0.1305825E+00
          1   -1    0    0  504    0 -0.00000000000E+00  0.00000000000E+00  0.44725303217E+03  0.44725303217E+03  0.00000000000E+00 0.  1.
         21   -1    0    0  503  502  0.00000000000E+00 -0.00000000000E+00 -0.23621983415E+03  0.23621983415E+03  0.00000000000E+00 0. -1.
         21    1    1    2  503  501 -0.33372292228E+02 -0.10753494004E+03  0.80338086168E+02  0.13831732107E+03  0.00000000000E+00 0.  1.
         21    1    1    2  504  505  0.40928645485E+02  0.71579742112E+02  0.50524543649E+02  0.96703376430E+02  0.00000000000E+00 0.  1.
         21    1    1    2  505  502 -0.35942499543E+02 -0.85518103963E+01 -0.17960584931E+03  0.18336645779E+03  0.00000000000E+00 0. -1.
          1    1    1    2  501    0  0.28386146286E+02  0.44507008326E+02  0.25977641752E+03  0.26508571103E+03  0.00000000000E+00 0.  1.
<scales pt_clust_3="88.78331" pt_clust_4="14000.00000" pt_clust_5="36.94586" pt_clust_6="51.51669"></scales>
<clustering>
<clus scale="   36.946">  2  5  1 -1</clus>
<clus scale="   51.517">  1  6  2 -1</clus>
<clus scale="   88.783">  1  3  2 -1</clus>
<clus scale="   36.946">  2  3  1 -1</clus>
</clustering>
</event>
<event>
 6    0  0.3584505E+002  0.9605213E+02  0.7546771E-02  0.1288824E+00
         21   -1    0    0  505  502  0.00000000000E+00  0.00000000000E+00  0.77284821883E+03  0.77284821883E+03  0.00000000000E+00 0. -1.
          1   -1    0    0  503    0 -0.00000000000E+00 -0.00000000000E+00 -0.23545730507E+04  0.23545730507E+04  0.00000000000E+00 0. -1.
         21    1    1    2  503  504 -0.34811419458E+02  0.36685470053E+02  0.17046419490E+01  0.50602020136E+02  0.00000000000E+00 0.  1.
         21    1    1    2  504  502 -0.52739071031E+02 -0.56275595475E+02 -0.11545325363E+02  0.77984913907E+02  0.00000000000E+00 0.  1.
         21    1    1    2  505  501  0.80248850994E+02  0.55525208877E+02  0.70999028474E+03  0.71666528542E+03  0.00000000000E+00 0. -1.
          1    1    1    2  501    0  0.73016394951E+01 -0.35935083455E+02 -0.22818744332E+04  0.22821690500E+04  0.00000000000E+00 0. -1.
<scales pt_clust_3="40.62701" pt_clust_4="96.05213" pt_clust_5="14000.00000" pt_clust_6="36.66939"></scales>
<clustering>
<clus scale="   36.669">  2  6  1 -1</clus>
<clus scale="   40.627">  2  3  1 -1</clus>
<clus scale="   96.052">  2  4  1 -1</clus>
<clus scale="   96.052">  1  3  2 -1</clus>
</clustering>
</event>
<event>
 6    0  0.3584505E+002  0.8103483E+02  0.7546771E-02  0.1326140E+00
          2   -1    0    0  504    0 -0.00000000000E+00  0.00000000000E+00  0.73888412333E+03  0.73888412333E+03  0.00000000000E+00 0.  1.
         21   -1    0    0  503  502  0.00000000000E+00 -0.00000000000E+00 -0.67967854965E+03  0.67967854965E+03  0.00000000000E+00 0. -1.
         21    1    1    2  503  501 -0.64705566452E+02  0.67414755425E+02 -0.15248275687E+03  0.17883665934E+03  0.00000000000E+00 0. -1.
         21    1    1    2  504  505  0.10921949919E+03  0.64503243572E+02  0.22770144764E+03  0.26064826240E+03  0.00000000000E+00 0. -1.
         21    1    1    2  505  502 -0.13611396275E+02 -0.79157948370E+02 -0.49233692087E+03  0.49884556182E+03  0.00000000000E+00 0. -1.
          2    1    1    2  501    0 -0.30902536465E+02 -0.52760050627E+02  0.47632380378E+03  0.48023218941E+03  0.00000000000E+00 0.  1.
<scales pt_clust_3="14000.00000" pt_clust_4="79.89813" pt_clust_5="81.03483" pt_clust_6="61.14401"></scales>
<clustering>
<clus scale="   61.144">  1  6  2 -1</clus>
<clus scale="   81.035">  2  5  1 -1</clus>
<clus scale="   79.898">  1  4  2 -1</clus>
<clus scale="   81.035">  2  3  1 -1</clus>
</clustering>
</event>
<event>
 6    0  0.3584505E+002  0.1463203E+03  0.7546771E-02  0.1205069E+00
          2   -1    0    0  505    0 -0.00000000000E+00  0.00000000000E+00  0.23294189979E+04  0.23294189979E+04  0.00000000000E+00 0. -1.
         21   -1    0    0  503  502  0.00000000000E+00 -0.00000000000E+00 -0.37771003058E+02  0.37771003058E+02  0.00000000000E+00 0. -1.
         21    1    1    2  503  501  0.31259409726E+02  0.21035316068E+02  0.10626474442E+03  0.11274675661E+03  0.00000000000E+00 0.  1.
         21    1    1    2  504  502 -0.59183498609E+02  0.13988193823E+03  0.18514834624E+03  0.23947766757E+03  0.00000000000E+00 0. -1.
         21    1    1    2  505  504  0.10396700713E+03 -0.74852833077E+02  0.10094575308E+04  0.10175542205E+04  0.00000000000E+00 0. -1.
          2    1    1    2  501    0 -0.76042918242E+02 -0.86064421217E+02  0.99077737332E+03  0.99741135621E+03  0.00000000000E+00 0. -1.
<scales pt_clust_3="37.67805" pt_clust_4="14000.00000" pt_clust_5="146.32034" pt_clust_6="111.34724"></scales>
<clustering>
<clus scale="   37.678">  2  3  1 -1</clus>
<clus scale="  111.347">  1  6  2 -1</clus>
<clus scale="  146.320">  1  5  2 -1</clus>
<clus scale="   37.678">  2  3  1 -1</clus>
</clustering>
</event>
<event>
 6    0  0.3584505E+002  0.2995465E+03  0.7546771E-02  0.1085468E+00
          2   -1    0    0  502    0 -0.00000000000E+00  0.00000000000E+00  0.11473213854E+04  0.11473213854E+04  0.00000000000E+00 0. -1.
         21   -1    0    0  503  502  0.00000000000E+00 -0.00000000000E+00 -0.21871207414E+04  0.21871207414E+04  0.00000000000E+00 0.  1.
         21    1    1    2  503  505  0.81342992598E+01  0.35866504744E+02 -0.51081297940E+03  0.51213520960E+03  0.00000000000E+00 0. -1.
         21    1    1    2  504  501 -0.19351747118E+03 -0.27713698759E+03  0.41631157549E+02  0.34056875197E+03  0.00000000000E+00 0.  1.
         21    1    1    2  505  504  0.17466025627E+03  0.20161424005E+03 -0.15140717899E+04  0.15373899609E+04  0.00000000000E+00 0.  1.
          2    1    1    2  501    0  0.10722915650E+02  0.39656242795E+02  0.94345425573E+03  0.94434820441E+03  0.00000000000E+00 0. -1.
<scales pt_clust_3="36.77734" pt_clust_4="299.54654" pt_clust_5="14000.00000" pt_clust_6="41.09019"></scales>
<clustering>
<clus scale="   36.777">  2  3  1 -1</clus>
<clus scale="   41.090">  1  6  2 -1</clus>
<clus scale="  299.547">  1  4  2 -1</clus>
<clus scale="   36.777">  2  3  1 -1</clus>
</clustering>
</event>
<event>
 6    0  0.3584505E+002  0.3761121E+03  0.7546771E-02  0.1052380E+00
         21   -1    0    0  505  502  0.00000000000E+00  0.00000000000E+00  0.12561809703E+04  0.12561809703E+04  0.00000000000E+00 0.  1.
          4   -1    0    0  502    0 -0.00000000000E+00 -0.00000000000E+00 -0.78471558321E+03  0.78471558321E+03  0.00000000000E+00 0.  1.
         21    1    1    2  503  501  0.50102713072E+02  0.88418222453E+02 -0.45419419300E+02  0.11131481289E+03  0.00000000000E+00 0. -1.
         21    1    1    2  504  503 -0.25640424580E+03  0.23240401608E+03 -0.14062398235E+03  0.37353697055E+03  0.00000000000E+00 0. -1.
         21    1    1    2  505  504  0.17861915241E+03 -0.33809328562E+03  0.10730917394E+04  0.11391829320E+04  0.00000000000E+00 0.  1.
          4    1    1    2  501    0  0.27682380324E+02  0.17271047082E+02 -0.41558295061E+03  0.41686183812E+03  0.00000000000E+00 0.  1.
<scales pt_clust_3="107.77600" pt_clust_4="14000.00000" pt_clust_5="376.11214" pt_clust_6="32.62826"></scales>
<clustering>
<clus scale="   32.628">  2  6  1 -1</clus>
<clus scale="  107.776">  2  3  1 -1</clus>
<clus scale="  376.112">  1  5  2 -1</clus>
<clus scale="  376.112">  1  3  2 -1</clus>
</clustering>
</event>
<event>
 6    0  0.3584505E+002  0.1281830E+03  0.7546771E-02  0.1230177E+00
         21   -1    0    0  504  502  0.00000000000E+00  0.00000000000E+00  0.91425900895E+02  0.91425900895E+02  0.00000000000E+00 0. -1.
          1   -1    0    0  503    0 -0.00000000000E+00 -0.00000000000E+00 -0.24639829818E+04  0.24639829818E+04  0.00000000000E+00 0.  1.
         21    1    1    2  503  505  0.74579881260E+02 -0.44212448249E+02 -0.63375536436E+02  0.10739347228E+03  0.00000000000E+00 0. -1.
         21    1    1    2  504  501 -0.12550755289E+03  0.25571291838E+02 -0.73782137904E+03  0.74885674476E+03  0.00000000000E+00 0.  1.
         21    1    1    2  505  502  0.44253649981E+02 -0.48777134568E+02  0.46029231793E+02  0.80351008536E+02  0.00000000000E+00 0. -1.
          1    1    1    2  501    0  0.66740216540E+01  0.67418290979E+02 -0.16173893972E+04  0.16188076571E+04  0.00000000000E+00 0.  1.
<scales pt_clust_3="128.18305" pt_clust_4="14000.00000" pt_clust_5="65.86042" pt_clust_6="66.64955"></scales>
<clustering>
<clus scale="   65.860">  1  5  2 -1</clus>
<clus scale="   66.650">  2  6  1 -1</clus>
<clus scale="  128.183">  1  3  2 -1</clus>
<clus scale="   65.860">  1  3  2 -1</clus>
</clustering>
</event>
<event>
 6    0  0.3584505E+002  0.1088405E+03  0.7546771E-02  0.1262732E+00
          2   -1    0    0  503    0 -0.00000000000E+00  0.00000000000E+00  0.40024201746E+03  0.40024201746E+03  0.00000000000E+00 0. -1.
         21   -1    0    0  505  502  0.00000000000E+00 -0.00000000000E+00 -0.16703328774E+03  0.16703328774E+03  0.00000000000E+00 0. -1.
         21    1    1    2  503  504 -0.30633527773E+02  0.11792579861E+03  0.26036794587E+02  0.12459061632E+03  0.00000000000E+00 0. -1.
         21    1    1    2  504  502 -0.19857878257E+02  0.30916957540E+02 -0.87366732247E+02  0.94779425489E+02  0.00000000000E+00 0. -1.
         21    1    1    2  505  501  0.21558002197E+02 -0.46656183124E+02  0.22945250479E+02  0.56285268072E+02  0.00000000000E+00 0. -1.
          2    1    1    2  501    0  0.28933403833E+02 -0.10218657303E+03  0.27159341690E+03  0.29161999532E+03  0.00000000000E+00 0. -1.
<scales pt_clust_3="108.84049" pt_clust_4="36.74498" pt_clust_5="43.42300" pt_clust_6="14000.00000"></scales>
<clustering>
<clus scale="   36.745">  2  4  1 -1</clus>
<clus scale="   43.423">  2  5  1 -1</clus>
<clus scale="  108.840">  2  3  1 -1</clus>
<clus scale="   36.745">  2  3  1 -1</clus>
</clustering>
</event>
<event>
 6    0  0.3584505E+002  0.1136012E+03  0.7546771E-02  0.1254043E+00
         21   -1    0    0  503  502  0.00000000000E+00  0.00000000000E+00  0.41211587359E+03  0.41211587359E+03  0.00000000000E+00 0.  1.
          4   -1    0    0  504    0 -0.00000000000E+00 -0.00000000000E+00 -0.13120482083E+03  0.13120482083E+03  0.00000000000E+00 0.  1.
         21    1    1    2  503  505  0.48940952849E+02  0.10342869439E+03  0.31615772456E+03  0.33622673673E+03  0.00000000000E+00 0.  1.
         21    1    1    2  504  502 -0.73062051376E+02 -0.86062926856E+02  0.19249329994E+02  0.11452260666E+03  0.00000000000E+00 0.  1.
         21    1    1    2  505  501  0.70283404758E+01 -0.42534322273E+02 -0.23335962088E+02  0.49021763204E+02  0.00000000000E+00 0.  1.
          4    1    1    2  501    0  0.17092758052E+02  0.25168554738E+02 -0.31160039709E+02  0.43549587829E+02  0.00000000000E+00 0.  1.
<scales pt_clust_3="14000.00000" pt_clust_4="113.60119" pt_clust_5="35.54396" pt_clust_6="30.42398"></scales>
<clustering>
<clus scale="   30.424">  2  6  1 -1</clus>
<clus scale="   35.544">  2  5  1 -1</clus>
<clus scale="  113.601">  2  4  1 -1</clus>
<clus scale="  113.601">  1  3  2 -1</clus>
</clustering>
</event>
<event>
 6    0  0.3584505E+002  0.1141472E+03  0.7546771E-02  0.1253077E+00
          2   -1    0    0  502    0 -0.00000000000E+00  0.00000000000E+00  0.23698445965E+04  0.23698445965E+04  0.00000000000E+00 0.  1.
         21   -1    0    0  503  502  0.00000000000E+00 -0.00000000000E+00 -0.12000479027E+03  0.12000479027E+03  0.00000000000E+00 0. -1.
         21    1    1    2  503  504  0.35705995059E+01 -0.10411703964E+03 -0.45940722328E+02  0.11385805677E+03  0.00000000000E+00 0. -1.
         21    1    1    2  504  505 -0.11917320931E+03  0.10677903169E+03  0.13205133726E+03  0.20746462614E+03  0.00000000000E+00 0. -1.
         21    1    1    2  505  501  0.10148381701E+03  0.24744998928E+02  0.12782436726E+04  0.12825046458E+04  0.00000000000E+00 0.  1.
          2    1    1    2  501    0  0.14118792792E+02 -0.27406990981E+02  0.88548551869E+03  0.88602205801E+03  0.00000000000E+00 0.  1.
<scales pt_clust_3="104.81651" pt_clust_4="114.14720" pt_clust_5="14000.00000" pt_clust_6="30.82991"></scales>
<clustering>
<clus scale="   30.830">  1  6  2 -1</clus>
<clus scale="  104.817">  2  3  1 -1</clus>
<clus scale="  114.147">  2  4  1 -1</clus>
<clus scale="  104.817">  2  3  1 -1</clus>
</clustering>
</event>
<event>
 6    0  0.3584505E+002  0.9174905E+02  0.7546771E-02  0.1298671E+00
          1   -1    0    0  503    0 -0.00000000000E+00  0.00000000000E+00  0.19020345235E+04  0.19020345235E+04  0.00000000000E+00 0. -1.
         21   -1    0    0  505  502  0.00000000000E+00 -0.00000000000E+00 -0.17231051928E+03  0.17231051928E+03  0.00000000000E+00 0. -1.
         21    1    1    2  503  504 -0.65314048085E+02  0.30206052074E+02  0.32873907681E+02  0.79113995382E+02  0.00000000000E+00 0. -1.
         21    1    1    2  504  502 -0.41334778594E+02 -0.57228308243E+02 -0.11176368348E+03  0.13219214852E+03  0.00000000000E+00 0. -1.
         21    1    1    2  505  501  0.11497204013E+03 -0.22556715555E+02  0.10100790092E+03  0.15469315265E+03  0.00000000000E+00 0. -1.
          1    1    1    2  501    0 -0.83232134492E+01  0.49578971723E+02  0.17076058791E+04  0.17083457462E+04  0.00000000000E+00 0. -1.
<scales pt_clust_3="14000.00000" pt_clust_4="68.76175" pt_clust_5="91.74905" pt_clust_6="50.27276"></scales>
<clustering>
<clus scale="   50.273">  1  6  2 -1</clus>
<clus scale="   68.762">  2  4  1 -1</clus>
<clus scale="   91.749">  1  5  2 -1</clus>
<clus scale="   68.762">  2  3  1 -1</clus>
</clustering>
</event>
<event>
 6    0  0.3584505E+002  0.9587872E+02  0.7546771E-02  0.1289209E+00
          2   -1    0    0  505    0 -0.00000000000E+00  0.00000000000E+00  0.84184840986E+03  0.84184840986E+03  0.00000000000E+00 0. -1.
         21   -1    0    0  501  502  0.00000000000E+00 -0.00000000000E+00 -0.16058299799E+04  0.16058299799E+04  0.00000000000E+00 0. -1.
         21    1    1    2  503  504 -0.67181172501E+02  0.13776464875E+03 -0.47678337197E+03  0.50081412936E+03  0.00000000000E+00 0. -1.
         21    1    1    2  504  502  0.44532153905E+02 -0.44873483596E+02 -0.11105065630E+04  0.11123046204E+04  0.00000000000E+00 0. -1.
         21    1    1    2  505  503 -0.94039201817E+01 -0.83624709341E+02  0.34599571805E+03  0.35608224139E+03  0.00000000000E+00 0. -1.
          2    1    1    2  501    0  0.32052938778E+02 -0.92664558078E+01  0.47731264685E+03  0.47847739856E+03  0.00000000000E+00 0. -1.
<scales pt_clust_3="14000.00000" pt_clust_4="63.29183" pt_clust_5="95.87872" pt_clust_6="33.36552"></scales>
<clustering>
<clus scale="   33.366">  1  6  2 -1</clus>
<clus scale="   63.292">  2  4  1 -1</clus>
<clus scale="   95.879">  1  5  2 -1</clus>
<clus scale="   63.292">  2  3  1 -1</clus>
</clustering>
</event>
<event>
 6    0  0.3584505E+002  0.7733601E+02  0.7546771E-02  0.1336786E+00
         21   -1    0    0  501  502  0.00000000000E+00  0.00000000000E+00  0.14608896554E+03  0.14608896554E+03  0.00000000000E+00 0.  1.
          1   -1    0    0  505    0 -0.00000000000E+00 -0.00000000000E+00 -0.30342897863E+04  0.30342897863E+04  0.00000000000E+00 0.  1.
         21    1    1    2  503  504 -0.15831224177E+02  0.56188951494E+02 -0.14929629768E+03  0.16030349475E+03  0.00000000000E+00 0.  1.
         21    1    1    2  504  502 -0.30927046582E+02 -0.11725557211E+02  0.12781397388E+03  0.13202417514E+03  0.00000000000E+00 0.  1.
         21    1    1    2  505  503 -0.18662214619E+02 -0.87047096418E+02 -0.18611302796E+03  0.20630931735E+03  0.00000000000E+00 0.  1.
          1    1    1    2  501    0  0.65420485378E+02  0.42583702135E+02 -0.26806054690E+04  0.26817417646E+04  0.00000000000E+00 0.  1.
<scales pt_clust_3="58.47526" pt_clust_4="33.07523" pt_clust_5="77.33601" pt_clust_6="14000.00000"></scales>
<clustering>
<clus scale="   33.075">  1  4  2 -1</clus>
<clus scale="   58.475">  1  3  2 -1</clus>
<clus scale="   77.336">  1  5  2 -1</clus>
<clus scale="   33.075">  1  3  2 -1</clus>
</clustering>
</event>
<event>
 6    0  0.3584505E+002  0.9390460E+02  0.7546771E-02  0.1293662E+00
         21   -1    0    0  505  502  0.00000000000E+00  0.00000000000E+00  0.83322319182E+02  0.83322319182E+02  0.00000000000E+00 0.  1.
         -4   -1    0    0    0  501 -0.00000000000E+00 -0.00000000000E+00 -0.55288411060E+03  0.55288411060E+03  0.00000000000E+00 0. -1.
         21    1    1    2  503  504  0.83131134939E+02  0.11132401628E+02 -0.12670802972E+03  0.15195275831E+03  0.00000000000E+00 0. -1.
         21    1    1    2  504  502  0.50806243064E+02  0.30284613839E+02  0.28893539607E+01  0.59218076092E+02  0.00000000000E+00 0. -1.
         21    1    1    2  505  501 -0.12744138140E+03  0.10120041056E+02 -0.72644184771E+02  0.14704046553E+03  0.00000000000E+00 0.  1.
         -4    1    1    2    0  503 -0.64959966064E+01 -0.51537056523E+02 -0.27309893089E+03  0.27799512985E+03  0.00000000000E+00 0. -1.
<scales pt_clust_3="93.90460" pt_clust_4="56.05554" pt_clust_5="14000.00000" pt_clust_6="51.94484"></scales>
<clustering>
<clus scale="   51.945">  2  6  1 -1</clus>
<clus scale="   56.056">  1  4  2 -1</clus>
<clus scale="   93.905">  2  3  1 -1</clus>
<clus scale="   56.056">  1  3  2 -1</clus>
</clustering>
</event>
<event>
 6    0  0.3584505E+002  0.1640485E+03  0.7546771E-02  0.1184200E+00
         21   -1    0    0  504  502  0.00000000000E+00  0.00000000000E+00  0.12597076052E+04  0.12597076052E+04  0.00000000000E+00 0.  1.
          2   -1    0    0  503    0 -0.00000000000E+00 -0.00000000000E+00 -0.20540827245E+04  0.20540827245E+04  0.00000000000E+00 0.  1.
         21    1    1    2  503  505 -0.13151951021E+02  0.69477041014E+02 -0.12028265887E+04  0.12049032474E+04  0.00000000000E+00 0.  1.
         21    1    1    2  504  501 -0.12677167289E+03 -0.10442540697E+03  0.11192364207E+04  0.11312231823E+04  0.00000000000E+00 0.  1.
         21    1    1    2  505  502  0.17601598895E+03  0.38317906020E+02  0.72033220257E+02  0.19400689448E+03  0.00000000000E+00 0. -1.
          2    1    1    2  501    0 -0.36092365042E+02 -0.33695400651E+01 -0.78281817160E+03  0.78365700558E+03  0.00000000000E+00 0.  1.
<scales pt_clust_3="81.45541" pt_clust_4="164.04854" pt_clust_5="14000.00000" pt_clust_6="36.24931"></scales>
<clustering>
<clus scale="   36.249">  2  6  1 -1</clus>
<clus scale="   81.455">  2  3  1 -1</clus>
<clus scale="  164.049">  1  4  2 -1</clus>
<clus scale="  164.049">  1  3  2 -1</clus>
</clustering>
</event>
<event>
 6    0  0.3584505E+002  0.1185444E+03  0.7546771E-02  0.1245518E+00
          2   -1    0    0  503    0 -0.00000000000E+00  0.00000000000E+00  0.16798551944E+04  0.16798551944E+04  0.00000000000E+00 0.  1.
         21   -1    0    0  504  502  0.00000000000E+00 -0.00000000000E+00 -0.26933363480E+02  0.26933363480E+02  0.00000000000E+00 0.  1.
         21    1    1    2  503  502 -0.18252741891E+02 -0.40705927999E+02  0.55148615045E+02  0.70933101597E+02  0.00000000000E+00 0.  1.
         21    1    1    2  504  505  0.55897052270E+02 -0.47562621799E+02  0.30982674894E+03  0.31840115861E+03  0.00000000000E+00 0. -1.
         21    1    1    2  505  501 -0.14369074874E+03  0.43993052966E+02  0.53176972145E+03  0.55259520142E+03  0.00000000000E+00 0.  1.
          2    1    1    2  501    0  0.10604643836E+03  0.44275496832E+02  0.75617674550E+03  0.76485909627E+03  0.00000000000E+00 0.  1.
<scales pt_clust_3="44.61093" pt_clust_4="76.81126" pt_clust_5="118.54442" pt_clust_6="14000.00000"></scales>
<clustering>
<clus scale="   44.611">  2  3  1 -1</clus>
<clus scale="   76.811">  2  4  1 -1</clus>
<clus scale="  118.544">  2  5  1 -1</clus>
<clus scale="   44.611">  2  3  1 -1</clus>
</clustering>
</event>
<event>
 6    0  0.3584505E+002  0.9296813E+02  0.7546771E-02  0.1295819E+00
         21   -1    0    0  505  502  0.00000000000E+00  0.00000000000E+00  0.59042585112E+02  0.59042585112E+02  0.00000000000E+00 0. -1.
          1   -1    0    0  503    0 -0.00000000000E+00 -0.00000000000E+00 -0.12309630332E+04  0.12309630332E+04  0.00000000000E+00 0. -1.
         21    1    1    2  503  502  0.62169576113E+02 -0.65231498628E+02 -0.45584120614E+02  0.10098572503E+03  0.00000000000E+00 0. -1.
         21    1    1    2  504  501 -0.39480302525E+02 -0.75690466988E+01 -0.47192180247E+02  0.61992633690E+02  0.00000000000E+00 0. -1.
         21    1    1    2  505  504  0.30089693926E+02 -0.40760241651E+01  0.11451577928E+02  0.32452153867E+02  0.00000000000E+00 0. -1.
          1    1    1    2  501    0 -0.52778967514E+02  0.76876569492E+02 -0.10905957252E+04  0.10945751058E+04  0.00000000000E+00 0. -1.
<scales pt_clust_3="92.96813" pt_clust_4="34.51037" pt_clust_5="30.36451" pt_clust_6="14000.00000"></scales>
<clustering>
<clus scale="   30.365">  1  5  2 -1</clus>
<clus scale="   34.510">  1  4  2 -1</clus>
<clus scale="   92.968">  1  3  2 -1</clus>
<clus scale="   30.365">  1  3  2 -1</clus>
</clustering>
</event>
<event>
 6    0  0.3584505E+002  0.1064197E+03  0.7546771E-02  0.1267347E+00
         21   -1    0    0  505  502  0.00000000000E+00  0.00000000000E+00  0.33628176782E+03  0.33628176782E+03  0.00000000000E+00 0.  1.
          1   -1    0    0  504    0 -0.00000000000E+00 -0.00000000000E+00 -0.64624357362E+03  0.64624357362E+03  0.00000000000E+00 0. -1.
         21    1    1    2  503  502  0.95721247036E+02 -0.49746587892E+02  0.29283271597E+03  0.31207095297E+03  0.00000000000E+00 0.  1.
         21    1    1    2  504  503 -0.18092722242E+02 -0.48154569747E+02 -0.21168226368E+02  0.55626459471E+02  0.00000000000E+00 0.  1.
         21    1    1    2  505  501 -0.84086055606E+02  0.22581013028E+02 -0.12711861935E+03  0.15407631318E+03  0.00000000000E+00 0.  1.
          1    1    1    2  501    0  0.64575308114E+01  0.75320144611E+02 -0.45450767606E+03  0.46075161583E+03  0.00000000000E+00 0. -1.
<scales pt_clust_3="106.41970" pt_clust_4="51.44132" pt_clust_5="14000.00000" pt_clust_6="39.71741"></scales>
<clustering>
<clus scale="   51.441">  2  4  1 -1</clus>
<clus scale="   39.717">  2  6  1 -1</clus>
<clus scale="  106.420">  1  3  2 -1</clus>
<clus scale="  106.420">  1  3  2 -1</clus>
</clustering>
</event>
<event>
 6    0  0.3584505E+002  0.8396029E+02  0.7546771E-02  0.1318174E+00
         21   -1    0    0  504  502  0.00000000000E+00  0.00000000000E+00  0.49786846653E+02  0.49786846653E+02  0.00000000000E+00 0. -1.
          2   -1    0    0  505    0 -0.00000000000E+00 -0.00000000000E+00 -0.49736305495E+04  0.49736305495E+04  0.00000000000E+00 0.  1.
         21    1    1    2  503  502 -0.24135429298E+02  0.80027478148E+02  0.62902141333E+01  0.83824119440E+02  0.00000000000E+00 0. -1.
         21    1    1    2  504  501 -0.10892163034E+02 -0.10173954075E+03 -0.11028860717E+04  0.11076223456E+04  0.00000000000E+00 0. -1.
         21    1    1    2  505  503 -0.45399862822E+02  0.50398710773E+01 -0.27457142524E+03  0.27834513720E+03  0.00000000000E+00 0. -1.
          2    1    1    2  501    0  0.80427455154E+02  0.16672191525E+02 -0.35526764201E+04  0.35536257939E+04  0.00000000000E+00 0.  1.
<scales pt_clust_3="83.96029" pt_clust_4="14000.00000" pt_clust_5="45.67875" pt_clust_6="50.43255"></scales>
<clustering>
<clus scale="   45.679">  2  5  1 -1</clus>
<clus scale="   50.433">  2  6  1 -1</clus>
<clus scale="   83.960">  1  3  2 -1</clus>
<clus scale="   83.960">  1  3  2 -1</clus>
</clustering>
</event>
<event>
 6    0  0.3584505E+002  0.1010859E+03  0.7546771E-02  0.1278029E+00
          2   -1    0    0  505    0 -0.00000000000E+00  0.00000000000E+00  0.43485759164E+03  0.43485759164E+03  0.00000000000E+00 0.  1.
         21   -1    0    0  501  502  0.00000000000E+00 -0.00000000000E+00 -0.18166732735E+04  0.18166732735E+04  0.00000000000E+00 0.  1.
         21    1    1    2  503  502 -0.68087938776E+02  0.66602759157E+02 -0.10110040071E+04  0.10154806730E+04  0.00000000000E+00 0.  1.
         21    1    1    2  504  503  0.12410024052E+03 -0.64752084110E+02 -0.53351461406E+03  0.55157188607E+03  0.00000000000E+00 0.  1.
         21    1    1    2  505  504 -0.41522282599E+02 -0.10203293017E+03 -0.24275280279E+03  0.26657783489E+03  0.00000000000E+00 0.  1.
          2    1    1    2  501    0 -0.14490019149E+02  0.10018225512E+03  0.40545574215E+03  0.41790047109E+03  0.00000000000E+00 0.  1.
<scales pt_clust_3="95.24650" pt_clust_4="80.58593" pt_clust_5="14000.00000" pt_clust_6="101.08591"></scales>
<clustering>
<clus scale="   95.246">  2  3  1 -1</clus>
<clus scale="   80.586">  2  4  1 -1</clus>
<clus scale="  101.086">  1  6  2 -1</clus>
<clus scale="   95.246">  2  3  1 -1</clus>
</clustering>
</event>
<event>
 6    0  0.3584505E+002  0.7353722E+02  0.7546771E-02  0.1348462E+00
          2   -1    0    0  503    0 -0.00000000000E+00  0.00000000000E+00  0.31132198758E+03  0.31132198758E+03  0.00000000000E+00 0.  1.
         21   -1    0    0  504  502  0.00000000000E+00 -0.00000000000E+00 -0.11638595761E+03  0.11638595761E+03  0.00000000000E+00 0.  1.
         21    1    1    2  503  505  0.59958436154E+02  0.16177982679E+01 -0.33216118604E+02  0.68563414970E+02  0.00000000000E+00 0.  1.
         21    1    1    2  504  501 -0.57918935870E+02 -0.85954385384E+02  0.10096889326E+03  0.14469788148E+03  0.00000000000E+00 0.  1.
         21    1    1    2  505  502  0.13234455169E+02  0.28902410787E+02 -0.32055293659E+02  0.45144678584E+02  0.00000000000E+00 0.  1.
          2    1    1    2  501    0 -0.15273955453E+02  0.55434176330E+02  0.15923854897E+03  0.16930197015E+03  0.00000000000E+00 0.  1.
<scales pt_clust_3="14000.00000" pt_clust_4="73.53722" pt_clust_5="31.78837" pt_clust_6="59.08974"></scales>
<clustering>
<clus scale="   31.788">  2  5  1 -1</clus>
<clus scale="   59.090">  1  6  2 -1</clus>
<clus scale="   73.537">  1  4  2 -1</clus>
<clus scale="   31.788">  2  3  1 -1</clus>
</clustering>
</event>
<event>
 6    0  0.3584505E+002  0.1344137E+03  0.7546771E-02  0.1221050E+00
          2   -1    0    0  504    0 -0.00000000000E+00  0.00000000000E+00  0.16857686714E+04  0.16857686714E+04  0.00000000000E+00 0.  1.
         21   -1    0    0  505  502  0.00000000000E+00 -0.00000000000E+00 -0.12456059776E+03  0.12456059776E+03  0.00000000000E+00 0.  1.
         21    1    1    2  503  502 -0.13780888921E+02  0.29891923073E+02 -0.30413784446E+02  0.44815602738E+02  0.00000000000E+00 0.  1.
         21    1    1    2  504  503  0.30722929785E+02  0.16045902692E+02  0.16688964032E+02  0.38469350505E+02  0.00000000000E+00 0.  1.
         21    1    1    2  505  501  0.10513603598E+03 -0.10182269170E+03 -0.38403421972E-01  0.14636067806E+03  0.00000000000E+00 0.  1.
          2    1    1    2  501    0 -0.12207807685E+03  0.55884865937E+02  0.15749712975E+04  0.15806836379E+04  0.00000000000E+00 0.  1.
<scales pt_clust_3="32.91565" pt_clust_4="35.10639" pt_clust_5="14000.00000" pt_clust_6="134.41366"></scales>
<clustering>
<clus scale="   32.916">  2  3  1 -1</clus>
<clus scale="   35.106">  2  4  1 -1</clus>
<clus scale="  134.414">  1  6  2 -1</clus>
<clus scale="   32.916">  2  3  1 -1</clus>
</clustering>
</event>
<event>
 6    0  0.3584505E+002  0.2257353E+03  0.7546771E-02  0.1129678E+00
          1   -1    0    0  504    0 -0.00000000000E+00  0.00000000000E+00  0.20919035159E+04  0.20919035159E+04  0.00000000000E+00 0.  1.
         21   -1    0    0  503  502  0.00000000000E+00 -0.00000000000E+00 -0.31731450540E+02  0.31731450540E+02  0.00000000000E+00 0.  1.
         21    1    1    2  503  501  0.17988983862E+03  0.26327948461E+02  0.78141651962E+03  0.80228753701E+03  0.00000000000E+00 0.  1.
         21    1    1    2  504  505 -0.17866965428E+03 -0.29028132352E+02  0.71466786729E+03  0.73723513099E+03  0.00000000000E+00 0.  1.
         21    1    1    2  505  502 -0.48806277466E+02  0.41131498713E+02  0.12080861676E+03  0.13663299305E+03  0.00000000000E+00 0.  1.
          1    1    1    2  501    0  0.47586093125E+02 -0.38431314822E+02  0.44327906172E+03  0.44747930542E+03  0.00000000000E+00 0.  1.
<scales pt_clust_3="58.42568" pt_clust_4="202.01565" pt_clust_5="63.82674" pt_clust_6="58.42568"></scales>
<clustering>
<clus scale="   58.426">  3  6 -1 -1</clus>
<clus scale="   63.827">  2  5  1 -1</clus>
<clus scale="  202.016">  2  4  1 -1</clus>
<clus scale="   63.827">  2  3  1 -1</clus>
</clustering>
</event>
<event>
 6    0  0.3584505E+002  0.1065396E+03  0.7546771E-02  0.1267116E+00
         21   -1    0    0  505  502  0.00000000000E+00  0.00000000000E+00  0.37181820817E+03  0.37181820817E+03  0.00000000000E+00 0. -1.
          2   -1    0    0  503    0 -0.00000000000E+00 -0.00000000000E+00 -0.16075646663E+04  0.16075646663E+04  0.00000000000E+00 0. -1.
         21    1    1    2  503  504  0.10167533823E+03  0.99398383229E+01 -0.18798850446E+03  0.21395408994E+03  0.00000000000E+00 0.  1.
         21    1    1    2  504  502 -0.24358578075E+02 -0.20590416239E+02 -0.90390501945E+01  0.33151319660E+02  0.00000000000E+00 0.  1.
         21    1    1    2  505  501 -0.72539610279E+02 -0.30344576415E+02  0.34200966045E+03  0.35093218179E+03  0.00000000000E+00 0. -1.
          2    1    1    2  501    0 -0.47771498785E+01  0.40995154331E+02 -0.13807285639E+04  0.13813452831E+04  0.00000000000E+00 0. -1.
<scales pt_clust_3="14000.00000" pt_clust_4="31.89523" pt_clust_5="106.53963" pt_clust_6="41.25745"></scales>
<clustering>
<clus scale="   31.895">  1  4  2 -1</clus>
<clus scale="   41.257">  2  6  1 -1</clus>
<clus scale="  106.540">  1  5  2 -1</clus>
<clus scale="   31.895">  1  3  2 -1</clus>
</clustering>
</event>
<event>
 6    0  0.3584505E+002  0.1670230E+03  0.7546771E-02  0.1180988E+00
         21   -1    0    0  503  502  0.00000000000E+00  0.00000000000E+00  0.13290522879E+04  0.13290522879E+04  0.00000000000E+00 0. -1.
          1   -1    0    0  502    0 -0.00000000000E+00 -0.00000000000E+00 -0.23801406574E+03  0.23801406574E+03  0.00000000000E+00 0.  1.
         21    1    1    2  503  505 -0.14684580963E+02 -0.11382273398E+03  0.76310589148E+03  0.77168766564E+03  0.00000000000E+00 0. -1.
         21    1    1    2  504  501  0.13997358049E+02  0.18841818406E+03  0.42274505944E+02  0.19360906995E+03  0.00000000000E+00 0. -1.
         21    1    1    2  505  504  0.20922924874E+02 -0.43952703652E+02  0.44022097069E+03  0.44290417923E+03  0.00000000000E+00 0. -1.
          1    1    1    2  501    0 -0.20235701959E+02 -0.30642746425E+02 -0.15456314599E+03  0.15886543878E+03  0.00000000000E+00 0.  1.
<scales pt_clust_3="31.27331" pt_clust_4="159.97151" pt_clust_5="31.27331" pt_clust_6="36.72140"></scales>
<clustering>
<clus scale="   31.273">  3  5 -1 -1</clus>
<clus scale="   36.721">  2  6  1 -1</clus>
<clus scale="  159.972">  2  4  1 -1</clus>
<clus scale="  167.023">  1  3  2 -1</clus>
</clustering>
</event>
<event>
 6    0  0.3584505E+002  0.1084965E+03  0.7546771E-02  0.1263380E+00
          2   -1    0    0  502    0 -0.00000000000E+00  0.00000000000E+00  0.21263638854E+04  0.21263638854E+04  0.00000000000E+00 0. -1.
         21   -1    0    0  504  502  0.00000000000E+00 -0.00000000000E+00 -0.80719238020E+02  0.80719238020E+02  0.00000000000E+00 0.  1.
         21    1    1    2  503  505  0.86277936339E+02 -0.63288086365E+02  0.23797406924E+03  0.26092321055E+03  0.00000000000E+00 0.  1.
         21    1    1    2  504  503  0.16789408763E+02  0.52987564769E+02 -0.52371681236E+02  0.76369884525E+02  0.00000000000E+00 0.  1.
         21    1    1    2  505  501 -0.13729616003E+03  0.11664331206E+02  0.10472140085E+04  0.10562402528E+04  0.00000000000E+00 0. -1.
          2    1    1    2  501    0  0.34228814929E+02 -0.13638096098E+01  0.81282825092E+03  0.81354977551E+03  0.00000000000E+00 0. -1.
<scales pt_clust_3="108.49647" pt_clust_4="55.66728" pt_clust_5="14000.00000" pt_clust_6="34.25597"></scales>
<clustering>
<clus scale="   34.256">  1  6  2 -1</clus>
<clus scale="   55.667">  2  4  1 -1</clus>
<clus scale="  108.496">  2  3  1 -1</clus>
<clus scale="   55.667">  2  3  1 -1</clus>
</clustering>
</event>
<event>
 6    0  0.3584505E+002  0.7374982E+02  0.7546771E-02  0.1347787E+00
          2   -1    0    0  503    0 -0.00000000000E+00  0.00000000000E+00  0.22215783306E+04  0.22215783306E+04  0.00000000000E+00 0. -1.
         21   -1    0    0  504  502  0.00000000000E+00 -0.00000000000E+00 -0.22265675539E+02  0.22265675539E+02  0.00000000000E+00 0. -1.
         21    1    1    2  503  505  0.15598913252E+02  0.42678892578E+02  0.31730954356E+03  0.32054665869E+03  0.00000000000E+00 0. -1.
         21    1    1    2  504  501 -0.55551691642E+02 -0.82455645889E+02  0.32306772292E+03  0.33802023250E+03  0.00000000000E+00 0. -1.
         21    1    1    2  505  502 -0.14327200127E+02  0.70936685452E+02  0.92213026981E+02  0.11721998273E+03  0.00000000000E+00 0. -1.
          2    1    1    2  501    0  0.54279978518E+02 -0.31159932141E+02  0.14667223616E+04  0.14680571322E+04  0.00000000000E+00 0. -1.
<scales pt_clust_3="45.44022" pt_clust_4="73.74982" pt_clust_5="14000.00000" pt_clust_6="66.33363"></scales>
<clustering>
<clus scale="   45.440">  1  3  2 -1</clus>
<clus scale="   66.334">  1  6  2 -1</clus>
<clus scale="   73.750">  1  4  2 -1</clus>
<clus scale="   73.750">  2  3  1 -1</clus>
</clustering>
</event>
<event>
 6    0  0.3584505E+002  0.9514992E+02  0.7546771E-02  0.1290839E+00
          2   -1    0    0  504    0 -0.00000000000E+00  0.00000000000E+00  0.22588140454E+04  0.22588140454E+04  0.00000000000E+00 0.  1.
         21   -1    0    0  505  502  0.00000000000E+00 -0.00000000000E+00 -0.11060320089E+04  0.11060320089E+04  0.00000000000E+00 0.  1.
         21    1    1    2  503  502  0.70128684442E+02  0.63278684435E+02 -0.97648491544E+03  0.98104281984E+03  0.00000000000E+00 0.  1.
         21    1    1    2  504  503 -0.10073400520E+03 -0.40361544128E+02 -0.98162009884E+02  0.14632899314E+03  0.00000000000E+00 0. -1.
         21    1    1    2  505  501 -0.23539619024E+01 -0.40167234402E+02  0.78389049464E+02  0.88112376724E+02  0.00000000000E+00 0.  1.
          2    1    1    2  501    0  0.32959282663E+02  0.17250094095E+02  0.21490399123E+04  0.21493618645E+04  0.00000000000E+00 0.  1.
<scales pt_clust_3="14000.00000" pt_clust_4="95.14992" pt_clust_5="35.31110" pt_clust_6="37.20054"></scales>
<clustering>
<clus scale="   37.201">  1  6  2 -1</clus>
<clus scale="   35.311">  1  5  2 -1</clus>
<clus scale="   95.150">  1  4  2 -1</clus>
<clus scale="   95.150">  2  3  1 -1</clus>
</clustering>
</event>
<event>
 6    0  0.3584505E+002  0.1103927E+03  0.7546771E-02  0.1259844E+00
         -1   -1    0    0    0  501 -0.00000000000E+00  0.00000000000E+00  0.18970132688E+03  0.18970132688E+03  0.00000000000E+00 0.  1.
         21   -1    0    0  505  502  0.00000000000E+00 -0.00000000000E+00 -0.50853524263E+03  0.50853524263E+03  0.00000000000E+00 0.  1.
         21    1    1    2  503  502 -0.68837912024E+02 -0.81515881317E+02  0.19804410952E+02  0.10851595151E+03  0.00000000000E+00 0.  1.
         21    1    1    2  504  501  0.68118017882E+02  0.55835362820E+02 -0.10927785492E+03  0.14035420078E+03  0.00000000000E+00 0.  1.
         21    1    1    2  505  504  0.30728125237E+02  0.31179951701E+02 -0.33579977446E+03  0.33864124911E+03  0.00000000000E+00 0.  1.
         -1    1    1    2    0  503 -0.30008231096E+02 -0.54994332041E+01  0.10643930268E+03  0.11072516811E+03  0.00000000000E+00 0.  1.
<scales pt_clust_3="110.39269" pt_clust_4="14000.00000" pt_clust_5="43.34036" pt_clust_6="30.50799"></scales>
<clustering>
<clus scale="   30.508">  1  6  2 -1</clus>
<clus scale="   43.340">  2  5  1 -1</clus>
<clus scale="  110.393">  1  3  2 -1</clus>
<clus scale="   43.340">  2  3  1 -1</clus>
</clustering>
</event>
<event>
 6    0  0.3584505E+002  0.9676057E+02  0.7546771E-02  0.1287259E+00
         21   -1    0    0  504  502  0.00000000000E+00  0.00000000000E+00  0.26404959708E+02  0.26404959708E+02  0.00000000000E+00 0.  1.
          1   -1    0    0  505    0 -0.00000000000E+00 -0.00000000000E+00 -0.14206064870E+04  0.14206064870E+04  0.00000000000E+00 0.  1.
         21    1    1    2  503  502 -0.10956760129E+03 -0.17378017722E+01 -0.23405377392E+03  0.25843615903E+03  0.00000000000E+00 0.  1.
         21    1    1    2  504  501  0.84685262255E+02 -0.17908065339E+02 -0.20943561917E+03  0.22661767589E+03  0.00000000000E+00 0.  1.
         21    1    1    2  505  503 -0.50995686656E+02  0.39731626778E+02 -0.32726368189E+03  0.33358758926E+03  0.00000000000E+00 0.  1.
          1    1    1    2  501    0  0.75878025696E+02 -0.20085759667E+02 -0.62344845227E+03  0.62837002249E+03  0.00000000000E+00 0.  1.
<scales pt_clust_3="14000.00000" pt_clust_4="96.76057" pt_clust_5="64.64644" pt_clust_6="46.67933"></scales>
<clustering>
<clus scale="   64.646">  2  5  1 -1</clus>
<clus scale="   46.679">  2  6  1 -1</clus>
<clus scale="   96.761">  1  4  2 -1</clus>
<clus scale="   96.761">  1  3  2 -1</clus>
</clustering>
</event>
<event>
 6    0  0.3584505E+002  0.1169564E+03  0.7546771E-02  0.1248204E+00
         21   -1    0    0  505  502  0.00000000000E+00  0.00000000000E+00  0.27143701918E+03  0.27143701918E+03  0.00000000000E+00 0. -1.
          1   -1    0    0  503    0 -0.00000000000E+00 -0.00000000000E+00 -0.15960454204E+03  0.15960454204E+03  0.00000000000E+00 0. -1.
         21    1    1    2  503  504  0.17071151244E+02  0.33210500578E+02  0.73362264738E+01  0.38054983541E+02  0.00000000000E+00 0. -1.
         21    1    1    2  504  502 -0.12197137343E+02  0.68269517714E+02 -0.51648398727E+02  0.86469961833E+02  0.00000000000E+00 0. -1.
         21    1    1    2  505  501 -0.11659736223E+03 -0.58880959322E+02  0.12966304723E+03  0.18405004229E+03  0.00000000000E+00 0. -1.
          1    1    1    2  501    0  0.11172334833E+03 -0.42599058970E+02  0.26481602162E+02  0.12246657356E+03  0.00000000000E+00 0. -1.
<scales pt_clust_3="37.34115" pt_clust_4="84.26560" pt_clust_5="116.95640" pt_clust_6="14000.00000"></scales>
<clustering>
<clus scale="   37.341">  2  3  1 -1</clus>
<clus scale="   84.266">  2  4  1 -1</clus>
<clus scale="  116.956">  1  5  2 -1</clus>
<clus scale="  116.956">  1  3  2 -1</clus>
</clustering>
</event>
<event>
 6    0  0.3584505E+002  0.1173890E+03  0.7546771E-02  0.1247468E+00
          2   -1    0    0  503    0 -0.00000000000E+00  0.00000000000E+00  0.28688455186E+04  0.28688455186E+04  0.00000000000E+00 0.  1.
         21   -1    0    0  504  502  0.00000000000E+00 -0.00000000000E+00 -0.31083536922E+02  0.31083536922E+02  0.00000000000E+00 0.  1.
         21    1    1    2  503  505  0.65930037533E+02 -0.44493345252E+02  0.19072831201E+03  0.20664877600E+03  0.00000000000E+00 0.  1.
         21    1    1    2  504  501 -0.16758000350E+03  0.91128034975E+02  0.12895351675E+04  0.13035675374E+04  0.00000000000E+00 0.  1.
         21    1    1    2  505  502  0.60016072606E+02  0.34703866052E+02  0.68434991696E+02  0.97414759552E+02  0.00000000000E+00 0.  1.
          2    1    1    2  501    0  0.41633893363E+02 -0.81338555775E+02  0.12890635105E+04  0.12922979826E+04  0.00000000000E+00 0.  1.
<scales pt_clust_3="117.38902" pt_clust_4="14000.00000" pt_clust_5="69.32739" pt_clust_6="91.27885"></scales>
<clustering>
<clus scale="   69.327">  2  5  1 -1</clus>
<clus scale="   91.279">  1  6  2 -1</clus>
<clus scale="  117.389">  2  3  1 -1</clus>
<clus scale="   69.327">  2  3  1 -1</clus>
</clustering>
</event>
<event>
 6    0  0.3584505E+002  0.1006855E+03  0.7546771E-02  0.1278861E+00
          2   -1    0    0  503    0 -0.00000000000E+00  0.00000000000E+00  0.76066062898E+03  0.76066062898E+03  0.00000000000E+00 0.  1.
         21   -1    0    0  504  502  0.00000000000E+00 -0.00000000000E+00 -0.91483658161E+02  0.91483658161E+02  0.00000000000E+00 0. -1.
         21    1    1    2  503  502 -0.40794181502E+01  0.66105263948E+02  0.30595114056E+02  0.72956210004E+02  0.00000000000E+00 0.  1.
         21    1    1    2  504  505  0.37567876692E+02 -0.57412727310E+02 -0.15458509921E+01  0.68629121163E+02  0.00000000000E+00 0. -1.
         21    1    1    2  505  501 -0.98984393116E+02 -0.80362073117E+02  0.10071717585E+03  0.16248052926E+03  0.00000000000E+00 0. -1.
          2    1    1    2  501    0  0.65495934574E+02  0.71669536479E+02  0.53941053190E+03  0.54807842672E+03  0.00000000000E+00 0.  1.
<scales pt_clust_3="66.23102" pt_clust_4="43.11459" pt_clust_5="14000.00000" pt_clust_6="100.68555"></scales>
<clustering>
<clus scale="   66.231">  2  3  1 -1</clus>
<clus scale="   43.115">  2  4  1 -1</clus>
<clus scale="  100.686">  1  6  2 -1</clus>
<clus scale="   66.231">  2  3  1 -1</clus>
</clustering>
</event>
<event>
 6    0  0.3584505E+002  0.1177335E+03  0.7546771E-02  0.1246884E+00
         21   -1    0    0  504  502  0.00000000000E+00  0.00000000000E+00  0.19909458402E+03  0.19909458402E+03  0.00000000000E+00 0.  1.
          2   -1    0    0  503    0 -0.00000000000E+00 -0.00000000000E+00 -0.29545629377E+03  0.29545629377E+03  0.00000000000E+00 0. -1.
         21    1    1    2  503  505 -0.27645705652E+01  0.74884609122E+02  0.86099577810E+02  0.11414238841E+03  0.00000000000E+00 0.  1.
         21    1    1    2  504  501  0.80420392149E+02 -0.11413436925E+03 -0.11205277213E+02  0.14007016797E+03  0.00000000000E+00 0. -1.
         21    1    1    2  505  502 -0.25572646329E+02  0.22163419104E+02  0.21397998492E+02  0.40038128404E+02  0.00000000000E+00 0.  1.
          2    1    1    2  501    0 -0.52083175254E+02  0.17086341022E+02 -0.19265400884E+03  0.20030019300E+03  0.00000000000E+00 0. -1.
<scales pt_clust_3="30.01237" pt_clust_4="108.93385" pt_clust_5="30.01237" pt_clust_6="54.81423"></scales>
<clustering>
<clus scale="   30.012">  3  5 -1 -1</clus>
<clus scale="   54.814">  2  6  1 -1</clus>
<clus scale="  108.934">  2  4  1 -1</clus>
<clus scale="  117.733">  1  3  2 -1</clus>
</clustering>
</event>
<event>
 6    0  0.3584505E+002  0.6957921E+02  0.7546771E-02  0.1361530E+00
         21   -1    0    0  503  502  0.00000000000E+00  0.00000000000E+00  0.19075005473E+03  0.19075005473E+03  0.00000000000E+00 0.  1.
          2   -1    0    0  504    0 -0.00000000000E+00 -0.00000000000E+00 -0.36848120144E+03  0.36848120144E+03  0.00000000000E+00 0. -1.
         21    1    1    2  503  501 -0.13396175143E+02 -0.54958988240E+02 -0.99413304326E+01  0.57434988880E+02  0.00000000000E+00 0.  1.
         21    1    1    2  504  505  0.97333691941E+02  0.69033618258E+02  0.64265304315E+01  0.11950225241E+03  0.00000000000E+00 0.  1.
         21    1    1    2  505  502 -0.17144507028E+02 -0.30277008630E+02  0.96713669147E+02  0.10278212477E+03  0.00000000000E+00 0.  1.
          2    1    1    2  501    0 -0.66793009770E+02  0.16202378611E+02 -0.27093001585E+03  0.27951189011E+03  0.00000000000E+00 0. -1.
<scales pt_clust_3="65.35044" pt_clust_4="14000.00000" pt_clust_5="34.79413" pt_clust_6="69.57921"></scales>
<clustering>
<clus scale="   34.794">  1  5  2 -1</clus>
<clus scale="   65.350">  1  3  2 -1</clus>
<clus scale="   69.579">  2  6  1 -1</clus>
<clus scale="   34.794">  1  3  2 -1</clus>
</clustering>
</event>
<event>
 6    0  0.3584505E+002  0.8859154E+02  0.7546771E-02  0.1306299E+00
          2   -1    0    0  503    0 -0.00000000000E+00  0.00000000000E+00  0.82903468924E+03  0.82903468924E+03  0.00000000000E+00 0.  1.
         21   -1    0    0  504  502  0.00000000000E+00 -0.00000000000E+00 -0.19714696721E+03  0.19714696721E+03  0.00000000000E+00 0.  1.
         21    1    1    2  503  505  0.17511734309E+02  0.44765911966E+02  0.62045525738E+03  0.62231452990E+03  0.00000000000E+00 0.  1.
         21    1    1    2  504  501  0.58305166313E+02 -0.25487827065E+02 -0.17308772928E+02  0.65944790299E+02  0.00000000000E+00 0.  1.
         21    1    1    2  505  502 -0.24363628376E+02 -0.66643189781E+02 -0.13906751263E+03  0.15612390657E+03  0.00000000000E+00 0.  1.
          2    1    1    2  501    0 -0.51453272245E+02  0.47365104880E+02  0.16780875021E+03  0.18179842968E+03  0.00000000000E+00 0.  1.
<scales pt_clust_3="48.06920" pt_clust_4="63.66093" pt_clust_5="88.59154" pt_clust_6="14000.00000"></scales>
<clustering>
<clus scale="   48.069">  1  3  2 -1</clus>
<clus scale="   63.661">  2  4  1 -1</clus>
<clus scale="   88.592">  2  5  1 -1</clus>
<clus scale="   63.661">  2  3  1 -1</clus>
</clustering>
</event>
<event>
 6    0  0.3584505E+002  0.8388617E+02  0.7546771E-02  0.1318371E+00
          2   -1    0    0  503    0 -0.00000000000E+00  0.00000000000E+00  0.27459395672E+03  0.27459395672E+03  0.00000000000E+00 0. -1.
         21   -1    0    0  504  502  0.00000000000E+00 -0.00000000000E+00 -0.31633220928E+03  0.31633220928E+03  0.00000000000E+00 0.  1.
         21    1    1    2  503  505  0.56119041000E+02 -0.20982085595E+02  0.17363857142E+02  0.62378667936E+02  0.00000000000E+00 0. -1.
         21    1    1    2  504  501  0.20948639439E+02  0.58381363935E+02  0.29292986956E+02  0.68595249355E+02  0.00000000000E+00 0. -1.
         21    1    1    2  505  502 -0.39779019763E+02 -0.77475706794E+02 -0.26295933152E+03  0.27700625551E+03  0.00000000000E+00 0.  1.
          2    1    1    2  501    0 -0.37288660676E+02  0.40076428454E+02  0.17456423487E+03  0.18294599320E+03  0.00000000000E+00 0. -1.
<scales pt_clust_3="40.83409" pt_clust_4="83.88617" pt_clust_5="14000.00000" pt_clust_6="54.74088"></scales>
<clustering>
<clus scale="   54.741">  1  6  2 -1</clus>
<clus scale="   40.834">  1  3  2 -1</clus>
<clus scale="   83.886">  1  4  2 -1</clus>
<clus scale="   83.886">  2  3  1 -1</clus>
</clustering>
</event>
<event>
 6    0  0.3584505E+002  0.1361563E+03  0.7546771E-02  0.1218597E+00
         21   -1    0    0  505  502  0.00000000000E+00  0.00000000000E+00  0.80334721362E+03  0.80334721362E+03  0.00000000000E+00 0. -1.
          2   -1    0    0  503    0 -0.00000000000E+00 -0.00000000000E+00 -0.42220062770E+03  0.42220062770E+03  0.00000000000E+00 0.  1.
         21    1    1    2  503  504  0.90525687402E+02 -0.12244791231E+03 -0.16914727264E+03  0.22759435659E+03  0.00000000000E+00 0.  1.
         21    1    1    2  504  502 -0.90395810028E+01 -0.84724289749E+02  0.16325693187E+03  0.18415413409E+03  0.00000000000E+00 0.  1.
         21    1    1    2  505  501 -0.43583621666E+02  0.20463412396E+03  0.58028597320E+03  0.61685206287E+03  0.00000000000E+00 0. -1.
          2    1    1    2  501    0 -0.37902484734E+02  0.25380780927E+01 -0.19324904651E+03  0.19694728778E+03  0.00000000000E+00 0.  1.
<scales pt_clust_3="14000.00000" pt_clust_4="85.29193" pt_clust_5="136.15631" pt_clust_6="37.98737"></scales>
<clustering>
<clus scale="   37.987">  2  6  1 -1</clus>
<clus scale="   85.292">  1  4  2 -1</clus>
<clus scale="  136.156">  1  5  2 -1</clus>
<clus scale="   85.292">  1  3  2 -1</clus>
</clustering>
</event>
<event>
 6    0  0.3584505E+002  0.9119048E+02  0.7546771E-02  0.1299994E+00
         21   -1    0    0  503  502  0.00000000000E+00  0.00000000000E+00  0.20133664285E+03  0.20133664285E+03  0.00000000000E+00 0. -1.
          2   -1    0    0  504    0 -0.00000000000E+00 -0.00000000000E+00 -0.38510347984E+04  0.38510347984E+04  0.00000000000E+00 0.  1.
         21    1    1    2  503  501  0.13175189174E+02 -0.51438814539E+02  0.10275320022E+03  0.11566225575E+03  0.00000000000E+00 0.  1.
         21    1    1    2  504  505 -0.45689864854E+02  0.10140671184E+02 -0.70085169459E+03  0.70241262430E+03  0.00000000000E+00 0.  1.
         21    1    1    2  505  502  0.71298748652E+02  0.86718991762E+02  0.56459404708E+02  0.12566367602E+03  0.00000000000E+00 0. -1.
          2    1    1    2  501    0 -0.38784072972E+02 -0.45420848407E+02 -0.31080590659E+04  0.31086328852E+04  0.00000000000E+00 0.  1.
<scales pt_clust_3="53.05602" pt_clust_4="46.80168" pt_clust_5="91.19048" pt_clust_6="14000.00000"></scales>
<clustering>
<clus scale="   46.802">  2  4  1 -1</clus>
<clus scale="   53.056">  1  3  2 -1</clus>
<clus scale="   91.190">  1  5  2 -1</clus>
<clus scale="   53.056">  1  3  2 -1</clus>
</clustering>
</event>
<event>
 6    0  0.3584505E+002  0.7506077E+02  0.7546771E-02  0.1343683E+00
          2   -1    0    0  505    0 -0.00000000000E+00  0.00000000000E+00  0.21923597473E+04  0.21923597473E+04  0.00000000000E+00 0. -1.
         21   -1    0    0  504  502  0.00000000000E+00 -0.00000000000E+00 -0.12497412812E+03  0.12497412812E+03  0.00000000000E+00 0. -1.
         21    1    1    2  503  501 -0.41803759497E+02 -0.90940432320E+02  0.16921137734E+03  0.19659655836E+03  0.00000000000E+00 0.  1.
         21    1    1    2  504  503  0.48867276931E+02 -0.56174285220E+02 -0.84502486618E+02  0.11262429276E+03  0.00000000000E+00 0. -1.
         21    1    1    2  505  502  0.14596042036E+02  0.75329899381E+02  0.11102493843E+03  0.13495990196E+03  0.00000000000E+00 0.  1.
          2    1    1    2  501    0 -0.21659559470E+02  0.71784818159E+02  0.18716517900E+04  0.18731531223E+04  0.00000000000E+00 0. -1.
<scales pt_clust_3="75.06077" pt_clust_4="74.45509" pt_clust_5="61.94639" pt_clust_6="14000.00000"></scales>
<clustering>
<clus scale="   74.455">  2  4  1 -1</clus>
<clus scale="   61.946">  2  5  1 -1</clus>
<clus scale="   75.061">  2  3  1 -1</clus>
<clus scale="   74.455">  2  3  1 -1</clus>
</clustering>
</event>
<event>
 6    0  0.3584505E+002  0.1693619E+03  0.7546771E-02  0.1178515E+00
         21   -1    0    0  504  502  0.00000000000E+00  0.00000000000E+00  0.36551575673E+03  0.36551575673E+03  0.00000000000E+00 0. -1.
         -3   -1    0    0    0  501 -0.00000000000E+00 -0.00000000000E+00 -0.32205316448E+03  0.32205316448E+03  0.00000000000E+00 0. -1.
         21    1    1    2  503  501  0.31522293548E+02 -0.13842644012E+03  0.12585978129E+03  0.18972669517E+03  0.00000000000E+00 0. -1.
         21    1    1    2  504  503 -0.13132385061E+02 -0.33867350968E+02  0.13732808506E+03  0.14205090617E+03  0.00000000000E+00 0. -1.
         21    1    1    2  505  502  0.18409925310E+01  0.19727500862E+03 -0.80788805984E+02  0.21318454318E+03  0.00000000000E+00 0. -1.
         -3    1    1    2    0  505 -0.20230901019E+02 -0.24981217528E+02 -0.13893646811E+03  0.14260677668E+03  0.00000000000E+00 0. -1.
<scales pt_clust_3="169.36194" pt_clust_4="36.72323" pt_clust_5="14000.00000" pt_clust_6="32.14577"></scales>
<clustering>
<clus scale="   32.146">  2  6  1 -1</clus>
<clus scale="   36.723">  1  4  2 -1</clus>
<clus scale="  169.362">  1  3  2 -1</clus>
<clus scale="   36.723">  1  3  2 -1</clus>
</clustering>
</event>
<event>
 6    0  0.3584505E+002  0.1099490E+03  0.7546771E-02  0.1260664E+00
         21   -1    0    0  503  502  0.00000000000E+00  0.00000000000E+00  0.77764800948E+03  0.77764800948E+03  0.00000000000E+00 0. -1.
          3   -1    0    0  505    0 -0.00000000000E+00 -0.00000000000E+00 -0.13469185648E+04  0.13469185648E+04  0.00000000000E+00 0. -1.
         21    1    1    2  503  501 -0.21938136331E+02 -0.89650367539E+02 -0.82846861198E+02  0.12402448402E+03  0.00000000000E+00 0. -1.
         21    1    1    2  504  502 -0.58148825450E+01  0.68291843195E+02  0.69270619620E+03  0.69608868900E+03  0.00000000000E+00 0. -1.
         21    1    1    2  505  504  0.10421896456E+03  0.98387451764E+02 -0.25311917354E+02  0.14554166551E+03  0.00000000000E+00 0. -1.
          3    1    1    2  501    0 -0.76465945689E+02 -0.77028927419E+02 -0.11538179729E+04  0.11589117357E+04  0.00000000000E+00 0. -1.
<scales pt_clust_3="76.42391" pt_clust_4="68.53896" pt_clust_5="109.94895" pt_clust_6="14000.00000"></scales>
<clustering>
<clus scale="   68.539">  1  4  2 -1</clus>
<clus scale="   76.424">  1  3  2 -1</clus>
<clus scale="  109.949">  1  5  2 -1</clus>
<clus scale="   68.539">  1  3  2 -1</clus>
</clustering>
</event>
<event>
 6    0  0.3584505E+002  0.8775693E+02  0.7546771E-02  0.1308376E+00
         21   -1    0    0  504  502  0.00000000000E+00  0.00000000000E+00  0.53319859150E+03  0.53319859150E+03  0.00000000000E+00 0.  1.
         -1   -1    0    0    0  501 -0.00000000000E+00 -0.00000000000E+00 -0.16759323882E+04  0.16759323882E+04  0.00000000000E+00 0. -1.
         21    1    1    2  503  502  0.42992346949E+01 -0.47181297883E+02  0.30613484503E+03  0.30977911749E+03  0.00000000000E+00 0.  1.
         21    1    1    2  504  505 -0.10305250715E+03  0.27848716021E+02  0.18946290467E+03  0.21746623292E+03  0.00000000000E+00 0.  1.
         21    1    1    2  505  501  0.55665728385E+02  0.13339242235E+02 -0.16640722766E+02  0.59611428051E+02  0.00000000000E+00 0. -1.
         -1    1    1    2    0  503  0.43087544071E+02  0.59933396268E+01 -0.16216908236E+04  0.16222742012E+04  0.00000000000E+00 0. -1.
<scales pt_clust_3="47.33000" pt_clust_4="14000.00000" pt_clust_5="87.75693" pt_clust_6="43.50237"></scales>
<clustering>
<clus scale="   43.502">  2  6  1 -1</clus>
<clus scale="   47.330">  1  3  2 -1</clus>
<clus scale="   87.757">  2  5  1 -1</clus>
<clus scale="   47.330">  1  3  2 -1</clus>
</clustering>
</event>
<event>
 6    0  0.3584505E+002  0.1002004E+03  0.7546771E-02  0.1279875E+00
          1   -1    0    0  503    0 -0.00000000000E+00  0.00000000000E+00  0.10894110022E+04  0.10894110022E+04  0.00000000000E+00 0. -1.
         21   -1    0    0  504  502  0.00000000000E+00 -0.00000000000E+00 -0.78926672052E+03  0.78926672052E+03  0.00000000000E+00 0. -1.
         21    1    1    2  503  505 -0.99096789339E+02  0.76251147812E+02  0.73054343630E+03  0.74116673125E+03  0.00000000000E+00 0. -1.
         21    1    1    2  504  501  0.64952996089E+02  0.34433794503E+02 -0.70063815805E+03  0.70448449693E+03  0.00000000000E+00 0. -1.
         21    1    1    2  505  502  0.34423488679E+02 -0.49240587659E+02 -0.67140721241E+02  0.90097105917E+02  0.00000000000E+00 0.  1.
          1    1    1    2  501    0 -0.27969542843E+00 -0.61444354656E+02  0.33737972464E+03  0.34292938858E+03  0.00000000000E+00 0. -1.
<scales pt_clust_3="14000.00000" pt_clust_4="100.20043" pt_clust_5="60.08005" pt_clust_6="61.63679"></scales>
<clustering>
<clus scale="   60.080">  2  5  1 -1</clus>
<clus scale="   61.637">  1  6  2 -1</clus>
<clus scale="  100.200">  2  4  1 -1</clus>
<clus scale="   60.080">  2  3  1 -1</clus>
</clustering>
</event>
<event>
 6    0  0.3584505E+002  0.1186927E+03  0.7546771E-02  0.1245269E+00
         -2   -1    0    0    0  501 -0.00000000000E+00  0.00000000000E+00  0.22136712925E+03  0.22136712925E+03  0.00000000000E+00 0.  1.
         21   -1    0    0  503  502  0.00000000000E+00 -0.00000000000E+00 -0.11102752112E+04  0.11102752112E+04  0.00000000000E+00 0. -1.
         21    1    1    2  503  501 -0.64069814726E+02 -0.10907732275E+03 -0.10027091061E+04  0.10106573875E+04  0.00000000000E+00 0. -1.
         21    1    1    2  504  505  0.18648032306E+02  0.55555177343E+02  0.63969641781E+02  0.86753915808E+02  0.00000000000E+00 0.  1.
         21    1    1    2  505  502  0.26403212592E+02  0.78535202358E+02 -0.71164673577E+02  0.10922141919E+03  0.00000000000E+00 0.  1.
         -2    1    1    2    0  504  0.19018569828E+02 -0.25013056954E+02  0.12099605595E+03  0.12500961792E+03  0.00000000000E+00 0.  1.
<scales pt_clust_3="14000.00000" pt_clust_4="49.27317" pt_clust_5="118.69271" pt_clust_6="31.42227"></scales>
<clustering>
<clus scale="   31.422">  1  6  2 -1</clus>
<clus scale="   49.273">  1  4  2 -1</clus>
<clus scale="  118.693">  1  5  2 -1</clus>
<clus scale="  118.693">  2  3  1 -1</clus>
</clustering>
</event>
<event>
 6    0  0.3584505E+002  0.1411963E+03  0.7546771E-02  0.1211728E+00
         -3   -1    0    0    0  501 -0.00000000000E+00  0.00000000000E+00  0.21334165722E+03  0.21334165722E+03  0.00000000000E+00 0.  1.
         21   -1    0    0  504  502  0.00000000000E+00 -0.00000000000E+00 -0.16237583800E+04  0.16237583800E+04  0.00000000000E+00 0.  1.
         21    1    1    2  503  505  0.60830757132E+02  0.56351060887E+02 -0.95374711307E+03  0.95734496331E+03  0.00000000000E+00 0.  1.
         21    1    1    2  504  501 -0.36233812649E+02 -0.15012842075E+03 -0.20215891505E+03  0.25440058732E+03  0.00000000000E+00 0.  1.
         21    1    1    2  505  502 -0.57848546255E+01  0.53116642436E+02 -0.43556985858E+03  0.43883475700E+03  0.00000000000E+00 0.  1.
         -3    1    1    2    0  503 -0.18812089858E+02  0.40660717424E+02  0.18105916396E+03  0.18651972957E+03  0.00000000000E+00 0.  1.
<scales pt_clust_3="52.25937" pt_clust_4="125.83106" pt_clust_5="52.25937" pt_clust_6="44.80166"></scales>
<clustering>
<clus scale="   44.802">  1  6  2 -1</clus>
<clus scale="   52.259">  3  5 -1 -1</clus>
<clus scale="  125.831">  1  4  2 -1</clus>
<clus scale="  141.196">  2  3  1 -1</clus>
</clustering>
</event>
<event>
 6    0  0.3584505E+002  0.1188607E+03  0.7546771E-02  0.1244989E+00
          4   -1    0    0  503    0 -0.00000000000E+00  0.00000000000E+00  0.29241769883E+02  0.29241769883E+02  0.00000000000E+00 0. -1.
         21   -1    0    0  505  502  0.00000000000E+00 -0.00000000000E+00 -0.13622650236E+04  0.13622650236E+04  0.00000000000E+00 0. -1.
         21    1    1    2  503  504  0.18180685810E+01  0.30969026079E+02 -0.87956695624E+02  0.93267176728E+02  0.00000000000E+00 0. -1.
         21    1    1    2  504  502  0.13272792189E+03 -0.17911049903E+02 -0.25718624297E+03  0.28996943034E+03  0.00000000000E+00 0. -1.
         21    1    1    2  505  501 -0.11225775417E+03  0.27771876012E+02 -0.91174089076E+03  0.91904544629E+03  0.00000000000E+00 0. -1.
          4    1    1    2  501    0 -0.22288236299E+02 -0.40829852189E+02 -0.76139424317E+02  0.89224740081E+02  0.00000000000E+00 0. -1.
<scales pt_clust_3="31.02235" pt_clust_4="118.86065" pt_clust_5="14000.00000" pt_clust_6="39.74720"></scales>
<clustering>
<clus scale="   31.022">  1  3  2 -1</clus>
<clus scale="   39.747">  1  6  2 -1</clus>
<clus scale="  118.861">  1  4  2 -1</clus>
<clus scale="  118.861">  2  3  1 -1</clus>
</clustering>
</event>
<event>
 6    0  0.3584505E+002  0.7719262E+02  0.7546771E-02  0.1337213E+00
         -1   -1    0    0    0  501 -0.00000000000E+00  0.00000000000E+00  0.54195475713E+02  0.54195475713E+02  0.00000000000E+00 0.  1.
         21   -1    0    0  504  502  0.00000000000E+00 -0.00000000000E+00 -0.13069886547E+04  0.13069886547E+04  0.00000000000E+00 0.  1.
         21    1    1    2  503  501  0.21909571573E+02 -0.30880783871E+02 -0.37469094203E+03  0.37659919567E+03  0.00000000000E+00 0.  1.
         21    1    1    2  504  503  0.12238858003E+02  0.28340277396E+02 -0.21544711555E+03  0.21764746855E+03  0.00000000000E+00 0.  1.
         21    1    1    2  505  502 -0.96477516460E+02  0.45938843655E+02 -0.68056669175E+03  0.68890442766E+03  0.00000000000E+00 0.  1.
         -1    1    1    2    0  505  0.62329086884E+02 -0.43398337180E+02  0.17911570384E+02  0.78033038486E+02  0.00000000000E+00 0.  1.
<scales pt_clust_3="33.59342" pt_clust_4="30.87007" pt_clust_5="14000.00000" pt_clust_6="77.19262"></scales>
<clustering>
<clus scale="   30.870">  2  4  1 -1</clus>
<clus scale="   33.593">  2  3  1 -1</clus>
<clus scale="   77.193">  1  6  2 -1</clus>
<clus scale="   30.870">  2  3  1 -1</clus>
</clustering>
</event>
<event>
 6    0  0.3584505E+002  0.1120554E+03  0.7546771E-02  0.1256810E+00
          2   -1    0    0  503    0 -0.00000000000E+00  0.00000000000E+00  0.17793772616E+03  0.17793772616E+03  0.00000000000E+00 0. -1.
         21   -1    0    0  505  502  0.00000000000E+00 -0.00000000000E+00 -0.64414023008E+03  0.64414023008E+03  0.00000000000E+00 0. -1.
         21    1    1    2  503  502  0.18615410227E+02  0.70054806905E+02 -0.15530395426E+03  0.17138706975E+03  0.00000000000E+00 0.  1.
         21    1    1    2  504  501  0.67183730772E+01 -0.14342529566E+03  0.85096128123E+02  0.16690507180E+03  0.00000000000E+00 0. -1.
         21    1    1    2  505  504  0.20985482472E+02  0.45674906043E+02 -0.42122365256E+03  0.42421215564E+03  0.00000000000E+00 0. -1.
          2    1    1    2  501    0 -0.46319265776E+02  0.27695582713E+02  0.25228974775E+02  0.59573659045E+02  0.00000000000E+00 0. -1.
<scales pt_clust_3="112.05537" pt_clust_4="14000.00000" pt_clust_5="50.26517" pt_clust_6="54.52667"></scales>
<clustering>
<clus scale="   50.265">  2  5  1 -1</clus>
<clus scale="   54.527">  1  6  2 -1</clus>
<clus scale="  112.055">  2  3  1 -1</clus>
<clus scale="   50.265">  2  3  1 -1</clus>
</clustering>
</event>
<event>
 6    0  0.3584505E+002  0.1138538E+03  0.7546771E-02  0.1253595E+00
          2   -1    0    0  504    0 -0.00000000000E+00  0.00000000000E+00  0.15640784290E+04  0.15640784290E+04  0.00000000000E+00 0.  1.
         21   -1    0    0  503  502  0.00000000000E+00 -0.00000000000E+00 -0.19195937943E+03  0.19195937943E+03  0.00000000000E+00 0. -1.
         21    1    1    2  503  501  0.36739643542E+02 -0.43951299026E+02  0.11003418055E+03  0.12405256540E+03  0.00000000000E+00 0.  1.
         21    1    1    2  504  505  0.74727826415E+01  0.11274297944E+03  0.28051203931E+03  0.30241333650E+03  0.00000000000E+00 0.  1.
         21    1    1    2  505  502 -0.83135607524E+02 -0.80522518121E+02 -0.15434930998E+03  0.19292256129E+03  0.00000000000E+00 0. -1.
          2    1    1    2  501    0  0.38923181341E+02  0.11730837706E+02  0.11359221397E+04  0.11366493453E+04  0.00000000000E+00 0.  1.
<scales pt_clust_3="62.49484" pt_clust_4="113.85384" pt_clust_5="14000.00000" pt_clust_6="40.65251"></scales>
<clustering>
<clus scale="   40.653">  1  6  2 -1</clus>
<clus scale="   62.495">  1  3  2 -1</clus>
<clus scale="  113.854">  1  4  2 -1</clus>
<clus scale="  113.854">  2  3  1 -1</clus>
</clustering>
</event>
<event>
 6    0  0.3584505E+002  0.1191433E+03  0.7546771E-02  0.1244517E+00
          1   -1    0    0  503    0 -0.00000000000E+00  0.00000000000E+00  0.51751258678E+03  0.51751258678E+03  0.00000000000E+00 0. -1.
         21   -1    0    0  505  502  0.00000000000E+00 -0.00000000000E+00 -0.61440766127E+03  0.61440766127E+03  0.00000000000E+00 0.  1.
         21    1    1    2  503  502 -0.46452954397E+02 -0.53247863189E+02  0.16296830114E+03  0.17762848613E+03  0.00000000000E+00 0. -1.
         21    1    1    2  504  501 -0.38452955196E+02 -0.38473725743E+02  0.31701969869E+02  0.62959290255E+02  0.00000000000E+00 0. -1.
         21    1    1    2  505  504  0.10204006493E+03  0.65048330187E+02 -0.58439474218E+03  0.59679198621E+03  0.00000000000E+00 0.  1.
          1    1    1    2  501    0 -0.17134155333E+02  0.26673258746E+02  0.29282939668E+03  0.29454048545E+03  0.00000000000E+00 0. -1.
<scales pt_clust_3="119.14325" pt_clust_4="53.37072" pt_clust_5="14000.00000" pt_clust_6="31.70240"></scales>
<clustering>
<clus scale="   31.702">  1  6  2 -1</clus>
<clus scale="   53.371">  1  4  2 -1</clus>
<clus scale="  119.143">  1  3  2 -1</clus>
<clus scale="  119.143">  2  3  1 -1</clus>
</clustering>
</event>
<event>
 6    0  0.3584505E+002  0.1205937E+03  0.7546771E-02  0.1242121E+00
         21   -1    0    0  501  502  0.00000000000E+00  0.00000000000E+00  0.66089593100E+02  0.66089593100E+02  0.00000000000E+00 0.  1.
          1   -1    0    0  505    0 -0.00000000000E+00 -0.00000000000E+00 -0.26335944587E+04  0.26335944587E+04  0.00000000000E+00 0.  1.
         21    1    1    2  503  504  0.43330864528E+02 -0.91894352680E+02  0.13411489897E+02  0.10247928540E+03  0.00000000000E+00 0.  1.
         21    1    1    2  504  502  0.37949197054E+02 -0.27120339925E+01 -0.71604524886E+02  0.81084552595E+02  0.00000000000E+00 0.  1.
         21    1    1    2  505  503 -0.11323996365E+01  0.57281669458E+02 -0.32440993798E+03  0.32943023518E+03  0.00000000000E+00 0. -1.
          1    1    1    2  501    0 -0.80147661945E+02  0.37324717214E+02 -0.21849018927E+04  0.21866899787E+04  0.00000000000E+00 0.  1.
<scales pt_clust_3="120.59369" pt_clust_4="38.04598" pt_clust_5="57.17225" pt_clust_6="14000.00000"></scales>
<clustering>
<clus scale="   38.046">  1  4  2 -1</clus>
<clus scale="   57.172">  2  5  1 -1</clus>
<clus scale="  120.594">  1  3  2 -1</clus>
<clus scale="   38.046">  1  3  2 -1</clus>
</clustering>
</event>
<event>
 6    0  0.3584505E+002  0.1532126E+03  0.7546771E-02  0.1196580E+00
         -1   -1    0    0    0  501 -0.00000000000E+00  0.00000000000E+00  0.18781555591E+04  0.18781555591E+04  0.00000000000E+00 0. -1.
         21   -1    0    0  504  502  0.00000000000E+00 -0.00000000000E+00 -0.75353966138E+02  0.75353966138E+02  0.00000000000E+00 0.  1.
         21    1    1    2  503  505 -0.12200254821E+03 -0.13481093189E+03  0.26853445575E+03  0.32429826248E+03  0.00000000000E+00 0.  1.
         21    1    1    2  504  501 -0.91791421188E+02  0.15956914723E+03  0.42910118871E+03  0.46692162930E+03  0.00000000000E+00 0. -1.
         21    1    1    2  505  502  0.58534921761E+02  0.65066020813E+01  0.15129401783E+02  0.60807661808E+02  0.00000000000E+00 0.  1.
         -1    1    1    2    0  503  0.15525904764E+03 -0.31264817427E+02  0.10900365467E+04  0.11014819717E+04  0.00000000000E+00 0. -1.
<scales pt_clust_3="159.75523" pt_clust_4="153.21261" pt_clust_5="58.89544" pt_clust_6="14000.00000"></scales>
<clustering>
<clus scale="   58.895">  2  5  1 -1</clus>
<clus scale="  159.755">  2  3  1 -1</clus>
<clus scale="  153.213">  2  4  1 -1</clus>
<clus scale="   58.895">  2  3  1 -1</clus>
</clustering>
</event>
<event>
 6    0  0.3584505E+002  0.9506084E+02  0.7546771E-02  0.1291039E+00
          1   -1    0    0  505    0 -0.00000000000E+00  0.00000000000E+00  0.62135087462E+03  0.62135087462E+03  0.00000000000E+00 0. -1.
         21   -1    0    0  501  502  0.00000000000E+00 -0.00000000000E+00 -0.18420498252E+03  0.18420498252E+03  0.00000000000E+00 0.  1.
         21    1    1    2  503  504  0.37672018299E+02 -0.65427727759E+01 -0.10078045278E+02  0.39541823869E+02  0.00000000000E+00 0.  1.
         21    1    1    2  504  502  0.35849307444E+02 -0.76514422496E+01 -0.13677987078E+03  0.14160667521E+03  0.00000000000E+00 0.  1.
         21    1    1    2  505  503  0.29230461769E+01  0.87817152759E+02  0.12186392896E+03  0.15023719147E+03  0.00000000000E+00 0.  1.
          1    1    1    2  501    0 -0.76444371919E+02 -0.73622937733E+02  0.46213987919E+03  0.47417016660E+03  0.00000000000E+00 0. -1.
<scales pt_clust_3="58.43104" pt_clust_4="36.65675" pt_clust_5="14000.00000" pt_clust_6="95.06084"></scales>
<clustering>
<clus scale="   36.657">  2  4  1 -1</clus>
<clus scale="   58.431">  2  3  1 -1</clus>
<clus scale="   95.061">  1  6  2 -1</clus>
<clus scale="   36.657">  2  3  1 -1</clus>
</clustering>
</event>
<event>
 6    0  0.3584505E+002  0.1324133E+03  0.7546771E-02  0.1223918E+00
          1   -1    0    0  503    0 -0.00000000000E+00  0.00000000000E+00  0.33005035337E+03  0.33005035337E+03  0.00000000000E+00 0.  1.
         21   -1    0    0  505  502  0.00000000000E+00 -0.00000000000E+00 -0.49263303359E+03  0.49263303359E+03  0.00000000000E+00 0. -1.
         21    1    1    2  503  502  0.13048974083E+03 -0.10527424816E+03  0.88290074605E+02  0.18948714221E+03  0.00000000000E+00 0.  1.
         21    1    1    2  504  501 -0.48842242797E+02  0.11423369212E+03 -0.20693681678E+02  0.12594891646E+03  0.00000000000E+00 0. -1.
         21    1    1    2  505  504 -0.44464673163E+02 -0.35600503991E+02 -0.36265280490E+03  0.36709884221E+03  0.00000000000E+00 0. -1.
          1    1    1    2  501    0 -0.37182824874E+02  0.26641060027E+02  0.13247373176E+03  0.14014848609E+03  0.00000000000E+00 0.  1.
<scales pt_clust_3="14000.00000" pt_clust_4="132.41330" pt_clust_5="57.10477" pt_clust_6="45.74176"></scales>
<clustering>
<clus scale="   45.742">  1  6  2 -1</clus>
<clus scale="   57.105">  2  5  1 -1</clus>
<clus scale="  132.413">  2  4  1 -1</clus>
<clus scale="   57.105">  2  3  1 -1</clus>
</clustering>
</event>
<event>
 6    0  0.3584505E+002  0.1206258E+03  0.7546771E-02  0.1242068E+00
          2   -1    0    0  504    0 -0.00000000000E+00  0.00000000000E+00  0.17421226567E+04  0.17421226567E+04  0.00000000000E+00 0.  1.
         21   -1    0    0  503  502  0.00000000000E+00 -0.00000000000E+00 -0.17587022299E+03  0.17587022299E+03  0.00000000000E+00 0.  1.
         21    1    1    2  503  501  0.62071545854E+01  0.11041934706E+03  0.81872353979E+03  0.82615930400E+03  0.00000000000E+00 0.  1.
         21    1    1    2  504  505 -0.43686942247E+01 -0.91594519903E+02 -0.28618747124E+02  0.96060784155E+02  0.00000000000E+00 0.  1.
         21    1    1    2  505  502  0.36058284340E+02 -0.28705773298E+02 -0.10452212697E+03  0.11423264121E+03  0.00000000000E+00 0.  1.
          2    1    1    2  501    0 -0.37896744701E+02  0.98809461455E+01  0.88066976801E+03  0.88154015033E+03  0.00000000000E+00 0.  1.
<scales pt_clust_3="14000.00000" pt_clust_4="120.62575" pt_clust_5="45.88747" pt_clust_6="39.16371"></scales>
<clustering>
<clus scale="   39.164">  1  6  2 -1</clus>
<clus scale="   45.887">  2  5  1 -1</clus>
<clus scale="  120.626">  2  4  1 -1</clus>
<clus scale="   45.887">  2  3  1 -1</clus>
</clustering>
</event>
<event>
 6    0  0.3584505E+002  0.1097955E+03  0.7546771E-02  0.1260949E+00
         21   -1    0    0  505  502  0.00000000000E+00  0.00000000000E+00  0.76712131195E+01  0.76712131195E+01  0.00000000000E+00 0.  1.
          2   -1    0    0  504    0 -0.00000000000E+00 -0.00000000000E+00 -0.29693062730E+04  0.29693062730E+04  0.00000000000E+00 0. -1.
         21    1    1    2  503  501  0.47510732042E+02  0.30411109500E+02 -0.34954446758E+03  0.35406699939E+03  0.00000000000E+00 0.  1.
         21    1    1    2  504  502 -0.47488366734E+02 -0.49273360960E+02 -0.96722063712E+03  0.96963847383E+03  0.00000000000E+00 0.  1.
         21    1    1    2  505  503  0.64017652046E+02 -0.23428845545E+02 -0.37929886927E+03  0.38537618349E+03  0.00000000000E+00 0.  1.
          2    1    1    2  501    0 -0.64040017354E+02  0.42291097005E+02 -0.12655710859E+04  0.12678958294E+04  0.00000000000E+00 0. -1.
<scales pt_clust_3="50.45385" pt_clust_4="68.43251" pt_clust_5="50.45385" pt_clust_6="94.75638"></scales>
<clustering>
<clus scale="   50.454">  3  5 -1 -1</clus>
<clus scale="   68.433">  2  4  1 -1</clus>
<clus scale="   94.756">  2  6  1 -1</clus>
<clus scale="  109.795">  1  3  2 -1</clus>
</clustering>
</event>
<event>
 6    0  0.3584505E+002  0.7675827E+02  0.7546771E-02  0.1338511E+00
         21   -1    0    0  504  502  0.00000000000E+00  0.00000000000E+00  0.12897527115E+03  0.12897527115E+03  0.00000000000E+00 0.  1.
          2   -1    0    0  505    0 -0.00000000000E+00 -0.00000000000E+00 -0.13960251594E+04  0.13960251594E+04  0.00000000000E+00 0. -1.
         21    1    1    2  503  502 -0.22684432245E+02 -0.24149513549E+02 -0.15395545584E+02  0.36534987269E+02  0.00000000000E+00 0.  1.
         21    1    1    2  504  501 -0.18446627636E+02  0.79204733459E+02  0.84614954266E+02  0.11735995211E+03  0.00000000000E+00 0.  1.
         21    1    1    2  505  503  0.44858766029E+02 -0.10475587345E+03 -0.17540776303E+03  0.20917453297E+03  0.00000000000E+00 0. -1.
          2    1    1    2  501    0 -0.37277061472E+01  0.49700653538E+02 -0.11608615339E+04  0.11619309582E+04  0.00000000000E+00 0. -1.
<scales pt_clust_3="33.13280" pt_clust_4="14000.00000" pt_clust_5="76.75827" pt_clust_6="49.73928"></scales>
<clustering>
<clus scale="   33.133">  1  3  2 -1</clus>
<clus scale="   49.739">  2  6  1 -1</clus>
<clus scale="   76.758">  2  5  1 -1</clus>
<clus scale="   33.133">  1  3  2 -1</clus>
</clustering>
</event>
<event>
 6    0  0.3584505E+002  0.1610370E+03  0.7546771E-02  0.1187531E+00
         21   -1    0    0  505  502  0.00000000000E+00  0.00000000000E+00  0.65057076521E+03  0.65057076521E+03  0.00000000000E+00 0. -1.
         -1   -1    0    0    0  501 -0.00000000000E+00 -0.00000000000E+00 -0.73777194103E+03  0.73777194103E+03  0.00000000000E+00 0.  1.
         21    1    1    2  503  502  0.36800403646E+02 -0.10027157636E+02  0.60472515210E+02  0.71496424348E+02  0.00000000000E+00 0. -1.
         21    1    1    2  504  503  0.45201388815E+02 -0.16562325764E+03  0.20848531360E+03  0.27007472116E+03  0.00000000000E+00 0. -1.
         21    1    1    2  505  501 -0.81528333577E+02  0.14383906790E+03  0.32512223139E+03  0.36474787453E+03  0.00000000000E+00 0. -1.
         -1    1    1    2    0  504 -0.47345888351E+00  0.31811347378E+02 -0.68128123602E+03  0.68202368620E+03  0.00000000000E+00 0.  1.
<scales pt_clust_3="37.39648" pt_clust_4="161.03696" pt_clust_5="14000.00000" pt_clust_6="31.81487"></scales>
<clustering>
<clus scale="   31.815">  2  6  1 -1</clus>
<clus scale="   37.396">  1  3  2 -1</clus>
<clus scale="  161.037">  2  4  1 -1</clus>
<clus scale="   37.396">  1  3  2 -1</clus>
</clustering>
</event>
<event>
 6    0  0.3584505E+002  0.1190317E+03  0.7546771E-02  0.1244703E+00
          3   -1    0    0  505    0 -0.00000000000E+00  0.00000000000E+00  0.69024626581E+03  0.69024626581E+03  0.00000000000E+00 0.  1.
         21   -1    0    0  504  502  0.00000000000E+00 -0.00000000000E+00 -0.68783269020E+03  0.68783269020E+03  0.00000000000E+00 0.  1.
         21    1    1    2  503  501 -0.69761166093E+02 -0.56281579742E+02 -0.96201377737E+02  0.13148741990E+03  0.00000000000E+00 0.  1.
         21    1    1    2  504  503 -0.41853964788E+02 -0.20958838019E+02 -0.14311155970E+03  0.15057206175E+03  0.00000000000E+00 0.  1.
         21    1    1    2  505  502  0.67156655445E+02  0.65227909416E+02 -0.42120823779E+03  0.43148705209E+03  0.00000000000E+00 0.  1.
          3    1    1    2  501    0  0.44458475436E+02  0.12012508345E+02  0.66293475083E+03  0.66453242227E+03  0.00000000000E+00 0.  1.
<scales pt_clust_3="44.91379" pt_clust_4="44.91379" pt_clust_5="101.51700" pt_clust_6="46.05276"></scales>
<clustering>
<clus scale="   44.914">  3  4 -1 -1</clus>
<clus scale="   46.053">  1  6  2 -1</clus>
<clus scale="  101.517">  2  5  1 -1</clus>
<clus scale="  101.517">  2  3  1 -1</clus>
</clustering>
</event>
<event>
 6    0  0.3584505E+002  0.1194263E+03  0.7546771E-02  0.1244046E+00
         21   -1    0    0  505  502  0.00000000000E+00  0.00000000000E+00  0.54886464150E+02  0.54886464150E+02  0.00000000000E+00 0. -1.
          2   -1    0    0  503    0 -0.00000000000E+00 -0.00000000000E+00 -0.25939944283E+04  0.25939944283E+04  0.00000000000E+00 0. -1.
         21    1    1    2  503  504 -0.16176249445E+03 -0.20442192264E+02 -0.28577024886E+03  0.32901310455E+03  0.00000000000E+00 0. -1.
         21    1    1    2  504  502  0.56799024773E+02 -0.71805699547E+02 -0.42509506859E+02  0.10094179450E+03  0.00000000000E+00 0. -1.
         21    1    1    2  505  501  0.58789287973E+02  0.64030147621E+02 -0.51873500052E+03  0.52596771854E+03  0.00000000000E+00 0. -1.
          2    1    1    2  501    0  0.46174181704E+02  0.28217744189E+02 -0.16920932079E+04  0.16929582749E+04  0.00000000000E+00 0. -1.
<scales pt_clust_3="14000.00000" pt_clust_4="92.17179" pt_clust_5="119.42630" pt_clust_6="54.11373"></scales>
<clustering>
<clus scale="   54.114">  2  6  1 -1</clus>
<clus scale="   92.172">  1  4  2 -1</clus>
<clus scale="  119.426">  2  5  1 -1</clus>
<clus scale="   92.172">  1  3  2 -1</clus>
</clustering>
</event>
<event>
 6    0  0.3584505E+002  0.1268471E+03  0.7546771E-02  0.1232210E+00
          2   -1    0    0  505    0 -0.00000000000E+00  0.00000000000E+00  0.82759128698E+03  0.82759128698E+03  0.00000000000E+00 0.  1.
         21   -1    0    0  503  502  0.00000000000E+00 -0.00000000000E+00 -0.19634774663E+03  0.19634774663E+03  0.00000000000E+00 0. -1.
         21    1    1    2  503  504 -0.21077205736E+02  0.21894661401E+02 -0.10488729403E+03  0.10920150754E+03  0.00000000000E+00 0. -1.
         21    1    1    2  504  501 -0.10345738180E+03  0.63385794812E+02  0.23328893602E+03  0.26295420990E+03  0.00000000000E+00 0. -1.
         21    1    1    2  505  502  0.98365502175E+02 -0.11743254254E+03  0.60932739458E+01  0.15330786690E+03  0.00000000000E+00 0. -1.
          2    1    1    2  501    0  0.26169085358E+02  0.32152086328E+02  0.49674862441E+03  0.49847544928E+03  0.00000000000E+00 0.  1.
<scales pt_clust_3="30.39120" pt_clust_4="126.84715" pt_clust_5="14000.00000" pt_clust_6="41.49230"></scales>
<clustering>
<clus scale="   30.391">  2  3  1 -1</clus>
<clus scale="   41.492">  1  6  2 -1</clus>
<clus scale="  126.847">  1  4  2 -1</clus>
<clus scale="   30.391">  2  3  1 -1</clus>
</clustering>
</event>
<event>
 6    0  0.3584505E+002  0.1365001E+03  0.7546771E-02  0.1218117E+00
          2   -1    0    0  503    0 -0.00000000000E+00  0.00000000000E+00  0.18161548785E+04  0.18161548785E+04  0.00000000000E+00 0.  1.
         21   -1    0    0  505  502  0.00000000000E+00 -0.00000000000E+00 -0.36374551222E+03  0.36374551222E+03  0.00000000000E+00 0. -1.
         21    1    1    2  503  504 -0.20832095067E+03 -0.30443090859E+02  0.55772895198E+03  0.59614258709E+03  0.00000000000E+00 0. -1.
         21    1    1    2  504  502  0.57013887523E+02  0.88771581078E+02 -0.30881444796E+03  0.32633930234E+03  0.00000000000E+00 0. -1.
         21    1    1    2  505  501  0.56641225914E+02 -0.17705782485E+02  0.10843600545E+02  0.60326668060E+02  0.00000000000E+00 0.  1.
          2    1    1    2  501    0  0.94665837232E+02 -0.40622707734E+02  0.11926512617E+04  0.11970918332E+04  0.00000000000E+00 0.  1.
<scales pt_clust_3="136.50008" pt_clust_4="14000.00000" pt_clust_5="59.34411" pt_clust_6="103.40036"></scales>
<clustering>
<clus scale="   59.344">  2  5  1 -1</clus>
<clus scale="  103.400">  1  6  2 -1</clus>
<clus scale="  136.500">  1  3  2 -1</clus>
<clus scale="   59.344">  2  3  1 -1</clus>
</clustering>
</event>
<event>
 6    0  0.3584505E+002  0.1236800E+03  0.7546771E-02  0.1237147E+00
         21   -1    0    0  504  502  0.00000000000E+00  0.00000000000E+00  0.42036050758E+02  0.42036050758E+02  0.00000000000E+00 0.  1.
         -1   -1    0    0    0  501 -0.00000000000E+00 -0.00000000000E+00 -0.12718472998E+04  0.12718472998E+04  0.00000000000E+00 0.  1.
         21    1    1    2  503  505 -0.75924026887E+02  0.14935793703E+02 -0.46997582910E+03  0.47630328126E+03  0.00000000000E+00 0.  1.
         21    1    1    2  504  501  0.11805067147E+03 -0.86831089727E+02 -0.18700348738E+03  0.23758346632E+03  0.00000000000E+00 0.  1.
         21    1    1    2  505  502 -0.36830254986E+02  0.10351789770E+03 -0.22199715454E+03  0.24769973648E+03  0.00000000000E+00 0.  1.
         -1    1    1    2    0  503 -0.52963895991E+01 -0.31622601678E+02 -0.35083477802E+03  0.35229686650E+03  0.00000000000E+00 0.  1.
<scales pt_clust_3="78.65815" pt_clust_4="123.68000" pt_clust_5="14000.00000" pt_clust_6="32.06307"></scales>
<clustering>
<clus scale="   32.063">  2  6  1 -1</clus>
<clus scale="   78.658">  2  3  1 -1</clus>
<clus scale="  123.680">  1  4  2 -1</clus>
<clus scale="  123.680">  1  3  2 -1</clus>
</clustering>
</event>
<event>
 6    0  0.3584505E+002  0.8138986E+02  0.7546771E-02  0.1325153E+00
         21   -1    0    0  503  502  0.00000000000E+00  0.00000000000E+00  0.61054627834E+03  0.61054627834E+03  0.00000000000E+00 0.  1.
          3   -1    0    0  504    0 -0.00000000000E+00 -0.00000000000E+00 -0.16162477939E+04  0.16162477939E+04  0.00000000000E+00 0.  1.
         21    1    1    2  503  501  0.27496166312E+02  0.11966115220E+03 -0.64484140803E+02  0.13868321789E+03  0.00000000000E+00 0.  1.
         21    1    1    2  504  505 -0.40317985969E+02 -0.11975123486E+02  0.94811200395E+02  0.10372129625E+03  0.00000000000E+00 0.  1.
         21    1    1    2  505  502  0.28545747551E+02 -0.29039911609E+02  0.47223884363E+03  0.47399124634E+03  0.00000000000E+00 0.  1.
          3    1    1    2  501    0 -0.15723927895E+02 -0.78646117107E+02 -0.15082674188E+04  0.15103983117E+04  0.00000000000E+00 0.  1.
<scales pt_clust_3="81.38986" pt_clust_4="38.39023" pt_clust_5="40.72071" pt_clust_6="14000.00000"></scales>
<clustering>
<clus scale="   40.721">  1  5  2 -1</clus>
<clus scale="   38.390">  1  4  2 -1</clus>
<clus scale="   81.390">  1  3  2 -1</clus>
<clus scale="   40.721">  1  3  2 -1</clus>
</clustering>
</event>
<event>
 6    0  0.3584505E+002  0.8701754E+02  0.7546771E-02  0.1310239E+00
          2   -1    0    0  504    0 -0.00000000000E+00  0.00000000000E+00  0.13496372186E+04  0.13496372186E+04  0.00000000000E+00 0.  1.
         21   -1    0    0  503  502  0.00000000000E+00 -0.00000000000E+00 -0.59194542521E+03  0.59194542521E+03  0.00000000000E+00 0.  1.
         21    1    1    2  503  501 -0.56096965178E+02 -0.79721997329E+02  0.25272343366E+03  0.27087192597E+03  0.00000000000E+00 0.  1.
         21    1    1    2  504  505 -0.42348170471E+02  0.75089498201E+02 -0.86430570452E+02  0.12207392756E+03  0.00000000000E+00 0.  1.
         21    1    1    2  505  502  0.28985580291E+02  0.13113331551E+02 -0.47694439151E+03  0.47800426350E+03  0.00000000000E+00 0.  1.
          2    1    1    2  501    0  0.69459555358E+02 -0.84808324224E+01  0.10683433217E+04  0.10706325268E+04  0.00000000000E+00 0.  1.
<scales pt_clust_3="14000.00000" pt_clust_4="87.01754" pt_clust_5="31.81389" pt_clust_6="70.24738"></scales>
<clustering>
<clus scale="   31.814">  2  5  1 -1</clus>
<clus scale="   70.247">  1  6  2 -1</clus>
<clus scale="   87.018">  2  4  1 -1</clus>
<clus scale="   31.814">  2  3  1 -1</clus>
</clustering>
</event>
<event>
 6    0  0.3584505E+002  0.5560929E+02  0.7546771E-02  0.1417239E+00
          2   -1    0    0  505    0 -0.00000000000E+00  0.00000000000E+00  0.23011294842E+04  0.23011294842E+04  0.00000000000E+00 0. -1.
         21   -1    0    0  501  502  0.00000000000E+00 -0.00000000000E+00 -0.93216692405E+02  0.93216692405E+02  0.00000000000E+00 0.  1.
         21    1    1    2  503  502 -0.37016393194E+02  0.36538859015E+02 -0.28033605682E+02  0.59086247391E+02  0.00000000000E+00 0.  1.
         21    1    1    2  504  503  0.11335918403E+02 -0.85824436227E+02 -0.68473413193E+01  0.86840215239E+02  0.00000000000E+00 0.  1.
         21    1    1    2  505  504 -0.31025557265E+02  0.59635032687E+02  0.48006298498E+03  0.48474672962E+03  0.00000000000E+00 0. -1.
          2    1    1    2  501    0  0.56706032056E+02 -0.10349455475E+02  0.17627307538E+04  0.17636729844E+04  0.00000000000E+00 0. -1.
<scales pt_clust_3="52.01251" pt_clust_4="56.51165" pt_clust_5="14000.00000" pt_clust_6="55.60929"></scales>
<clustering>
<clus scale="   52.013">  2  3  1 -1</clus>
<clus scale="   56.512">  2  4  1 -1</clus>
<clus scale="   55.609">  1  6  2 -1</clus>
<clus scale="   52.013">  2  3  1 -1</clus>
</clustering>
</event>
<event>
 6    0  0.3584505E+002  0.9851944E+02  0.7546771E-02  0.1283441E+00
         21   -1    0    0  503  502  0.00000000000E+00  0.00000000000E+00  0.94095661767E+03  0.94095661767E+03  0.00000000000E+00 0. -1.
          1   -1    0    0  504    0 -0.00000000000E+00 -0.00000000000E+00 -0.14983408108E+04  0.14983408108E+04  0.00000000000E+00 0.  1.
         21    1    1    2  503  501 -0.14771419584E+03 -0.62642395573E+02  0.92693734028E+02  0.18529889828E+03  0.00000000000E+00 0.  1.
         21    1    1    2  504  505  0.27638244879E+02  0.66542538699E+02  0.33488077659E+02  0.79455858071E+02  0.00000000000E+00 0.  1.
         21    1    1    2  505  502  0.69096766183E+02  0.30096689287E+01  0.74341968910E+03  0.74662993199E+03  0.00000000000E+00 0. -1.
          1    1    1    2  501    0  0.50979184779E+02 -0.69098120544E+01 -0.14269856939E+04  0.14279127401E+04  0.00000000000E+00 0.  1.
<scales pt_clust_3="98.51944" pt_clust_4="14000.00000" pt_clust_5="70.30895" pt_clust_6="51.44534"></scales>
<clustering>
<clus scale="   51.445">  2  6  1 -1</clus>
<clus scale="   70.309">  1  5  2 -1</clus>
<clus scale="   98.519">  1  3  2 -1</clus>
<clus scale="   70.309">  1  3  2 -1</clus>
</clustering>
</event>
<event>
 6    0  0.3584505E+002  0.1254397E+03  0.7546771E-02  0.1234384E+00
         21   -1    0    0  503  502  0.00000000000E+00  0.00000000000E+00  0.29691410642E+03  0.29691410642E+03  0.00000000000E+00 0.  1.
         -4   -1    0    0    0  501 -0.00000000000E+00 -0.00000000000E+00 -0.32311860714E+03  0.32311860714E+03  0.00000000000E+00 0.  1.
         21    1    1    2  503  505  0.12242172159E+03  0.63313855882E+02  0.12458456809E+03  0.18578761226E+03  0.00000000000E+00 0.  1.
         21    1    1    2  504  502  0.20656865777E+02 -0.31660266652E+02  0.96875914929E+02  0.10399048746E+03  0.00000000000E+00 0.  1.
         21    1    1    2  505  501 -0.95447819378E+02 -0.19980348642E+02 -0.22856602703E+02  0.10015949702E+03  0.00000000000E+00 0. -1.
         -4    1    1    2    0  504 -0.47630767987E+02 -0.11673240588E+02 -0.22480838103E+03  0.23009511682E+03  0.00000000000E+00 0.  1.
<scales pt_clust_3="14000.00000" pt_clust_4="37.80316" pt_clust_5="125.43972" pt_clust_6="48.87416"></scales>
<clustering>
<clus scale="   37.803">  1  4  2 -1</clus>
<clus scale="   48.874">  2  6  1 -1</clus>
<clus scale="  125.440">  2  5  1 -1</clus>
<clus scale="   37.803">  1  3  2 -1</clus>
</clustering>
</event>
<event>
 6    0  0.3584505E+002  0.1502776E+03  0.7546771E-02  0.1200132E+00
          1   -1    0    0  505    0 -0.00000000000E+00  0.00000000000E+00  0.16861216928E+04  0.16861216928E+04  0.00000000000E+00 0.  1.
         21   -1    0    0  503  502  0.00000000000E+00 -0.00000000000E+00 -0.77260704347E+02  0.77260704347E+02  0.00000000000E+00 0. -1.
         21    1    1    2  503  501 -0.11725892583E+03 -0.97700778962E+02  0.10281121447E+03  0.18402511709E+03  0.00000000000E+00 0. -1.
         21    1    1    2  504  502  0.66232018259E+02 -0.60150218820E+02  0.42142479777E+02  0.98897510932E+02  0.00000000000E+00 0. -1.
         21    1    1    2  505  504  0.87579144014E+01  0.67927701547E+02  0.17804181011E+03  0.19076100191E+03  0.00000000000E+00 0. -1.
          1    1    1    2  501    0  0.42268993172E+02  0.89923296236E+02  0.12858654841E+04  0.12896987672E+04  0.00000000000E+00 0.  1.
<scales pt_clust_3="14000.00000" pt_clust_4="87.66876" pt_clust_5="68.48995" pt_clust_6="150.27760"></scales>
<clustering>
<clus scale="   68.490">  1  5  2 -1</clus>
<clus scale="   87.669">  2  4  1 -1</clus>
<clus scale="  150.278">  1  6  2 -1</clus>
<clus scale="   87.669">  2  3  1 -1</clus>
</clustering>
</event>
<event>
 6    0  0.3584505E+002  0.1105022E+03  0.7546771E-02  0.1259643E+00
         21   -1    0    0  503  502  0.00000000000E+00  0.00000000000E+00  0.48948010238E+03  0.48948010238E+03  0.00000000000E+00 0. -1.
          2   -1    0    0  505    0 -0.00000000000E+00 -0.00000000000E+00 -0.51568310592E+03  0.51568310592E+03  0.00000000000E+00 0.  1.
         21    1    1    2  503  504 -0.99967204524E+02  0.16026109227E+02  0.10824569715E+03  0.14821406515E+03  0.00000000000E+00 0. -1.
         21    1    1    2  504  501  0.93132545745E+02 -0.15408041829E+02 -0.21998372834E+03  0.23938237104E+03  0.00000000000E+00 0.  1.
         21    1    1    2  505  502 -0.12324652694E+02 -0.41479634725E+02  0.34828819958E+03  0.35096599141E+03  0.00000000000E+00 0. -1.
          2    1    1    2  501    0  0.19159311472E+02  0.40861567328E+02 -0.26275317194E+03  0.26660078069E+03  0.00000000000E+00 0.  1.
<scales pt_clust_3="110.50221" pt_clust_4="14000.00000" pt_clust_5="43.27190" pt_clust_6="44.54183"></scales>
<clustering>
<clus scale="   43.272">  1  5  2 -1</clus>
<clus scale="   44.542">  2  6  1 -1</clus>
<clus scale="  110.502">  1  3  2 -1</clus>
<clus scale="   43.272">  1  3  2 -1</clus>
</clustering>
</event>
<event>
 6    0  0.3584505E+002  0.1375609E+03  0.7546771E-02  0.1216649E+00
         21   -1    0    0  503  502  0.00000000000E+00  0.00000000000E+00  0.18934961743E+03  0.18934961743E+03  0.00000000000E+00 0.  1.
          2   -1    0    0  502    0 -0.00000000000E+00 -0.00000000000E+00 -0.32534286423E+03  0.32534286423E+03  0.00000000000E+00 0. -1.
         21    1    1    2  503  504 -0.56353670156E+02 -0.16458799990E+02  0.89484744033E+02  0.10702405174E+03  0.00000000000E+00 0.  1.
         21    1    1    2  504  505 -0.81108376397E+02  0.23006826336E+02  0.43578401911E+02  0.94905004573E+02  0.00000000000E+00 0.  1.
         21    1    1    2  505  501  0.75311506657E+02  0.24147615071E+02 -0.85079753133E+02  0.11616150284E+03  0.00000000000E+00 0. -1.
          2    1    1    2  501    0  0.62150539897E+02 -0.30695641418E+02 -0.18397663961E+03  0.19660192251E+03  0.00000000000E+00 0. -1.
<scales pt_clust_3="53.63316" pt_clust_4="53.63316" pt_clust_5="121.62300" pt_clust_6="69.31747"></scales>
<clustering>
<clus scale="   53.633">  3  4 -1 -1</clus>
<clus scale="   69.317">  2  6  1 -1</clus>
<clus scale="  121.623">  2  5  1 -1</clus>
<clus scale="  137.561">  1  3  2 -1</clus>
</clustering>
</event>
<event>
 6    0  0.3584505E+002  0.1063186E+03  0.7546771E-02  0.1267543E+00
          1   -1    0    0  505    0 -0.00000000000E+00  0.00000000000E+00  0.85487637948E+03  0.85487637948E+03  0.00000000000E+00 0.  1.
         21   -1    0    0  503  502  0.00000000000E+00 -0.00000000000E+00 -0.31773336121E+03  0.31773336121E+03  0.00000000000E+00 0.  1.
         21    1    1    2  503  504 -0.29373612859E+02 -0.15424305630E+02 -0.19452479317E+03  0.19733376167E+03  0.00000000000E+00 0.  1.
         21    1    1    2  504  501 -0.10187133238E+03 -0.36938764697E+02  0.11804550993E+03  0.16024039164E+03  0.00000000000E+00 0.  1.
         21    1    1    2  505  502  0.86708050292E+02  0.10055062487E+03 -0.54627591801E+02  0.14357189116E+03  0.00000000000E+00 0.  1.
          1    1    1    2  501    0  0.44536894943E+02 -0.48187554540E+02  0.66824989331E+03  0.67146369622E+03  0.00000000000E+00 0.  1.
<scales pt_clust_3="33.17708" pt_clust_4="14000.00000" pt_clust_5="106.31861" pt_clust_6="65.50466"></scales>
<clustering>
<clus scale="   33.177">  2  3  1 -1</clus>
<clus scale="   65.505">  1  6  2 -1</clus>
<clus scale="  106.319">  2  5  1 -1</clus>
<clus scale="   33.177">  2  3  1 -1</clus>
</clustering>
</event>
<event>
 6    0  0.3584505E+002  0.6034344E+02  0.7546771E-02  0.1396396E+00
         21   -1    0    0  504  502  0.00000000000E+00  0.00000000000E+00  0.40892992910E+03  0.40892992910E+03  0.00000000000E+00 0. -1.
          2   -1    0    0  503    0 -0.00000000000E+00 -0.00000000000E+00 -0.73096383668E+03  0.73096383668E+03  0.00000000000E+00 0.  1.
         21    1    1    2  503  502  0.26060459595E+01  0.72638584988E+02 -0.60182411526E+02  0.94366721686E+02  0.00000000000E+00 0. -1.
         21    1    1    2  504  505 -0.35899475845E+02  0.37584467380E+02  0.31639527830E+03  0.32063583188E+03  0.00000000000E+00 0. -1.
         21    1    1    2  505  501 -0.10229268438E+02 -0.67277948014E+02  0.55738448445E+02  0.87964395393E+02  0.00000000000E+00 0. -1.
          2    1    1    2  501    0  0.43522698323E+02 -0.42945104353E+02 -0.63398522280E+03  0.63692681682E+03  0.00000000000E+00 0.  1.
<scales pt_clust_3="60.34344" pt_clust_4="51.97465" pt_clust_5="53.86747" pt_clust_6="14000.00000"></scales>
<clustering>
<clus scale="   51.975">  1  4  2 -1</clus>
<clus scale="   53.867">  1  5  2 -1</clus>
<clus scale="   60.343">  1  3  2 -1</clus>
<clus scale="   51.975">  1  3  2 -1</clus>
</clustering>
</event>
<event>
 6    0  0.3584505E+002  0.8495639E+02  0.7546771E-02  0.1315547E+00
         21   -1    0    0  503  502  0.00000000000E+00  0.00000000000E+00  0.13234538418E+03  0.13234538418E+03  0.00000000000E+00 0.  1.
          4   -1    0    0  504    0 -0.00000000000E+00 -0.00000000000E+00 -0.19260562265E+03  0.19260562265E+03  0.00000000000E+00 0. -1.
         21    1    1    2  503  505 -0.25242806005E+02  0.29448579699E+02  0.31460970022E+02  0.49942073805E+02  0.00000000000E+00 0. -1.
         21    1    1    2  504  502 -0.39547415391E+01 -0.44025623124E+02 -0.43040297436E+02  0.61695726558E+02  0.00000000000E+00 0.  1.
         21    1    1    2  505  501  0.40723244507E+01 -0.90024533407E+02  0.10174048993E+02  0.90689093691E+02  0.00000000000E+00 0.  1.
          4    1    1    2  501    0  0.25125223093E+02  0.10460157683E+03 -0.58854960049E+02  0.12262411277E+03  0.00000000000E+00 0. -1.
<scales pt_clust_3="38.78683" pt_clust_4="41.54374" pt_clust_5="14000.00000" pt_clust_6="84.95639"></scales>
<clustering>
<clus scale="   38.787">  1  3  2 -1</clus>
<clus scale="   41.544">  2  4  1 -1</clus>
<clus scale="   84.956">  2  6  1 -1</clus>
<clus scale="   38.787">  1  3  2 -1</clus>
</clustering>
</event>
<event>
 6    0  0.3584505E+002  0.1006675E+03  0.7546771E-02  0.1278898E+00
         21   -1    0    0  503  502  0.00000000000E+00  0.00000000000E+00  0.82318173750E+02  0.82318173750E+02  0.00000000000E+00 0.  1.
          2   -1    0    0  504    0 -0.00000000000E+00 -0.00000000000E+00 -0.91077301156E+03  0.91077301156E+03  0.00000000000E+00 0. -1.
         21    1    1    2  503  501  0.58523742612E+01 -0.47855228595E+02  0.28079882073E+01  0.48293456971E+02  0.00000000000E+00 0.  1.
         21    1    1    2  504  505 -0.70196000771E+02  0.58149100657E+02 -0.27424677831E+03  0.28899842880E+03  0.00000000000E+00 0.  1.
         21    1    1    2  505  502 -0.42095998460E+02  0.20289611350E+02  0.31887229927E+02  0.56573287402E+02  0.00000000000E+00 0.  1.
          2    1    1    2  501    0  0.10643962497E+03 -0.30583483412E+02 -0.58890327763E+03  0.59922601214E+03  0.00000000000E+00 0. -1.
<scales pt_clust_3="40.91272" pt_clust_4="100.66751" pt_clust_5="46.73052" pt_clust_6="14000.00000"></scales>
<clustering>
<clus scale="   46.731">  1  5  2 -1</clus>
<clus scale="   40.913">  1  3  2 -1</clus>
<clus scale="  100.668">  1  4  2 -1</clus>
<clus scale="   46.731">  1  3  2 -1</clus>
</clustering>
</event>
<event>
 6    0  0.3584505E+002  0.9807726E+02  0.7546771E-02  0.1284392E+00
          2   -1    0    0  505    0 -0.00000000000E+00  0.00000000000E+00  0.14154407906E+04  0.14154407906E+04  0.00000000000E+00 0. -1.
         21   -1    0    0  503  502  0.00000000000E+00 -0.00000000000E+00 -0.13324067744E+03  0.13324067744E+03  0.00000000000E+00 0.  1.
         21    1    1    2  503  501  0.66882187288E+02  0.23973804704E+02  0.73425524332E+02  0.10217278460E+03  0.00000000000E+00 0.  1.
         21    1    1    2  504  502  0.14810253286E+02  0.44417326901E+02 -0.89200792735E+02  0.10074236426E+03  0.00000000000E+00 0.  1.
         21    1    1    2  505  504 -0.13620140687E+03 -0.26360213448E+02  0.18792543241E+03  0.23358435785E+03  0.00000000000E+00 0.  1.
          2    1    1    2  501    0  0.54508966301E+02 -0.42030918158E+02  0.11100499492E+04  0.11121819613E+04  0.00000000000E+00 0. -1.
<scales pt_clust_3="98.07726" pt_clust_4="46.82139" pt_clust_5="14000.00000" pt_clust_6="68.41414"></scales>
<clustering>
<clus scale="   46.821">  2  4  1 -1</clus>
<clus scale="   68.414">  1  6  2 -1</clus>
<clus scale="   98.077">  2  3  1 -1</clus>
<clus scale="   46.821">  2  3  1 -1</clus>
</clustering>
</event>
<event>
 6    0  0.3584505E+002  0.8401649E+02  0.7546771E-02  0.1318025E+00
         21   -1    0    0  503  502  0.00000000000E+00  0.00000000000E+00  0.41522076758E+02  0.41522076758E+02  0.00000000000E+00 0.  1.
          1   -1    0    0  505    0 -0.00000000000E+00 -0.00000000000E+00 -0.31733454254E+04  0.31733454254E+04  0.00000000000E+00 0.  1.
         21    1    1    2  503  504  0.25354754704E+01  0.39017022615E+02  0.56879137038E+01  0.39510872579E+02  0.00000000000E+00 0. -1.
         21    1    1    2  504  501 -0.74099755788E+02  0.92167667648E+01 -0.97647880275E+02  0.12292612058E+03  0.00000000000E+00 0.  1.
         21    1    1    2  505  502  0.62949317090E+02 -0.88472375642E+02 -0.47561786131E+03  0.48785482244E+03  0.00000000000E+00 0.  1.
          1    1    1    2  501    0  0.86149632279E+01  0.40238586261E+02 -0.25642455208E+04  0.25645756866E+04  0.00000000000E+00 0.  1.
<scales pt_clust_3="39.09932" pt_clust_4="14000.00000" pt_clust_5="84.01649" pt_clust_6="41.48798"></scales>
<clustering>
<clus scale="   39.099">  1  3  2 -1</clus>
<clus scale="   41.488">  2  6  1 -1</clus>
<clus scale="   84.016">  2  5  1 -1</clus>
<clus scale="   39.099">  1  3  2 -1</clus>
</clustering>
</event>
<event>
 6    0  0.3584505E+002  0.1067073E+03  0.7546771E-02  0.1266792E+00
         21   -1    0    0  505  502  0.00000000000E+00  0.00000000000E+00  0.11185826465E+03  0.11185826465E+03  0.00000000000E+00 0.  1.
          2   -1    0    0  503    0 -0.00000000000E+00 -0.00000000000E+00 -0.76914853258E+03  0.76914853258E+03  0.00000000000E+00 0. -1.
         21    1    1    2  503  502 -0.31414661431E+02 -0.17628614313E+02 -0.79225501246E+01  0.36883814823E+02  0.00000000000E+00 0.  1.
         21    1    1    2  504  501 -0.49091572595E+02  0.72939849105E+02 -0.24948761881E+02  0.91392805005E+02  0.00000000000E+00 0. -1.
         21    1    1    2  505  504  0.58388966491E+02 -0.11366653558E+03 -0.26259464095E+01  0.12781333387E+03  0.00000000000E+00 0.  1.
          2    1    1    2  501    0  0.22117267535E+02  0.58355300790E+02 -0.62179300952E+03  0.62491684354E+03  0.00000000000E+00 0. -1.
<scales pt_clust_3="36.02290" pt_clust_4="14000.00000" pt_clust_5="106.70733" pt_clust_6="61.96417"></scales>
<clustering>
<clus scale="   36.023">  1  3  2 -1</clus>
<clus scale="   61.964">  2  6  1 -1</clus>
<clus scale="  106.707">  1  5  2 -1</clus>
<clus scale="   36.023">  1  3  2 -1</clus>
</clustering>
</event>
<event>
 6    0  0.5485466E+002  0.2188156E+03  0.7546771E-02  0.1134769E+00
          2   -1    0    0  505    0 -0.00000000000E+00  0.00000000000E+00  0.28193835570E+04  0.28193835570E+04  0.00000000000E+00 0. -1.
         21   -1    0    0  501  502  0.00000000000E+00 -0.00000000000E+00 -0.57170590047E+03  0.57170590047E+03  0.00000000000E+00 0. -1.
         21    1    1    2  503  504 -0.14816583199E+03 -0.10894178877E+03  0.53558347557E+02  0.19154613988E+03  0.00000000000E+00 0. -1.
         21    1    1    2  504  502  0.14609773714E+03 -0.29147362738E+02 -0.47274161706E+03  0.49565991774E+03  0.00000000000E+00 0. -1.
         21    1    1    2  505  503 -0.55089760040E+02 -0.54371956376E+02  0.87911030738E+02  0.11713044278E+03  0.00000000000E+00 0.  1.
          2    1    1    2  501    0  0.57157854890E+02  0.19246110789E+03  0.25789498953E+04  0.25867529570E+04  0.00000000000E+00 0. -1.
<scales pt_clust_3="55.36667" pt_clust_4="148.97690" pt_clust_5="55.36667" pt_clust_6="201.48656"></scales>
<clustering>
<clus scale="   55.367">  3  5 -1 -1</clus>
<clus scale="  148.977">  2  4  1 -1</clus>
<clus scale="  201.487">  1  6  2 -1</clus>
<clus scale="  148.977">  2  3  1 -1</clus>
</clustering>
</event>
<event>
 6    0  0.3584505E+002  0.1799784E+03  0.7546771E-02  0.1167824E+00
         21   -1    0    0  505  502  0.00000000000E+00  0.00000000000E+00  0.49943870338E+03  0.49943870338E+03  0.00000000000E+00 0.  1.
         -1   -1    0    0    0  501 -0.00000000000E+00 -0.00000000000E+00 -0.60242983224E+03  0.60242983224E+03  0.00000000000E+00 0. -1.
         21    1    1    2  503  504 -0.16562487434E+03  0.33239901354E+01  0.11446245514E+02  0.16605319765E+03  0.00000000000E+00 0. -1.
         21    1    1    2  504  502  0.37239535966E+02  0.10485470451E+03  0.36039401091E+03  0.37718050745E+03  0.00000000000E+00 0.  1.
         21    1    1    2  505  501 -0.88605718460E+00  0.34043224490E+02  0.11307768391E+02  0.35883030209E+02  0.00000000000E+00 0.  1.
         -1    1    1    2    0  503  0.12927139556E+03 -0.14222191914E+03 -0.48613915368E+03  0.52275180031E+03  0.00000000000E+00 0. -1.
<scales pt_clust_3="179.97844" pt_clust_4="136.23413" pt_clust_5="34.05475" pt_clust_6="14000.00000"></scales>
<clustering>
<clus scale="   34.055">  1  5  2 -1</clus>
<clus scale="  136.234">  1  4  2 -1</clus>
<clus scale="  179.978">  1  3  2 -1</clus>
<clus scale="   34.055">  1  3  2 -1</clus>
</clustering>
</event>
<event>
 6    0  0.3584505E+002  0.1160567E+03  0.7546771E-02  0.1249748E+00
         -1   -1    0    0    0  501 -0.00000000000E+00  0.00000000000E+00  0.85483258798E+02  0.85483258798E+02  0.00000000000E+00 0.  1.
         21   -1    0    0  503  502  0.00000000000E+00 -0.00000000000E+00 -0.14737370707E+04  0.14737370707E+04  0.00000000000E+00 0. -1.
         21    1    1    2  503  504 -0.24145990665E+02 -0.35422687364E+02 -0.88485619444E+03  0.88589405714E+03  0.00000000000E+00 0. -1.
         21    1    1    2  504  505 -0.15241359147E+02  0.13586420936E+03 -0.47439009092E+03  0.49369762080E+03  0.00000000000E+00 0. -1.
         21    1    1    2  505  501  0.58426133351E+02 -0.12855239649E+03 -0.34182468353E+02  0.14528514323E+03  0.00000000000E+00 0. -1.
         -1    1    1    2    0  502 -0.19038783539E+02  0.28110874491E+02  0.51749417852E+01  0.34343508350E+02  0.00000000000E+00 0.  1.
<scales pt_clust_3="42.77152" pt_clust_4="14000.00000" pt_clust_5="116.05666" pt_clust_6="33.95138"></scales>
<clustering>
<clus scale="   33.951">  1  6  2 -1</clus>
<clus scale="   42.772">  2  3  1 -1</clus>
<clus scale="  116.057">  1  5  2 -1</clus>
<clus scale="   42.772">  2  3  1 -1</clus>
</clustering>
</event>
<event>
 6    0  0.3584505E+002  0.9864902E+02  0.7546771E-02  0.1283163E+00
         21   -1    0    0  505  502  0.00000000000E+00  0.00000000000E+00  0.34820473797E+03  0.34820473797E+03  0.00000000000E+00 0. -1.
         -2   -1    0    0    0  501 -0.00000000000E+00 -0.00000000000E+00 -0.10874642913E+03  0.10874642913E+03  0.00000000000E+00 0. -1.
         21    1    1    2  503  504  0.69055338924E+02  0.50880902738E+02  0.14419432442E+03  0.16777815499E+03  0.00000000000E+00 0. -1.
         21    1    1    2  504  502  0.48447683753E+02 -0.21484288099E+02  0.13756911464E+03  0.14742460445E+03  0.00000000000E+00 0. -1.
         21    1    1    2  505  501 -0.54974226806E+02  0.30740579504E+01  0.73548633826E+01  0.55549162555E+02  0.00000000000E+00 0. -1.
         -2    1    1    2    0  503 -0.62528795871E+02 -0.32470672589E+02 -0.49659993606E+02  0.86199245104E+02  0.00000000000E+00 0. -1.
<scales pt_clust_3="98.64902" pt_clust_4="52.99767" pt_clust_5="47.56721" pt_clust_6="14000.00000"></scales>
<clustering>
<clus scale="   52.998">  1  4  2 -1</clus>
<clus scale="   47.567">  2  5  1 -1</clus>
<clus scale="   98.649">  1  3  2 -1</clus>
<clus scale="   52.998">  1  3  2 -1</clus>
</clustering>
</event>
<event>
 6    0  0.3584505E+002  0.8926523E+02  0.7546771E-02  0.1304641E+00
         21   -1    0    0  504  502  0.00000000000E+00  0.00000000000E+00  0.12454710530E+04  0.12454710530E+04  0.00000000000E+00 0.  1.
          2   -1    0    0  505    0 -0.00000000000E+00 -0.00000000000E+00 -0.11954199479E+04  0.11954199479E+04  0.00000000000E+00 0.  1.
         21    1    1    2  503  502  0.68026899231E+01 -0.44074332201E+02  0.75604526675E+03  0.75735940525E+03  0.00000000000E+00 0.  1.
         21    1    1    2  504  501 -0.24519556621E+02  0.88692357786E+02 -0.13445813964E+02  0.92996413370E+02  0.00000000000E+00 0.  1.
         21    1    1    2  505  503  0.68566079637E+02 -0.11776218764E+03  0.43685961359E+03  0.45761945118E+03  0.00000000000E+00 0.  1.
          2    1    1    2  501    0 -0.50849212939E+02  0.73144162054E+02 -0.11294079613E+04  0.11329157311E+04  0.00000000000E+00 0.  1.
<scales pt_clust_3="44.59623" pt_clust_4="88.41572" pt_clust_5="14000.00000" pt_clust_6="89.26523"></scales>
<clustering>
<clus scale="   44.596">  1  3  2 -1</clus>
<clus scale="   88.416">  1  4  2 -1</clus>
<clus scale="   89.265">  2  6  1 -1</clus>
<clus scale="   44.596">  1  3  2 -1</clus>
</clustering>
</event>
<event>
 6    0  0.3584505E+002  0.6562679E+02  0.7546771E-02  0.1375629E+00
         21   -1    0    0  503  502  0.00000000000E+00  0.00000000000E+00  0.17011199289E+03  0.17011199289E+03  0.00000000000E+00 0. -1.
          4   -1    0    0  504    0 -0.00000000000E+00 -0.00000000000E+00 -0.27449738077E+03  0.27449738077E+03  0.00000000000E+00 0.  1.
         21    1    1    2  503  505 -0.11631828363E+02 -0.83893050190E+02  0.73604811388E+02  0.11220967677E+03  0.00000000000E+00 0. -1.
         21    1    1    2  504  502  0.23702925738E+02  0.54143626762E+02  0.17112021554E+02  0.61531961525E+02  0.00000000000E+00 0. -1.
         21    1    1    2  505  501 -0.54938528118E+02 -0.22734669133E+02  0.49375411115E+01  0.59661431131E+02  0.00000000000E+00 0. -1.
          4    1    1    2  501    0  0.42867430744E+02  0.52484092561E+02 -0.20003976194E+03  0.21120630423E+03  0.00000000000E+00 0.  1.
<scales pt_clust_3="45.72915" pt_clust_4="59.10466" pt_clust_5="14000.00000" pt_clust_6="65.62679"></scales>
<clustering>
<clus scale="   59.105">  1  4  2 -1</clus>
<clus scale="   45.729">  1  3  2 -1</clus>
<clus scale="   65.627">  2  6  1 -1</clus>
<clus scale="   59.105">  1  3  2 -1</clus>
</clustering>
</event>
<event>
 6    0  0.3584505E+002  0.6716391E+02  0.7546771E-02  0.1370012E+00
          2   -1    0    0  504    0 -0.00000000000E+00  0.00000000000E+00  0.10099129019E+04  0.10099129019E+04  0.00000000000E+00 0. -1.
         21   -1    0    0  503  502  0.00000000000E+00 -0.00000000000E+00 -0.30455468736E+03  0.30455468736E+03  0.00000000000E+00 0. -1.
         21    1    1    2  503  505  0.62399199715E+02  0.22436290625E+02 -0.26585755166E+03  0.27400234495E+03  0.00000000000E+00 0. -1.
         21    1    1    2  504  502  0.73057703387E+02  0.16632107331E+02  0.59304017287E+02  0.95556378567E+02  0.00000000000E+00 0. -1.
         21    1    1    2  505  501 -0.91815884790E+02 -0.47191534081E+02  0.15223723386E+03  0.18393850321E+03  0.00000000000E+00 0. -1.
          2    1    1    2  501    0 -0.43641018312E+02  0.81231361247E+01  0.75967451502E+03  0.76097036249E+03  0.00000000000E+00 0. -1.
<scales pt_clust_3="14000.00000" pt_clust_4="62.52452" pt_clust_5="67.16391" pt_clust_6="44.39058"></scales>
<clustering>
<clus scale="   44.391">  1  6  2 -1</clus>
<clus scale="   62.525">  1  4  2 -1</clus>
<clus scale="   67.164">  1  5  2 -1</clus>
<clus scale="   67.164">  2  3  1 -1</clus>
</clustering>
</event>
<event>
 6    0  0.3584505E+002  0.8271291E+02  0.7546771E-02  0.1321524E+00
         21   -1    0    0  503  502  0.00000000000E+00  0.00000000000E+00  0.25992368588E+03  0.25992368588E+03  0.00000000000E+00 0. -1.
          2   -1    0    0  504    0 -0.00000000000E+00 -0.00000000000E+00 -0.86029857364E+03  0.86029857364E+03  0.00000000000E+00 0. -1.
         21    1    1    2  503  501 -0.70188502080E+02 -0.10060087428E+03  0.62133662483E+02  0.13750474080E+03  0.00000000000E+00 0. -1.
         21    1    1    2  504  505  0.65431391755E+02  0.19034670780E+02 -0.79320299846E+02  0.10457196415E+03  0.00000000000E+00 0. -1.
         21    1    1    2  505  502  0.20112840369E+02  0.34033684606E+02  0.14395709816E+03  0.14928651696E+03  0.00000000000E+00 0. -1.
          2    1    1    2  501    0 -0.15355730043E+02  0.47532518890E+02 -0.72714534855E+03  0.72885903762E+03  0.00000000000E+00 0. -1.
<scales pt_clust_3="82.71291" pt_clust_4="14000.00000" pt_clust_5="39.53249" pt_clust_6="50.15002"></scales>
<clustering>
<clus scale="   39.532">  1  5  2 -1</clus>
<clus scale="   50.150">  2  6  1 -1</clus>
<clus scale="   82.713">  1  3  2 -1</clus>
<clus scale="   39.532">  1  3  2 -1</clus>
</clustering>
</event>
<event>
 6    0  0.3584505E+002  0.9079813E+02  0.7546771E-02  0.1300930E+00
         21   -1    0    0  503  502  0.00000000000E+00  0.00000000000E+00  0.28114867526E+02  0.28114867526E+02  0.00000000000E+00 0. -1.
          1   -1    0    0  504    0 -0.00000000000E+00 -0.00000000000E+00 -0.14544359894E+04  0.14544359894E+04  0.00000000000E+00 0.  1.
         21    1    1    2  503  505 -0.10586751199E+03  0.41818672890E+02 -0.18757925594E+03  0.21941446798E+03  0.00000000000E+00 0. -1.
         21    1    1    2  504  502  0.12615332562E+02 -0.29001728101E+02 -0.32491539499E+02  0.45342551621E+02  0.00000000000E+00 0. -1.
         21    1    1    2  505  501  0.75631079632E+02  0.40135626978E+02 -0.37404615565E+03  0.38372054325E+03  0.00000000000E+00 0. -1.
          1    1    1    2  501    0  0.17621099801E+02 -0.52952571767E+02 -0.83220417075E+03  0.83407329404E+03  0.00000000000E+00 0.  1.
<scales pt_clust_3="14000.00000" pt_clust_4="31.62668" pt_clust_5="90.79813" pt_clust_6="57.16498"></scales>
<clustering>
<clus scale="   31.627">  1  4  2 -1</clus>
<clus scale="   57.165">  2  6  1 -1</clus>
<clus scale="   90.798">  2  5  1 -1</clus>
<clus scale="   31.627">  1  3  2 -1</clus>
</clustering>
</event>
<event>
 6    0  0.3584505E+002  0.1010333E+03  0.7546771E-02  0.1278138E+00
         -2   -1    0    0    0  501 -0.00000000000E+00  0.00000000000E+00  0.15721907562E+03  0.15721907562E+03  0.00000000000E+00 0.  1.
         21   -1    0    0  503  502  0.00000000000E+00 -0.00000000000E+00 -0.15964846345E+04  0.15964846345E+04  0.00000000000E+00 0. -1.
         21    1    1    2  503  501  0.15018757772E+02 -0.43692814305E+02 -0.96226930630E+02  0.10674383957E+03  0.00000000000E+00 0. -1.
         21    1    1    2  504  505  0.44957908907E+02  0.37469777544E+02 -0.12254964898E+04  0.12268931675E+04  0.00000000000E+00 0. -1.
         21    1    1    2  505  502  0.39971072982E+02  0.25227910112E+02 -0.24922086758E+03  0.25366350735E+03  0.00000000000E+00 0. -1.
         -2    1    1    2    0  504 -0.99947739661E+02 -0.19004873351E+02  0.13167872910E+03  0.16640319580E+03  0.00000000000E+00 0.  1.
<scales pt_clust_3="46.20200" pt_clust_4="101.03326" pt_clust_5="46.10497" pt_clust_6="14000.00000"></scales>
<clustering>
<clus scale="   46.202">  2  3  1 -1</clus>
<clus scale="   46.105">  2  5  1 -1</clus>
<clus scale="  101.033">  2  4  1 -1</clus>
<clus scale="   46.202">  2  3  1 -1</clus>
</clustering>
</event>
<event>
 6    0  0.3584505E+002  0.1174601E+03  0.7546771E-02  0.1247347E+00
         21   -1    0    0  504  502  0.00000000000E+00  0.00000000000E+00  0.43092922975E+03  0.43092922975E+03  0.00000000000E+00 0.  1.
          2   -1    0    0  505    0 -0.00000000000E+00 -0.00000000000E+00 -0.18400261914E+04  0.18400261914E+04  0.00000000000E+00 0. -1.
         21    1    1    2  503  501  0.32059605740E+02  0.11543203730E+03  0.14274082539E+03  0.18635266778E+03  0.00000000000E+00 0.  1.
         21    1    1    2  504  503  0.30784502676E+02  0.45322803654E+01  0.24406483744E+03  0.24604038702E+03  0.00000000000E+00 0.  1.
         21    1    1    2  505  502  0.96864796582E+01 -0.82517537446E+02 -0.64358034933E+02  0.10509485494E+03  0.00000000000E+00 0.  1.
          2    1    1    2  501    0 -0.72530588074E+02 -0.37446780216E+02 -0.17315445896E+04  0.17334675115E+04  0.00000000000E+00 0. -1.
<scales pt_clust_3="14000.00000" pt_clust_4="31.11635" pt_clust_5="117.46012" pt_clust_6="81.47465"></scales>
<clustering>
<clus scale="   31.116">  1  4  2 -1</clus>
<clus scale="   81.475">  2  6  1 -1</clus>
<clus scale="  117.460">  2  5  1 -1</clus>
<clus scale="   31.116">  1  3  2 -1</clus>
</clustering>
</event>
<event>
 6    0  0.3584505E+002  0.1755511E+03  0.7546771E-02  0.1172179E+00
          1   -1    0    0  504    0 -0.00000000000E+00  0.00000000000E+00  0.15513410425E+04  0.15513410425E+04  0.00000000000E+00 0.  1.
         21   -1    0    0  503  502  0.00000000000E+00 -0.00000000000E+00 -0.80970794742E+02  0.80970794742E+02  0.00000000000E+00 0. -1.
         21    1    1    2  503  501 -0.26008993183E+02  0.17955849300E+02 -0.21411727245E+02  0.38175153098E+02  0.00000000000E+00 0. -1.
         21    1    1    2  504  505 -0.51207063076E+02 -0.20028865174E+03  0.46739052831E+03  0.51106908856E+03  0.00000000000E+00 0. -1.
         21    1    1    2  505  502  0.11256979429E+02  0.29333763862E+02 -0.11803310768E+02  0.33563483628E+02  0.00000000000E+00 0. -1.
          1    1    1    2  501    0  0.65959076830E+02  0.15299903858E+03  0.10361947574E+04  0.10495041119E+04  0.00000000000E+00 0.  1.
<scales pt_clust_3="38.67751" pt_clust_4="175.55115" pt_clust_5="31.41957" pt_clust_6="14000.00000"></scales>
<clustering>
<clus scale="   31.420">  2  5  1 -1</clus>
<clus scale="   38.678">  2  3  1 -1</clus>
<clus scale="  175.551">  2  4  1 -1</clus>
<clus scale="   31.420">  2  3  1 -1</clus>
</clustering>
</event>
<event>
 6    0  0.3584505E+002  0.1886731E+03  0.7546771E-02  0.1159664E+00
         21   -1    0    0  503  502  0.00000000000E+00  0.00000000000E+00  0.85991529206E+02  0.85991529206E+02  0.00000000000E+00 0. -1.
          2   -1    0    0  504    0 -0.00000000000E+00 -0.00000000000E+00 -0.22484982989E+04  0.22484982989E+04  0.00000000000E+00 0. -1.
         21    1    1    2  503  505  0.13114479201E+03 -0.26199276538E+02 -0.24997545934E+02  0.13605232767E+03  0.00000000000E+00 0. -1.
         21    1    1    2  504  502  0.81167763266E+02  0.12258660122E+03 -0.25861363003E+03  0.29748393272E+03  0.00000000000E+00 0. -1.
         21    1    1    2  505  501 -0.21082808726E+03 -0.63612865378E+02 -0.11253579299E+04  0.11467020317E+04  0.00000000000E+00 0. -1.
          2    1    1    2  501    0 -0.14844680113E+01 -0.32774459304E+02 -0.75353766380E+03  0.75425153602E+03  0.00000000000E+00 0. -1.
<scales pt_clust_3="134.01504" pt_clust_4="14000.00000" pt_clust_5="188.67309" pt_clust_6="32.80806"></scales>
<clustering>
<clus scale="   32.808">  2  6  1 -1</clus>
<clus scale="  134.015">  1  3  2 -1</clus>
<clus scale="  188.673">  2  5  1 -1</clus>
<clus scale="  134.015">  1  3  2 -1</clus>
</clustering>
</event>
<event>
 6    0  0.3584505E+002  0.8932337E+02  0.7546771E-02  0.1304499E+00
          2   -1    0    0  504    0 -0.00000000000E+00  0.00000000000E+00  0.12308337462E+04  0.12308337462E+04  0.00000000000E+00 0.  1.
         21   -1    0    0  501  502  0.00000000000E+00 -0.00000000000E+00 -0.82220393173E+03  0.82220393173E+03  0.00000000000E+00 0.  1.
         21    1    1    2  503  502  0.12942421067E+02  0.10412294498E+03 -0.64385624506E+03  0.65234956752E+03  0.00000000000E+00 0.  1.
         21    1    1    2  504  505  0.31094679187E+02 -0.20269056784E+02  0.16389593806E+03  0.16804639910E+03  0.00000000000E+00 0.  1.
         21    1    1    2  505  503 -0.57979378161E+02 -0.47372430755E+02 -0.16349960499E+03  0.17982735143E+03  0.00000000000E+00 0. -1.
          2    1    1    2  501    0  0.13942277907E+02 -0.36481457439E+02  0.10520897265E+04  0.10528143599E+04  0.00000000000E+00 0.  1.
<scales pt_clust_3="89.32337" pt_clust_4="37.11757" pt_clust_5="14000.00000" pt_clust_6="72.03944"></scales>
<clustering>
<clus scale="   37.118">  1  4  2 -1</clus>
<clus scale="   72.039">  1  6  2 -1</clus>
<clus scale="   89.323">  2  3  1 -1</clus>
<clus scale="   89.323">  2  3  1 -1</clus>
</clustering>
</event>
<event>
 6    0  0.3584505E+002  0.1247268E+03  0.7546771E-02  0.1235497E+00
          2   -1    0    0  505    0 -0.00000000000E+00  0.00000000000E+00  0.18058948678E+03  0.18058948678E+03  0.00000000000E+00 0. -1.
         21   -1    0    0  503  502  0.00000000000E+00 -0.00000000000E+00 -0.87387511603E+03  0.87387511603E+03  0.00000000000E+00 0. -1.
         21    1    1    2  503  501  0.32132697981E+02 -0.58524446251E+02 -0.22046616031E+03  0.23035396443E+03  0.00000000000E+00 0. -1.
         21    1    1    2  504  502 -0.59885992184E+02  0.16911489906E+03 -0.54223980664E+03  0.57114813232E+03  0.00000000000E+00 0. -1.
         21    1    1    2  505  504 -0.32466066551E+02 -0.13510306502E+03 -0.22102808165E+02  0.14069618966E+03  0.00000000000E+00 0. -1.
          2    1    1    2  501    0  0.60219360754E+02  0.24512612208E+02  0.91523145876E+02  0.11226631640E+03  0.00000000000E+00 0. -1.
<scales pt_clust_3="67.35861" pt_clust_4="14000.00000" pt_clust_5="124.72675" pt_clust_6="65.01723"></scales>
<clustering>
<clus scale="   65.017">  1  6  2 -1</clus>
<clus scale="   67.359">  2  3  1 -1</clus>
<clus scale="  124.727">  1  5  2 -1</clus>
<clus scale="   67.359">  2  3  1 -1</clus>
</clustering>
</event>
<event>
 6    0  0.3584505E+002  0.9308849E+02  0.7546771E-02  0.1295540E+00
          1   -1    0    0  505    0 -0.00000000000E+00  0.00000000000E+00  0.85484522564E+03  0.85484522564E+03  0.00000000000E+00 0. -1.
         21   -1    0    0  504  502  0.00000000000E+00 -0.00000000000E+00 -0.20034632615E+03  0.20034632615E+03  0.00000000000E+00 0. -1.
         21    1    1    2  503  502  0.14228031009E+02 -0.37344799682E+02 -0.14331884894E+03  0.14878630109E+03  0.00000000000E+00 0. -1.
         21    1    1    2  504  501 -0.47393347973E+02  0.25813638489E+02 -0.23625213333E+02  0.58912002760E+02  0.00000000000E+00 0. -1.
         21    1    1    2  505  503 -0.89669634539E+01  0.94549735797E+02  0.59701036262E+03  0.60451752005E+03  0.00000000000E+00 0. -1.
          1    1    1    2  501    0  0.42132280418E+02 -0.83018574604E+02  0.22443259914E+03  0.24297572789E+03  0.00000000000E+00 0. -1.
<scales pt_clust_3="39.96337" pt_clust_4="36.66896" pt_clust_5="14000.00000" pt_clust_6="93.08849"></scales>
<clustering>
<clus scale="   39.963">  2  3  1 -1</clus>
<clus scale="   36.669">  2  4  1 -1</clus>
<clus scale="   93.088">  2  6  1 -1</clus>
<clus scale="   39.963">  2  3  1 -1</clus>
</clustering>
</event>
<event>
 6    0  0.3584505E+002  0.1127985E+03  0.7546771E-02  0.1255474E+00
         -4   -1    0    0    0  501 -0.00000000000E+00  0.00000000000E+00  0.13905025429E+04  0.13905025429E+04  0.00000000000E+00 0. -1.
         21   -1    0    0  505  502  0.00000000000E+00 -0.00000000000E+00 -0.29847484243E+02  0.29847484243E+02  0.00000000000E+00 0. -1.
         21    1    1    2  503  504 -0.68352684831E+02 -0.37372199283E+02  0.34217508596E+03  0.35093099073E+03  0.00000000000E+00 0. -1.
         21    1    1    2  504  502 -0.50007485267E+02 -0.42667462531E+02  0.74416032049E+02  0.99292531278E+02  0.00000000000E+00 0. -1.
         21    1    1    2  505  501  0.13971210879E+03  0.10232681643E+03  0.59469309802E+03  0.61939497216E+03  0.00000000000E+00 0. -1.
         -4    1    1    2    0  503 -0.21351938688E+02 -0.22287154614E+02  0.34937084263E+03  0.35073153298E+03  0.00000000000E+00 0. -1.
<scales pt_clust_3="14000.00000" pt_clust_4="68.30029" pt_clust_5="112.79850" pt_clust_6="30.86458"></scales>
<clustering>
<clus scale="   30.865">  1  6  2 -1</clus>
<clus scale="   68.300">  2  4  1 -1</clus>
<clus scale="  112.799">  2  5  1 -1</clus>
<clus scale="   68.300">  2  3  1 -1</clus>
</clustering>
</event>
<event>
 6    0  0.3584505E+002  0.1140376E+03  0.7546771E-02  0.1253270E+00
          2   -1    0    0  503    0 -0.00000000000E+00  0.00000000000E+00  0.13278911937E+04  0.13278911937E+04  0.00000000000E+00 0. -1.
         21   -1    0    0  504  502  0.00000000000E+00 -0.00000000000E+00 -0.79514414872E+02  0.79514414872E+02  0.00000000000E+00 0.  1.
         21    1    1    2  503  502  0.16964442990E+02  0.51870826422E+02  0.82030568265E+02  0.98526083295E+02  0.00000000000E+00 0.  1.
         21    1    1    2  504  505 -0.13469445473E+03  0.17426502603E+02  0.89864921023E+01  0.13611405574E+03  0.00000000000E+00 0.  1.
         21    1    1    2  505  501  0.68847198172E+02 -0.40079003447E+02  0.22533268443E+03  0.23900017131E+03  0.00000000000E+00 0.  1.
          2    1    1    2  501    0  0.48882813572E+02 -0.29218325578E+02  0.93202703405E+03  0.93376529825E+03  0.00000000000E+00 0. -1.
<scales pt_clust_3="54.57449" pt_clust_4="14000.00000" pt_clust_5="114.03758" pt_clust_6="56.80619"></scales>
<clustering>
<clus scale="   54.574">  2  3  1 -1</clus>
<clus scale="   56.806">  1  6  2 -1</clus>
<clus scale="  114.038">  1  5  2 -1</clus>
<clus scale="   54.574">  2  3  1 -1</clus>
</clustering>
</event>
<event>
 6    0  0.3584505E+002  0.1061352E+03  0.7546771E-02  0.1267899E+00
          1   -1    0    0  505    0 -0.00000000000E+00  0.00000000000E+00  0.26767772086E+04  0.26767772086E+04  0.00000000000E+00 0.  1.
         21   -1    0    0  503  502  0.00000000000E+00 -0.00000000000E+00 -0.45412152450E+02  0.45412152450E+02  0.00000000000E+00 0. -1.
         21    1    1    2  503  501  0.64965865230E+02  0.85573929121E+02  0.33975704959E+02  0.11268455758E+03  0.00000000000E+00 0. -1.
         21    1    1    2  504  502  0.35614284975E+02 -0.74655368520E+02  0.77904296653E+03  0.78342181808E+03  0.00000000000E+00 0. -1.
         21    1    1    2  505  504 -0.34915601597E+02  0.36663203476E+02  0.22291901979E+03  0.22859610476E+03  0.00000000000E+00 0. -1.
          1    1    1    2  501    0 -0.65664548609E+02 -0.47581764077E+02  0.15954273649E+04  0.15974868806E+04  0.00000000000E+00 0.  1.
<scales pt_clust_3="106.13519" pt_clust_4="67.56243" pt_clust_5="50.62894" pt_clust_6="14000.00000"></scales>
<clustering>
<clus scale="   50.629">  1  5  2 -1</clus>
<clus scale="   67.562">  1  4  2 -1</clus>
<clus scale="  106.135">  2  3  1 -1</clus>
<clus scale="  106.135">  2  3  1 -1</clus>
</clustering>
</event>
<event>
 6    0  0.3584505E+002  0.8705696E+02  0.7546771E-02  0.1310139E+00
          2   -1    0    0  505    0 -0.00000000000E+00  0.00000000000E+00  0.34126988854E+03  0.34126988854E+03  0.00000000000E+00 0. -1.
         21   -1    0    0  503  502  0.00000000000E+00 -0.00000000000E+00 -0.23316497080E+03  0.23316497080E+03  0.00000000000E+00 0. -1.
         21    1    1    2  503  501  0.87133803384E+02 -0.20495119410E+02  0.12266606540E+03  0.15185293284E+03  0.00000000000E+00 0. -1.
         21    1    1    2  504  502 -0.64403780198E+01  0.52287905566E+02 -0.10539436991E+03  0.11782816618E+03  0.00000000000E+00 0. -1.
         21    1    1    2  505  504 -0.79386434602E+02 -0.69973303226E+02 -0.78120772987E+02  0.13153449865E+03  0.00000000000E+00 0. -1.
          2    1    1    2  501    0 -0.13069907626E+01  0.38180517070E+02  0.16895399523E+03  0.17321926167E+03  0.00000000000E+00 0. -1.
<scales pt_clust_3="14000.00000" pt_clust_4="54.07332" pt_clust_5="87.05696" pt_clust_6="38.20288"></scales>
<clustering>
<clus scale="   38.203">  1  6  2 -1</clus>
<clus scale="   54.073">  2  4  1 -1</clus>
<clus scale="   87.057">  2  5  1 -1</clus>
<clus scale="   54.073">  2  3  1 -1</clus>
</clustering>
</event>
<event>
 6    0  0.3584505E+002  0.9689811E+02  0.7546771E-02  0.1286957E+00
         21   -1    0    0  505  502  0.00000000000E+00  0.00000000000E+00  0.48927158901E+02  0.48927158901E+02  0.00000000000E+00 0. -1.
          3   -1    0    0  504    0 -0.00000000000E+00 -0.00000000000E+00 -0.13388875164E+04  0.13388875164E+04  0.00000000000E+00 0.  1.
         21    1    1    2  503  501 -0.87220262427E+02  0.51312327457E+02 -0.65190564979E+02  0.12037499279E+03  0.00000000000E+00 0. -1.
         21    1    1    2  504  502  0.28058015546E+02 -0.22031465382E+02 -0.86251902659E+03  0.86325645607E+03  0.00000000000E+00 0.  1.
         21    1    1    2  505  503 -0.17829434446E+02 -0.32267961998E+02 -0.32520564101E+01  0.37009268772E+02  0.00000000000E+00 0. -1.
          3    1    1    2  501    0  0.76991681327E+02  0.29870999232E+01 -0.35899870953E+03  0.36717395769E+03  0.00000000000E+00 0.  1.
<scales pt_clust_3="14000.00000" pt_clust_4="35.67405" pt_clust_5="37.13763" pt_clust_6="96.89811"></scales>
<clustering>
<clus scale="   35.674">  2  4  1 -1</clus>
<clus scale="   37.138">  1  5  2 -1</clus>
<clus scale="   96.898">  2  6  1 -1</clus>
<clus scale="   37.138">  1  3  2 -1</clus>
</clustering>
</event>
<event>
 6    0  0.3584505E+002  0.7803983E+02  0.7546771E-02  0.1334708E+00
         21   -1    0    0  504  502  0.00000000000E+00  0.00000000000E+00  0.49844999239E+02  0.49844999239E+02  0.00000000000E+00 0. -1.
          4   -1    0    0  505    0 -0.00000000000E+00 -0.00000000000E+00 -0.18576341922E+04  0.18576341922E+04  0.00000000000E+00 0. -1.
         21    1    1    2  503  501  0.53430162238E+02 -0.31134359712E+02 -0.37300379070E+03  0.37809517117E+03  0.00000000000E+00 0. -1.
         21    1    1    2  504  503  0.36802128597E+00 -0.50050277528E+02  0.18622725925E+02  0.53403854179E+02  0.00000000000E+00 0. -1.
         21    1    1    2  505  502 -0.84888842801E+02  0.53613045865E+02 -0.21950093940E+03  0.24137343830E+03  0.00000000000E+00 0. -1.
          4    1    1    2  501    0  0.31090659277E+02  0.27571591375E+02 -0.12339071888E+04  0.12346067278E+04  0.00000000000E+00 0. -1.
<scales pt_clust_3="78.03983" pt_clust_4="49.29659" pt_clust_5="14000.00000" pt_clust_6="41.55504"></scales>
<clustering>
<clus scale="   41.555">  2  6  1 -1</clus>
<clus scale="   49.297">  1  4  2 -1</clus>
<clus scale="   78.040">  2  3  1 -1</clus>
<clus scale="   49.297">  1  3  2 -1</clus>
</clustering>
</event>
<event>
 6    0  0.3584505E+002  0.1022869E+03  0.7546771E-02  0.1275559E+00
          2   -1    0    0  505    0 -0.00000000000E+00  0.00000000000E+00  0.15998708073E+04  0.15998708073E+04  0.00000000000E+00 0. -1.
         21   -1    0    0  504  502  0.00000000000E+00 -0.00000000000E+00 -0.68778865186E+02  0.68778865186E+02  0.00000000000E+00 0. -1.
         21    1    1    2  503  501 -0.29827030646E+02 -0.31986502229E+02  0.33919896484E+03  0.34200690904E+03  0.00000000000E+00 0. -1.
         21    1    1    2  504  503  0.23985566130E+02  0.11812123656E+03  0.13665908203E+02  0.12130412588E+03  0.00000000000E+00 0. -1.
         21    1    1    2  505  502 -0.25915201423E+02 -0.69932152579E+02  0.91575491899E+02  0.11810238925E+03  0.00000000000E+00 0. -1.
          2    1    1    2  501    0  0.31756665939E+02 -0.16202581751E+02  0.10866515771E+04  0.10872362483E+04  0.00000000000E+00 0. -1.
<scales pt_clust_3="43.62988" pt_clust_4="14000.00000" pt_clust_5="102.28688" pt_clust_6="35.65122"></scales>
<clustering>
<clus scale="   35.651">  1  6  2 -1</clus>
<clus scale="   43.630">  1  3  2 -1</clus>
<clus scale="  102.287">  1  5  2 -1</clus>
<clus scale="  102.287">  2  3  1 -1</clus>
</clustering>
</event>
<event>
 6    0  0.3584505E+002  0.1363745E+03  0.7546771E-02  0.1218292E+00
          1   -1    0    0  505    0 -0.00000000000E+00  0.00000000000E+00  0.51578474480E+03  0.51578474480E+03  0.00000000000E+00 0.  1.
         21   -1    0    0  503  502  0.00000000000E+00 -0.00000000000E+00 -0.13666213155E+03  0.13666213155E+03  0.00000000000E+00 0.  1.
         21    1    1    2  503  504  0.37726312403E+02  0.28296242345E+02  0.17709012398E+02  0.50374210648E+02  0.00000000000E+00 0.  1.
         21    1    1    2  504  501  0.73845343334E+02  0.40946356534E+02 -0.48967270609E+02  0.97609079682E+02  0.00000000000E+00 0.  1.
         21    1    1    2  505  502 -0.11817063525E+03 -0.72178437217E+01  0.34320053974E+02  0.12326500885E+03  0.00000000000E+00 0.  1.
          1    1    1    2  501    0  0.65989795117E+01 -0.62024755157E+02  0.37606081749E+03  0.38119857717E+03  0.00000000000E+00 0.  1.
<scales pt_clust_3="45.33043" pt_clust_4="45.33043" pt_clust_5="122.14256" pt_clust_6="62.37481"></scales>
<clustering>
<clus scale="   45.330">  3  4 -1 -1</clus>
<clus scale="   62.375">  1  6  2 -1</clus>
<clus scale="  122.143">  1  5  2 -1</clus>
<clus scale="  136.375">  2  3  1 -1</clus>
</clustering>
</event>
<event>
 6    0  0.3584505E+002  0.1706028E+03  0.7546771E-02  0.1177221E+00
         21   -1    0    0  503  502  0.00000000000E+00  0.00000000000E+00  0.13064991497E+04  0.13064991497E+04  0.00000000000E+00 0.  1.
          3   -1    0    0  505    0 -0.00000000000E+00 -0.00000000000E+00 -0.52919648784E+03  0.52919648784E+03  0.00000000000E+00 0. -1.
         21    1    1    2  503  504  0.28096330919E+02  0.30956571247E+02  0.10557845522E+04  0.10566119125E+04  0.00000000000E+00 0.  1.
         21    1    1    2  504  501  0.70702530696E+02  0.10997943767E+03  0.18046154445E+03  0.22284679397E+03  0.00000000000E+00 0.  1.
         21    1    1    2  505  502 -0.15081746609E+03 -0.17876116983E+03 -0.27301181682E+03  0.35949536303E+03  0.00000000000E+00 0. -1.
          3    1    1    2  501    0  0.52018604471E+02  0.37825160912E+02 -0.18593161797E+03  0.19674156797E+03  0.00000000000E+00 0. -1.
<scales pt_clust_3="41.80566" pt_clust_4="170.60276" pt_clust_5="14000.00000" pt_clust_6="65.20110"></scales>
<clustering>
<clus scale="   41.806">  1  3  2 -1</clus>
<clus scale="   65.201">  2  6  1 -1</clus>
<clus scale="  170.603">  1  4  2 -1</clus>
<clus scale="   41.806">  1  3  2 -1</clus>
</clustering>
</event>
<event>
 6    0  0.3584505E+002  0.1293197E+03  0.7546771E-02  0.1228469E+00
         21   -1    0    0  501  502  0.00000000000E+00  0.00000000000E+00  0.14608027202E+03  0.14608027202E+03  0.00000000000E+00 0.  1.
          2   -1    0    0  504    0 -0.00000000000E+00 -0.00000000000E+00 -0.98562727344E+03  0.98562727344E+03  0.00000000000E+00 0. -1.
         21    1    1    2  503  502  0.36315384180E+02 -0.11713432209E+03  0.54879992482E+02  0.13435427092E+03  0.00000000000E+00 0.  1.
         21    1    1    2  504  505  0.26122357070E+02 -0.20971793290E+02 -0.52539689020E+02  0.62310613663E+02  0.00000000000E+00 0.  1.
         21    1    1    2  505  503 -0.13459405450E+02  0.15291094286E+03 -0.83138720762E+02  0.17457078488E+03  0.00000000000E+00 0.  1.
          2    1    1    2  501    0 -0.48978335800E+02 -0.14804827480E+02 -0.75874858412E+03  0.76047187601E+03  0.00000000000E+00 0. -1.
<scales pt_clust_3="14000.00000" pt_clust_4="33.49916" pt_clust_5="129.31974" pt_clust_6="42.23404"></scales>
<clustering>
<clus scale="   33.499">  2  4  1 -1</clus>
<clus scale="   42.234">  2  6  1 -1</clus>
<clus scale="  129.320">  2  5  1 -1</clus>
<clus scale="  129.320">  1  3  2 -1</clus>
</clustering>
</event>
<event>
 6    0  0.3584505E+002  0.2301320E+03  0.7546771E-02  0.1126547E+00
         21   -1    0    0  505  502  0.00000000000E+00  0.00000000000E+00  0.51010277832E+03  0.51010277832E+03  0.00000000000E+00 0.  1.
          1   -1    0    0  503    0 -0.00000000000E+00 -0.00000000000E+00 -0.13312781733E+04  0.13312781733E+04  0.00000000000E+00 0.  1.
         21    1    1    2  503  504 -0.95232367579E+01 -0.76487138943E+02 -0.45243709814E+02  0.89375431410E+02  0.00000000000E+00 0. -1.
         21    1    1    2  504  502  0.10578321205E+03  0.20806330146E+03  0.44868919289E+03  0.50576913427E+03  0.00000000000E+00 0.  1.
         21    1    1    2  505  501 -0.14989142728E+02 -0.14751647725E+03 -0.79074734371E+03  0.80452914618E+03  0.00000000000E+00 0.  1.
          1    1    1    2  501    0 -0.81270832566E+02  0.15940314725E+02 -0.43387353432E+03  0.44170723974E+03  0.00000000000E+00 0.  1.
<scales pt_clust_3="77.07772" pt_clust_4="14000.00000" pt_clust_5="230.13195" pt_clust_6="85.22507"></scales>
<clustering>
<clus scale="   77.078">  2  3  1 -1</clus>
<clus scale="   85.225">  2  6  1 -1</clus>
<clus scale="  230.132">  2  5  1 -1</clus>
<clus scale="  230.132">  1  3  2 -1</clus>
</clustering>
</event>
<event>
 6    0  0.3584505E+002  0.1062686E+03  0.7546771E-02  0.1267640E+00
         -2   -1    0    0    0  501 -0.00000000000E+00  0.00000000000E+00  0.78303956418E+02  0.78303956418E+02  0.00000000000E+00 0.  1.
         21   -1    0    0  503  502  0.00000000000E+00 -0.00000000000E+00 -0.10188187191E+04  0.10188187191E+04  0.00000000000E+00 0.  1.
         21    1    1    2  503  505  0.31961951546E+02 -0.86073188972E+02 -0.44269152929E+03  0.45211276283E+03  0.00000000000E+00 0. -1.
         21    1    1    2  504  502 -0.10124061580E+03  0.10007182220E+03 -0.53518359983E+03  0.55379194416E+03  0.00000000000E+00 0.  1.
         21    1    1    2  505  501  0.41345610605E+02  0.90196347908E+01  0.49025488724E+01  0.42601036531E+02  0.00000000000E+00 0. -1.
         -2    1    1    2    0  504  0.27933053646E+02 -0.23018268020E+02  0.32457817612E+02  0.48616931956E+02  0.00000000000E+00 0.  1.
<scales pt_clust_3="106.26864" pt_clust_4="14000.00000" pt_clust_5="59.16517" pt_clust_6="36.19525"></scales>
<clustering>
<clus scale="   36.195">  1  6  2 -1</clus>
<clus scale="   59.165">  1  5  2 -1</clus>
<clus scale="  106.269">  2  3  1 -1</clus>
<clus scale="  106.269">  2  3  1 -1</clus>
</clustering>
</event>
<event>
 6    0  0.3584505E+002  0.8231572E+02  0.7546771E-02  0.1322605E+00
          2   -1    0    0  505    0 -0.00000000000E+00  0.00000000000E+00  0.11687470320E+04  0.11687470320E+04  0.00000000000E+00 0. -1.
         21   -1    0    0  504  502  0.00000000000E+00 -0.00000000000E+00 -0.40403887154E+03  0.40403887154E+03  0.00000000000E+00 0.  1.
         21    1    1    2  503  502 -0.64496250308E+02 -0.71578800060E+02 -0.32788170976E+03  0.34174508997E+03  0.00000000000E+00 0.  1.
         21    1    1    2  504  501  0.59446538135E+02  0.13336386797E+02 -0.47263846934E+02  0.77107855216E+02  0.00000000000E+00 0.  1.
         21    1    1    2  505  503  0.49464903334E+02  0.16044665612E+02  0.10407062275E+03  0.11633959978E+03  0.00000000000E+00 0.  1.
          2    1    1    2  501    0 -0.44415191160E+02  0.42197747651E+02  0.10357830944E+04  0.10375933585E+04  0.00000000000E+00 0. -1.
<scales pt_clust_3="14000.00000" pt_clust_4="82.31572" pt_clust_5="52.00200" pt_clust_6="58.05112"></scales>
<clustering>
<clus scale="   52.002">  1  5  2 -1</clus>
<clus scale="   58.051">  1  6  2 -1</clus>
<clus scale="   82.316">  1  4  2 -1</clus>
<clus scale="   82.316">  2  3  1 -1</clus>
</clustering>
</event>
<event>
 6    0  0.3584505E+002  0.3646784E+03  0.7546771E-02  0.1056747E+00
          2   -1    0    0  504    0 -0.00000000000E+00  0.00000000000E+00  0.16661266719E+04  0.16661266719E+04  0.00000000000E+00 0.  1.
         21   -1    0    0  503  502  0.00000000000E+00 -0.00000000000E+00 -0.18927658332E+04  0.18927658332E+04  0.00000000000E+00 0.  1.
         21    1    1    2  503  501  0.12229198597E+03  0.42647776166E+03 -0.14630052291E+04  0.15287978648E+04  0.00000000000E+00 0.  1.
         21    1    1    2  504  505 -0.16280593704E+03 -0.28111493058E+03  0.86344327717E+02  0.33613497328E+03  0.00000000000E+00 0.  1.
         21    1    1    2  505  502 -0.18381116691E+01 -0.83179738348E+02 -0.26458275311E+03  0.27735587387E+03  0.00000000000E+00 0. -1.
          2    1    1    2  501    0  0.42352062737E+02 -0.62183092727E+02  0.14146044933E+04  0.14166037931E+04  0.00000000000E+00 0.  1.
<scales pt_clust_3="364.67837" pt_clust_4="14000.00000" pt_clust_5="84.76836" pt_clust_6="75.23586"></scales>
<clustering>
<clus scale="   75.236">  1  6  2 -1</clus>
<clus scale="   84.768">  2  5  1 -1</clus>
<clus scale="  364.678">  2  3  1 -1</clus>
<clus scale="   84.768">  2  3  1 -1</clus>
</clustering>
</event>
<event>
 6    0  0.3584505E+002  0.1505179E+03  0.7546771E-02  0.1199838E+00
          1   -1    0    0  505    0 -0.00000000000E+00  0.00000000000E+00  0.84741280915E+03  0.84741280915E+03  0.00000000000E+00 0. -1.
         21   -1    0    0  504  502  0.00000000000E+00 -0.00000000000E+00 -0.27921231218E+03  0.27921231218E+03  0.00000000000E+00 0. -1.
         21    1    1    2  503  501 -0.54828781263E+01 -0.51479206986E+02  0.31402301383E+01  0.51865515998E+02  0.00000000000E+00 0. -1.
         21    1    1    2  504  503 -0.91270021750E+01 -0.30942587812E+02 -0.76167754427E+02  0.82718031430E+02  0.00000000000E+00 0. -1.
         21    1    1    2  505  502  0.15527326482E+03  0.27042266746E+02 -0.13113064693E+03  0.20502760186E+03  0.00000000000E+00 0. -1.
          1    1    1    2  501    0 -0.14066338452E+03  0.55379528052E+02  0.77235866819E+03  0.78701397205E+03  0.00000000000E+00 0. -1.
<scales pt_clust_3="55.64509" pt_clust_4="32.26059" pt_clust_5="150.51793" pt_clust_6="14000.00000"></scales>
<clustering>
<clus scale="   32.261">  2  4  1 -1</clus>
<clus scale="   55.645">  2  3  1 -1</clus>
<clus scale="  150.518">  2  5  1 -1</clus>
<clus scale="   32.261">  2  3  1 -1</clus>
</clustering>
</event>
<event>
 6    0  0.3584505E+002  0.7961033E+02  0.7546771E-02  0.1330161E+00
         -1   -1    0    0    0  501 -0.00000000000E+00  0.00000000000E+00  0.42538564640E+03  0.42538564640E+03  0.00000000000E+00 0.  1.
         21   -1    0    0  504  502  0.00000000000E+00 -0.00000000000E+00 -0.12063696385E+04  0.12063696385E+04  0.00000000000E+00 0.  1.
         21    1    1    2  503  505  0.15801926798E+02 -0.63841000323E+02 -0.75235753483E+03  0.75522661131E+03  0.00000000000E+00 0.  1.
         21    1    1    2  504  501 -0.76929855788E+02 -0.33473895520E+02 -0.12179679926E+03  0.14789579001E+03  0.00000000000E+00 0.  1.
         21    1    1    2  505  502  0.24944103981E+02  0.25932594858E+02 -0.31279333400E+03  0.31485612206E+03  0.00000000000E+00 0. -1.
         -1    1    1    2    0  503  0.36183825009E+02  0.71382300985E+02  0.40596367603E+03  0.41377676148E+03  0.00000000000E+00 0.  1.
<scales pt_clust_3="55.84101" pt_clust_4="14000.00000" pt_clust_5="35.98205" pt_clust_6="79.61033"></scales>
<clustering>
<clus scale="   35.982">  2  5  1 -1</clus>
<clus scale="   55.841">  2  3  1 -1</clus>
<clus scale="   79.610">  1  6  2 -1</clus>
<clus scale="   35.982">  2  3  1 -1</clus>
</clustering>
</event>
<event>
 6    0  0.3584505E+002  0.8043761E+02  0.7546771E-02  0.1327814E+00
         21   -1    0    0  504  502  0.00000000000E+00  0.00000000000E+00  0.71680924057E+03  0.71680924057E+03  0.00000000000E+00 0.  1.
         -2   -1    0    0    0  501 -0.00000000000E+00 -0.00000000000E+00 -0.37849959479E+03  0.37849959479E+03  0.00000000000E+00 0.  1.
         21    1    1    2  503  502 -0.31041804644E+02  0.60318325573E+02  0.46245456451E+03  0.46740359249E+03  0.00000000000E+00 0.  1.
         21    1    1    2  504  505  0.50671338896E+02 -0.19348539748E+02  0.21426575275E+03  0.22102435019E+03  0.00000000000E+00 0.  1.
         21    1    1    2  505  501 -0.73078813900E+01 -0.11445483575E+03 -0.85026568034E+02  0.14276845530E+03  0.00000000000E+00 0.  1.
         -2    1    1    2    0  503 -0.12321652862E+02  0.73485049925E+02 -0.25338410345E+03  0.26411243737E+03  0.00000000000E+00 0.  1.
<scales pt_clust_3="45.27670" pt_clust_4="54.23975" pt_clust_5="80.43761" pt_clust_6="14000.00000"></scales>
<clustering>
<clus scale="   54.240">  1  4  2 -1</clus>
<clus scale="   45.277">  1  3  2 -1</clus>
<clus scale="   80.438">  1  5  2 -1</clus>
<clus scale="   54.240">  1  3  2 -1</clus>
</clustering>
</event>
<event>
 6    0  0.3584505E+002  0.8243491E+02  0.7546771E-02  0.1322280E+00
         21   -1    0    0  505  502  0.00000000000E+00  0.00000000000E+00  0.79982749328E+03  0.79982749328E+03  0.00000000000E+00 0. -1.
          2   -1    0    0  504    0 -0.00000000000E+00 -0.00000000000E+00 -0.60515142936E+03  0.60515142936E+03  0.00000000000E+00 0. -1.
         21    1    1    2  503  501  0.11014050403E+03 -0.44406137749E+02 -0.17649750080E+03  0.21273035394E+03  0.00000000000E+00 0.  1.
         21    1    1    2  504  502 -0.10321009532E+03 -0.40137200768E+02  0.21287764600E+03  0.23995876902E+03  0.00000000000E+00 0. -1.
         21    1    1    2  505  503  0.24522630887E+02  0.33997752573E+02  0.55226221908E+03  0.55385085107E+03  0.00000000000E+00 0. -1.
          2    1    1    2  501    0 -0.31453039596E+02  0.50545585944E+02 -0.39396630036E+03  0.39843894862E+03  0.00000000000E+00 0. -1.
<scales pt_clust_3="82.43491" pt_clust_4="14000.00000" pt_clust_5="41.91905" pt_clust_6="59.67797"></scales>
<clustering>
<clus scale="   41.919">  1  5  2 -1</clus>
<clus scale="   59.678">  2  6  1 -1</clus>
<clus scale="   82.435">  2  3  1 -1</clus>
<clus scale="   41.919">  1  3  2 -1</clus>
</clustering>
</event>
<event>
 6    0  0.3584505E+002  0.7529637E+02  0.7546771E-02  0.1342956E+00
         21   -1    0    0  503  502  0.00000000000E+00  0.00000000000E+00  0.43829249741E+03  0.43829249741E+03  0.00000000000E+00 0. -1.
          2   -1    0    0  504    0 -0.00000000000E+00 -0.00000000000E+00 -0.52643827233E+03  0.52643827233E+03  0.00000000000E+00 0.  1.
         21    1    1    2  503  501 -0.35393549561E+02 -0.97752281776E+02  0.34550172843E+03  0.36080417998E+03  0.00000000000E+00 0. -1.
         21    1    1    2  504  505  0.25721309769E+02  0.66543122166E+02  0.20626004850E+02  0.74263079386E+02  0.00000000000E+00 0.  1.
         21    1    1    2  505  502 -0.24208675332E+02 -0.35773229167E+02  0.21329063393E+02  0.48173777427E+02  0.00000000000E+00 0. -1.
          2    1    1    2  501    0  0.33880915124E+02  0.66982388777E+02 -0.47560257160E+03  0.48148973294E+03  0.00000000000E+00 0.  1.
<scales pt_clust_3="75.29637" pt_clust_4="66.40182" pt_clust_5="43.19472" pt_clust_6="14000.00000"></scales>
<clustering>
<clus scale="   43.195">  1  5  2 -1</clus>
<clus scale="   66.402">  1  4  2 -1</clus>
<clus scale="   75.296">  1  3  2 -1</clus>
<clus scale="   43.195">  1  3  2 -1</clus>
</clustering>
</event>
<event>
 6    0  0.3584505E+002  0.7470406E+02  0.7546771E-02  0.1344790E+00
          2   -1    0    0  503    0 -0.00000000000E+00  0.00000000000E+00  0.45485263390E+03  0.45485263390E+03  0.00000000000E+00 0.  1.
         21   -1    0    0  501  502  0.00000000000E+00 -0.00000000000E+00 -0.14501310832E+03  0.14501310832E+03  0.00000000000E+00 0.  1.
         21    1    1    2  503  504 -0.76534790641E+02  0.34234296273E+02  0.14357631883E+03  0.16626400857E+03  0.00000000000E+00 0.  1.
         21    1    1    2  504  505  0.72844193240E+02  0.31976907055E+02  0.12736393817E+03  0.15016781220E+03  0.00000000000E+00 0. -1.
         21    1    1    2  505  502  0.95332743868E+01  0.30522631572E+02 -0.10510265052E+03  0.10985937149E+03  0.00000000000E+00 0.  1.
          2    1    1    2  501    0 -0.58426769856E+01 -0.96733834900E+02  0.14400191910E+03  0.17357454996E+03  0.00000000000E+00 0.  1.
<scales pt_clust_3="74.70406" pt_clust_4="14000.00000" pt_clust_5="31.97678" pt_clust_6="84.73470"></scales>
<clustering>
<clus scale="   31.977">  2  5  1 -1</clus>
<clus scale="   84.735">  2  6  1 -1</clus>
<clus scale="   74.704">  1  3  2 -1</clus>
<clus scale="   31.977">  2  3  1 -1</clus>
</clustering>
</event>
<event>
 6    0  0.3584505E+002  0.3777056E+03  0.7546771E-02  0.1051785E+00
          1   -1    0    0  503    0 -0.00000000000E+00  0.00000000000E+00  0.98633897465E+03  0.98633897465E+03  0.00000000000E+00 0. -1.
         21   -1    0    0  505  502  0.00000000000E+00 -0.00000000000E+00 -0.11756983010E+04  0.11756983010E+04  0.00000000000E+00 0. -1.
         21    1    1    2  503  502 -0.35731287375E+03  0.69963129481E+02 -0.81520651645E+03  0.89282080716E+03  0.00000000000E+00 0. -1.
         21    1    1    2  504  501 -0.30528222286E+02  0.79856631625E+02  0.11275723892E+03  0.14150352963E+03  0.00000000000E+00 0. -1.
         21    1    1    2  505  504  0.40198404239E+03 -0.19121824016E+03 -0.14500246904E+03  0.46816802724E+03  0.00000000000E+00 0. -1.
          1    1    1    2  501    0 -0.14142946357E+02  0.41398479050E+02  0.65809242018E+03  0.65954491166E+03  0.00000000000E+00 0. -1.
<scales pt_clust_3="377.70559" pt_clust_4="102.46495" pt_clust_5="14000.00000" pt_clust_6="43.74765"></scales>
<clustering>
<clus scale="   43.748">  1  6  2 -1</clus>
<clus scale="  102.465">  1  4  2 -1</clus>
<clus scale="  377.706">  2  3  1 -1</clus>
<clus scale="  377.706">  2  3  1 -1</clus>
</clustering>
</event>
<event>
 6    0  0.3584505E+002  0.1052156E+03  0.7546771E-02  0.1269695E+00
         -2   -1    0    0    0  501 -0.00000000000E+00  0.00000000000E+00  0.35118321321E+03  0.35118321321E+03  0.00000000000E+00 0.  1.
         21   -1    0    0  504  502  0.00000000000E+00 -0.00000000000E+00 -0.37073035275E+03  0.37073035275E+03  0.00000000000E+00 0. -1.
         21    1    1    2  503  502  0.39564230876E+02  0.10118155066E+02 -0.29089927400E+03  0.29375175411E+03  0.00000000000E+00 0. -1.
         21    1    1    2  504  501 -0.11486104841E+03  0.17620829263E+02  0.38981402618E+02  0.12256877178E+03  0.00000000000E+00 0.  1.
         21    1    1    2  505  503  0.10732744211E+03 -0.56949695290E+00  0.49920143201E+02  0.11837028704E+03  0.00000000000E+00 0.  1.
         -2    1    1    2    0  505 -0.32030624580E+02 -0.27169487376E+02  0.18245058864E+03  0.18722275302E+03  0.00000000000E+00 0.  1.
<scales pt_clust_3="40.83755" pt_clust_4="14000.00000" pt_clust_5="105.21562" pt_clust_6="40.88791"></scales>
<clustering>
<clus scale="   40.838">  2  3  1 -1</clus>
<clus scale="   40.888">  1  6  2 -1</clus>
<clus scale="  105.216">  1  5  2 -1</clus>
<clus scale="   40.838">  2  3  1 -1</clus>
</clustering>
</event>
<event>
 6    0  0.3584505E+002  0.1672252E+03  0.7546771E-02  0.1180773E+00
          2   -1    0    0  505    0 -0.00000000000E+00  0.00000000000E+00  0.13632654054E+04  0.13632654054E+04  0.00000000000E+00 0. -1.
         21   -1    0    0  503  502  0.00000000000E+00 -0.00000000000E+00 -0.19683109014E+03  0.19683109014E+03  0.00000000000E+00 0.  1.
         21    1    1    2  503  501  0.84210736125E+02 -0.13145442045E+03  0.25550399391E+03  0.29942278410E+03  0.00000000000E+00 0.  1.
         21    1    1    2  504  502 -0.10815979493E+03  0.13004155842E+03 -0.11966575888E+03  0.20719373061E+03  0.00000000000E+00 0.  1.
         21    1    1    2  505  504  0.54052638558E+02 -0.36127986898E+01  0.54283708750E+02  0.76690684475E+02  0.00000000000E+00 0.  1.
          2    1    1    2  501    0 -0.30103579755E+02  0.50256607170E+01  0.97631237144E+03  0.97678929632E+03  0.00000000000E+00 0. -1.
<scales pt_clust_3="167.22525" pt_clust_4="14000.00000" pt_clust_5="49.03266" pt_clust_6="30.52020"></scales>
<clustering>
<clus scale="   30.520">  1  6  2 -1</clus>
<clus scale="   49.033">  1  5  2 -1</clus>
<clus scale="  167.225">  1  3  2 -1</clus>
<clus scale="  167.225">  2  3  1 -1</clus>
</clustering>
</event>
<event>
 6    0  0.3584505E+002  0.1205440E+03  0.7546771E-02  0.1242202E+00
          2   -1    0    0  504    0 -0.00000000000E+00  0.00000000000E+00  0.96311487587E+03  0.96311487587E+03  0.00000000000E+00 0.  1.
         21   -1    0    0  503  502  0.00000000000E+00 -0.00000000000E+00 -0.12212295773E+03  0.12212295773E+03  0.00000000000E+00 0.  1.
         21    1    1    2  503  501 -0.21963745113E+02 -0.32095167478E+02  0.23514090288E+02  0.45446873566E+02  0.00000000000E+00 0.  1.
         21    1    1    2  504  505  0.14447176405E+03  0.10105887315E+03  0.16601812357E+03  0.24217143474E+03  0.00000000000E+00 0.  1.
         21    1    1    2  505  502 -0.41056190314E+02  0.11000421464E+02 -0.61953801447E+02  0.75132506608E+02  0.00000000000E+00 0.  1.
          2    1    1    2  501    0 -0.81451828619E+02 -0.79964127136E+02  0.71341350573E+03  0.72248701869E+03  0.00000000000E+00 0.  1.
<scales pt_clust_3="38.89095" pt_clust_4="14000.00000" pt_clust_5="55.30295" pt_clust_6="120.54401"></scales>
<clustering>
<clus scale="   38.891">  2  3  1 -1</clus>
<clus scale="   55.303">  2  5  1 -1</clus>
<clus scale="  120.544">  1  6  2 -1</clus>
<clus scale="   38.891">  2  3  1 -1</clus>
</clustering>
</event>
<event>
 6    0  0.3584505E+002  0.1313228E+03  0.7546771E-02  0.1225506E+00
          2   -1    0    0  504    0 -0.00000000000E+00  0.00000000000E+00  0.10460340934E+03  0.10460340934E+03  0.00000000000E+00 0.  1.
         21   -1    0    0  503  502  0.00000000000E+00 -0.00000000000E+00 -0.24613831058E+04  0.24613831058E+04  0.00000000000E+00 0. -1.
         21    1    1    2  503  505  0.10917168266E+03 -0.44267793622E+02 -0.79420682002E+03  0.80289636119E+03  0.00000000000E+00 0. -1.
         21    1    1    2  504  502 -0.14424434232E+03  0.16254859884E+03 -0.15414567174E+04  0.15567007705E+04  0.00000000000E+00 0. -1.
         21    1    1    2  505  501  0.15986786776E+02 -0.14558635324E+03 -0.57239447166E+02  0.15724922230E+03  0.00000000000E+00 0.  1.
          2    1    1    2  501    0  0.19085872887E+02  0.27305548024E+02  0.36123288100E+02  0.49140161171E+02  0.00000000000E+00 0.  1.
<scales pt_clust_3="118.34789" pt_clust_4="131.32284" pt_clust_5="14000.00000" pt_clust_6="33.31461"></scales>
<clustering>
<clus scale="   33.315">  1  6  2 -1</clus>
<clus scale="  118.348">  2  3  1 -1</clus>
<clus scale="  131.323">  2  4  1 -1</clus>
<clus scale="  118.348">  2  3  1 -1</clus>
</clustering>
</event>
<event>
 6    0  0.3584505E+002  0.1234058E+03  0.7546771E-02  0.1237582E+00
         21   -1    0    0  505  502  0.00000000000E+00  0.00000000000E+00  0.69111670853E+03  0.69111670853E+03  0.00000000000E+00 0. -1.
          3   -1    0    0  503    0 -0.00000000000E+00 -0.00000000000E+00 -0.73837617270E+02  0.73837617270E+02  0.00000000000E+00 0. -1.
         21    1    1    2  503  502 -0.15170076126E+03 -0.78884391850E+02  0.14167599182E+03  0.22205394593E+03  0.00000000000E+00 0. -1.
         21    1    1    2  504  501  0.60593550124E+02  0.42211052465E+02  0.25351052621E+03  0.26404722715E+03  0.00000000000E+00 0. -1.
         21    1    1    2  505  504  0.36736520898E+02 -0.11440512534E+02  0.19897206988E+03  0.20265818978E+03  0.00000000000E+00 0. -1.
          3    1    1    2  501    0  0.54370690234E+02  0.48113851919E+02  0.23120503357E+02  0.76194962946E+02  0.00000000000E+00 0. -1.
<scales pt_clust_3="112.14061" pt_clust_4="37.18269" pt_clust_5="37.18269" pt_clust_6="72.60244"></scales>
<clustering>
<clus scale="   37.183">  4  5 -1 -1</clus>
<clus scale="   72.602">  2  6  1 -1</clus>
<clus scale="  112.141">  2  3  1 -1</clus>
<clus scale="  123.406">  1  3  2 -1</clus>
</clustering>
</event>
<event>
 6    0  0.3584505E+002  0.9378680E+02  0.7546771E-02  0.1293932E+00
          2   -1    0    0  505    0 -0.00000000000E+00  0.00000000000E+00  0.35074344399E+04  0.35074344399E+04  0.00000000000E+00 0. -1.
         21   -1    0    0  503  502  0.00000000000E+00 -0.00000000000E+00 -0.23049053834E+02  0.23049053834E+02  0.00000000000E+00 0.  1.
         21    1    1    2  503  504 -0.15947134886E+02  0.37425490645E+02  0.24286538845E+02  0.47379472666E+02  0.00000000000E+00 0.  1.
         21    1    1    2  504  501 -0.66196141180E+02  0.77806482929E+02  0.46676525480E+03  0.47781333278E+03  0.00000000000E+00 0.  1.
         21    1    1    2  505  502  0.24634181828E+02 -0.42569824856E+02  0.11030750152E+03  0.12077573347E+03  0.00000000000E+00 0. -1.
          2    1    1    2  501    0  0.57509094238E+02 -0.72662148717E+02  0.28830260909E+04  0.28845149548E+04  0.00000000000E+00 0. -1.
<scales pt_clust_3="40.68143" pt_clust_4="93.78680" pt_clust_5="30.89115" pt_clust_6="14000.00000"></scales>
<clustering>
<clus scale="   40.681">  2  3  1 -1</clus>
<clus scale="   30.891">  2  5  1 -1</clus>
<clus scale="   93.787">  2  4  1 -1</clus>
<clus scale="   40.681">  2  3  1 -1</clus>
</clustering>
</event>
<event>
 6    0  0.3584505E+002  0.1289690E+03  0.7546771E-02  0.1228994E+00
          2   -1    0    0  503    0 -0.00000000000E+00  0.00000000000E+00  0.30194589302E+04  0.30194589302E+04  0.00000000000E+00 0.  1.
         21   -1    0    0  504  502  0.00000000000E+00 -0.00000000000E+00 -0.18992798860E+03  0.18992798860E+03  0.00000000000E+00 0. -1.
         21    1    1    2  503  502 -0.65147526779E+02 -0.34985140677E+02  0.40806389786E+02  0.84458994553E+02  0.00000000000E+00 0. -1.
         21    1    1    2  504  505  0.41665576611E+01 -0.13510277149E+03 -0.90752393618E+02  0.16280699007E+03  0.00000000000E+00 0. -1.
         21    1    1    2  505  501  0.70168412625E+02  0.89885403395E+02  0.39027290907E+02  0.12052435982E+03  0.00000000000E+00 0.  1.
          2    1    1    2  501    0 -0.91874435071E+01  0.80202508772E+02  0.28404496545E+04  0.28415965744E+04  0.00000000000E+00 0.  1.
<scales pt_clust_3="73.94701" pt_clust_4="128.96899" pt_clust_5="14000.00000" pt_clust_6="80.63408"></scales>
<clustering>
<clus scale="   73.947">  2  3  1 -1</clus>
<clus scale="   80.634">  1  6  2 -1</clus>
<clus scale="  128.969">  2  4  1 -1</clus>
<clus scale="   73.947">  2  3  1 -1</clus>
</clustering>
</event>
<event>
 6    0  0.3584505E+002  0.8757085E+02  0.7546771E-02  0.1308843E+00
         21   -1    0    0  505  502  0.00000000000E+00  0.00000000000E+00  0.10335891572E+03  0.10335891572E+03  0.00000000000E+00 0. -1.
          2   -1    0    0  503    0 -0.00000000000E+00 -0.00000000000E+00 -0.14135083790E+04  0.14135083790E+04  0.00000000000E+00 0. -1.
         21    1    1    2  503  504 -0.54733285418E+02  0.28613600579E+02 -0.83506266647E+02  0.10386417688E+03  0.00000000000E+00 0. -1.
         21    1    1    2  504  502 -0.69777992926E+02  0.43407851095E+02  0.49157889408E+02  0.95758591910E+02  0.00000000000E+00 0. -1.
         21    1    1    2  505  501  0.14440637659E+03 -0.10322795995E+03 -0.36683787499E+03  0.40752820742E+03  0.00000000000E+00 0. -1.
          2    1    1    2  501    0 -0.19895098250E+02  0.31206508280E+02 -0.90896321107E+03  0.90971631851E+03  0.00000000000E+00 0. -1.
<scales pt_clust_3="67.81081" pt_clust_4="14000.00000" pt_clust_5="87.57085" pt_clust_6="37.00893"></scales>
<clustering>
<clus scale="   37.009">  2  6  1 -1</clus>
<clus scale="   67.811">  2  3  1 -1</clus>
<clus scale="   87.571">  2  5  1 -1</clus>
<clus scale="   87.571">  1  3  2 -1</clus>
</clustering>
</event>
<event>
 6    0  0.3584505E+002  0.1219183E+03  0.7546771E-02  0.1239966E+00
          1   -1    0    0  504    0 -0.00000000000E+00  0.00000000000E+00  0.99099780464E+03  0.99099780464E+03  0.00000000000E+00 0.  1.
         21   -1    0    0  505  502  0.00000000000E+00 -0.00000000000E+00 -0.12084555747E+03  0.12084555747E+03  0.00000000000E+00 0. -1.
         21    1    1    2  503  501 -0.82426232204E+02 -0.57247282063E+02  0.60914642653E+02  0.11739645969E+03  0.00000000000E+00 0. -1.
         21    1    1    2  504  502  0.11257167239E+03  0.87880342787E+02 -0.30679369881E+01  0.14284519001E+03  0.00000000000E+00 0. -1.
         21    1    1    2  505  503 -0.33731608763E+02  0.29035795181E+02  0.81742799487E+01  0.45251714710E+02  0.00000000000E+00 0.  1.
          1    1    1    2  501    0  0.35861685804E+01 -0.59668855904E+02  0.80413126156E+03  0.80634999770E+03  0.00000000000E+00 0.  1.
<scales pt_clust_3="121.91835" pt_clust_4="14000.00000" pt_clust_5="44.50729" pt_clust_6="59.44131"></scales>
<clustering>
<clus scale="   44.507">  2  5  1 -1</clus>
<clus scale="   59.441">  1  6  2 -1</clus>
<clus scale="  121.918">  1  3  2 -1</clus>
<clus scale="   44.507">  2  3  1 -1</clus>
</clustering>
</event>
<event>
 6    0  0.3584505E+002  0.8688147E+02  0.7546771E-02  0.1310584E+00
         21   -1    0    0  503  502  0.00000000000E+00  0.00000000000E+00  0.14449417552E+03  0.14449417552E+03  0.00000000000E+00 0.  1.
         -1   -1    0    0    0  501 -0.00000000000E+00 -0.00000000000E+00 -0.45409686743E+03  0.45409686743E+03  0.00000000000E+00 0.  1.
         21    1    1    2  503  505 -0.84692024011E+02 -0.45755509943E+02  0.76114035709E+02  0.12271777399E+03  0.00000000000E+00 0.  1.
         21    1    1    2  504  501  0.12590956071E+02 -0.40182317208E+02 -0.99015122529E+01  0.43257262233E+02  0.00000000000E+00 0.  1.
         21    1    1    2  505  504  0.34698472579E+02  0.67188034134E+02 -0.25487389982E+02  0.79798640202E+02  0.00000000000E+00 0.  1.
         -1    1    1    2    0  502  0.37402595361E+02  0.18749793017E+02 -0.35032782539E+03  0.35281736653E+03  0.00000000000E+00 0.  1.
<scales pt_clust_3="14000.00000" pt_clust_4="41.76529" pt_clust_5="86.88147" pt_clust_6="41.83908"></scales>
<clustering>
<clus scale="   41.839">  2  6  1 -1</clus>
<clus scale="   41.765">  2  4  1 -1</clus>
<clus scale="   86.881">  2  5  1 -1</clus>
<clus scale="   86.881">  1  3  2 -1</clus>
</clustering>
</event>
<event>
 6    0  0.3584505E+002  0.1176525E+03  0.7546771E-02  0.1247021E+00
         -1   -1    0    0    0  501 -0.00000000000E+00  0.00000000000E+00  0.31571515732E+03  0.31571515732E+03  0.00000000000E+00 0.  1.
         21   -1    0    0  503  502  0.00000000000E+00 -0.00000000000E+00 -0.13792511516E+04  0.13792511516E+04  0.00000000000E+00 0. -1.
         21    1    1    2  503  504 -0.16962428880E+01  0.48296726184E+02 -0.88828617912E+03  0.88959979036E+03  0.00000000000E+00 0. -1.
         21    1    1    2  504  501 -0.55440337394E+02 -0.20979270786E+02 -0.68527950614E+01  0.59671782387E+02  0.00000000000E+00 0. -1.
         21    1    1    2  505  502  0.10778532622E+03 -0.98008715023E+02 -0.43843203068E+03  0.46200219728E+03  0.00000000000E+00 0. -1.
         -1    1    1    2    0  505 -0.50648745942E+02  0.70691259625E+02  0.27003501060E+03  0.28369253886E+03  0.00000000000E+00 0.  1.
<scales pt_clust_3="48.32650" pt_clust_4="58.30775" pt_clust_5="14000.00000" pt_clust_6="117.65255"></scales>
<clustering>
<clus scale="   48.327">  2  3  1 -1</clus>
<clus scale="   58.308">  1  4  2 -1</clus>
<clus scale="  117.653">  1  6  2 -1</clus>
<clus scale="   48.327">  2  3  1 -1</clus>
</clustering>
</event>
<event>
 6    0  0.3584505E+002  0.1246714E+03  0.7546771E-02  0.1235584E+00
          2   -1    0    0  502    0 -0.00000000000E+00  0.00000000000E+00  0.11794904566E+04  0.11794904566E+04  0.00000000000E+00 0. -1.
         21   -1    0    0  504  502  0.00000000000E+00 -0.00000000000E+00 -0.50590163562E+03  0.50590163562E+03  0.00000000000E+00 0.  1.
         21    1    1    2  503  501 -0.47713093799E+02 -0.60886149340E+01  0.14935801836E+03  0.15691216715E+03  0.00000000000E+00 0. -1.
         21    1    1    2  504  505  0.11113162850E+03 -0.65133161543E+02 -0.48327876161E+03  0.50015090623E+03  0.00000000000E+00 0.  1.
         21    1    1    2  505  503 -0.34218261958E+02  0.63406251011E+02  0.11767114811E+03  0.13797732139E+03  0.00000000000E+00 0. -1.
          2    1    1    2  501    0 -0.29200272741E+02  0.78155254653E+01  0.88983841609E+03  0.89035169743E+03  0.00000000000E+00 0. -1.
<scales pt_clust_3="63.19476" pt_clust_4="124.67137" pt_clust_5="14000.00000" pt_clust_6="30.22811"></scales>
<clustering>
<clus scale="   30.228">  1  6  2 -1</clus>
<clus scale="   63.195">  1  3  2 -1</clus>
<clus scale="  124.671">  2  4  1 -1</clus>
<clus scale="  124.671">  2  3  1 -1</clus>
</clustering>
</event>
<event>
 6    0  0.3584505E+002  0.1450039E+03  0.7546771E-02  0.1206750E+00
          3   -1    0    0  504    0 -0.00000000000E+00  0.00000000000E+00  0.25880908235E+03  0.25880908235E+03  0.00000000000E+00 0. -1.
         21   -1    0    0  503  502  0.00000000000E+00 -0.00000000000E+00 -0.29115382808E+03  0.29115382808E+03  0.00000000000E+00 0. -1.
         21    1    1    2  503  501  0.73061811149E+02 -0.13484756654E+03 -0.11180460800E+03  0.18979506005E+03  0.00000000000E+00 0. -1.
         21    1    1    2  504  505 -0.25433735071E+02  0.79477230536E+02 -0.44701603894E+02  0.94666458918E+02  0.00000000000E+00 0. -1.
         21    1    1    2  505  502 -0.30830306591E+02  0.27939423078E+02 -0.63053253766E+02  0.75543576675E+02  0.00000000000E+00 0. -1.
          3    1    1    2  501    0 -0.16797769487E+02  0.27430912925E+02  0.18721471992E+03  0.18995781479E+03  0.00000000000E+00 0. -1.
<scales pt_clust_3="135.53507" pt_clust_4="35.29265" pt_clust_5="35.29265" pt_clust_6="32.16551"></scales>
<clustering>
<clus scale="   32.166">  1  6  2 -1</clus>
<clus scale="   35.293">  4  5 -1 -1</clus>
<clus scale="  135.535">  1  3  2 -1</clus>
<clus scale="  145.004">  2  3  1 -1</clus>
</clustering>
</event>
<event>
 6    0  0.3584505E+002  0.1520254E+03  0.7546771E-02  0.1198006E+00
         21   -1    0    0  504  502  0.00000000000E+00  0.00000000000E+00  0.31972287965E+03  0.31972287965E+03  0.00000000000E+00 0. -1.
         -1   -1    0    0    0  501 -0.00000000000E+00 -0.00000000000E+00 -0.54393390717E+03  0.54393390717E+03  0.00000000000E+00 0. -1.
         21    1    1    2  503  502  0.50857087006E+02 -0.66752086507E+01  0.16289945571E+02  0.53817878405E+02  0.00000000000E+00 0.  1.
         21    1    1    2  504  501 -0.23875238284E+02 -0.35987623067E+02  0.15456738147E+03  0.16048741829E+03  0.00000000000E+00 0. -1.
         21    1    1    2  505  503  0.80217106683E+02  0.14885623322E+03  0.52479505472E+02  0.17705101205E+03  0.00000000000E+00 0. -1.
         -1    1    1    2    0  505 -0.10719895541E+03 -0.10619340150E+03 -0.44754786003E+03  0.47230047807E+03  0.00000000000E+00 0. -1.
<scales pt_clust_3="47.92823" pt_clust_4="43.18722" pt_clust_5="14000.00000" pt_clust_6="152.02536"></scales>
<clustering>
<clus scale="   43.187">  1  4  2 -1</clus>
<clus scale="   47.928">  1  3  2 -1</clus>
<clus scale="  152.025">  2  6  1 -1</clus>
<clus scale="   43.187">  1  3  2 -1</clus>
</clustering>
</event>
<event>
 6    0  0.3584505E+002  0.6993280E+02  0.7546771E-02  0.1360322E+00
         21   -1    0    0  504  502  0.00000000000E+00  0.00000000000E+00  0.73276465747E+02  0.73276465747E+02  0.00000000000E+00 0. -1.
          2   -1    0    0  503    0 -0.00000000000E+00 -0.00000000000E+00 -0.25403112562E+04  0.25403112562E+04  0.00000000000E+00 0.  1.
         21    1    1    2  503  505  0.92914152809E+02 -0.96737541604E+01 -0.12208000644E+04  0.12243689879E+04  0.00000000000E+00 0. -1.
         21    1    1    2  504  501 -0.41129207493E+02  0.39442805106E+02 -0.18559509151E+00  0.56985796732E+02  0.00000000000E+00 0. -1.
         21    1    1    2  505  502 -0.24092216493E+02 -0.65821061092E+02  0.13906087391E+02  0.71457863426E+02  0.00000000000E+00 0. -1.
          2    1    1    2  501    0 -0.27692728823E+02  0.36052010147E+02 -0.12599552184E+04  0.12607750739E+04  0.00000000000E+00 0.  1.
<scales pt_clust_3="69.93280" pt_clust_4="57.98938" pt_clust_5="14000.00000" pt_clust_6="45.46025"></scales>
<clustering>
<clus scale="   45.460">  2  6  1 -1</clus>
<clus scale="   57.989">  1  4  2 -1</clus>
<clus scale="   69.933">  2  3  1 -1</clus>
<clus scale="   57.989">  1  3  2 -1</clus>
</clustering>
</event>
<event>
 6    0  0.3584505E+002  0.9381355E+02  0.7546771E-02  0.1293871E+00
          2   -1    0    0  505    0 -0.00000000000E+00  0.00000000000E+00  0.95159659722E+03  0.95159659722E+03  0.00000000000E+00 0.  1.
         21   -1    0    0  503  502  0.00000000000E+00 -0.00000000000E+00 -0.14146979855E+03  0.14146979855E+03  0.00000000000E+00 0.  1.
         21    1    1    2  503  501  0.21734465009E+02 -0.92616548479E+02 -0.70711752232E+02  0.11853423103E+03  0.00000000000E+00 0.  1.
         21    1    1    2  504  502  0.10117072734E+02  0.90208203273E+02  0.12217861691E+03  0.15220870385E+03  0.00000000000E+00 0.  1.
         21    1    1    2  505  504 -0.70187222265E+02 -0.37901035977E+02  0.20886635577E+02  0.82455965480E+02  0.00000000000E+00 0.  1.
          2    1    1    2  501    0  0.38335684523E+02  0.40309381183E+02  0.73777329842E+03  0.73986749542E+03  0.00000000000E+00 0.  1.
<scales pt_clust_3="14000.00000" pt_clust_4="93.81355" pt_clust_5="67.05507" pt_clust_6="55.62797"></scales>
<clustering>
<clus scale="   55.628">  1  6  2 -1</clus>
<clus scale="   67.055">  1  5  2 -1</clus>
<clus scale="   93.814">  1  4  2 -1</clus>
<clus scale="   93.814">  2  3  1 -1</clus>
</clustering>
</event>
<event>
 6    0  0.3584505E+002  0.6378905E+02  0.7546771E-02  0.1382585E+00
         21   -1    0    0  505  502  0.00000000000E+00  0.00000000000E+00  0.30226391175E+03  0.30226391175E+03  0.00000000000E+00 0.  1.
         -1   -1    0    0    0  501 -0.00000000000E+00 -0.00000000000E+00 -0.18549196793E+03  0.18549196793E+03  0.00000000000E+00 0.  1.
         21    1    1    2  503  501 -0.20685247820E+01 -0.52606788493E+02 -0.93419727199E+02  0.10723338296E+03  0.00000000000E+00 0.  1.
         21    1    1    2  504  503  0.32756093736E+02 -0.76891174337E+02  0.17432908421E+03  0.19332833204E+03  0.00000000000E+00 0.  1.
         21    1    1    2  505  504  0.95340191392E+01  0.41642169284E+02  0.72258225964E+02  0.83941759590E+02  0.00000000000E+00 0. -1.
         -1    1    1    2    0  502 -0.40221588093E+02  0.87855793545E+02 -0.36395639162E+02  0.10325240510E+03  0.00000000000E+00 0.  1.
<scales pt_clust_3="51.35441" pt_clust_4="14000.00000" pt_clust_5="42.71964" pt_clust_6="63.78905"></scales>
<clustering>
<clus scale="   42.720">  1  5  2 -1</clus>
<clus scale="   51.354">  2  3  1 -1</clus>
<clus scale="   63.789">  2  6  1 -1</clus>
<clus scale="   42.720">  1  3  2 -1</clus>
</clustering>
</event>
<event>
 6    0  0.3584505E+002  0.9283107E+02  0.7546771E-02  0.1296137E+00
          2   -1    0    0  504    0 -0.00000000000E+00  0.00000000000E+00  0.14335402733E+04  0.14335402733E+04  0.00000000000E+00 0.  1.
         21   -1    0    0  503  502  0.00000000000E+00 -0.00000000000E+00 -0.72269561299E+02  0.72269561299E+02  0.00000000000E+00 0.  1.
         21    1    1    2  503  505  0.27048226358E+02 -0.21637254407E+02  0.10714402167E+02  0.36257078498E+02  0.00000000000E+00 0. -1.
         21    1    1    2  504  502 -0.29838999879E+02 -0.10515621451E+02 -0.13866181048E+02  0.34542946966E+02  0.00000000000E+00 0.  1.
         21    1    1    2  505  501 -0.50084819622E+02  0.10706464223E+03  0.70059846878E+02  0.13740345308E+03  0.00000000000E+00 0.  1.
          2    1    1    2  501    0  0.52875593142E+02 -0.74911766372E+02  0.12943626440E+04  0.12976063561E+04  0.00000000000E+00 0.  1.
<scales pt_clust_3="31.02345" pt_clust_4="31.63770" pt_clust_5="92.83107" pt_clust_6="14000.00000"></scales>
<clustering>
<clus scale="   31.638">  2  4  1 -1</clus>
<clus scale="   31.023">  2  3  1 -1</clus>
<clus scale="   92.831">  2  5  1 -1</clus>
<clus scale="   31.638">  2  3  1 -1</clus>
</clustering>
</event>
<event>
 6    0  0.3584505E+002  0.1177130E+03  0.7546771E-02  0.1246918E+00
         21   -1    0    0  503  502  0.00000000000E+00  0.00000000000E+00  0.20604823749E+03  0.20604823749E+03  0.00000000000E+00 0. -1.
          1   -1    0    0  505    0 -0.00000000000E+00 -0.00000000000E+00 -0.23018303160E+04  0.23018303160E+04  0.00000000000E+00 0. -1.
         21    1    1    2  503  504  0.35860901959E+02 -0.17978015815E+02  0.11911420851E+03  0.12568774010E+03  0.00000000000E+00 0. -1.
         21    1    1    2  504  501 -0.80308496832E+01 -0.79937194136E+02 -0.44436608784E+02  0.91809921867E+02  0.00000000000E+00 0.  1.
         21    1    1    2  505  502 -0.41927210755E+02  0.17850043428E+03 -0.82915607096E+02  0.20123442534E+03  0.00000000000E+00 0. -1.
          1    1    1    2  501    0  0.14097158479E+02 -0.80585224332E+02 -0.20875440711E+04  0.20891464662E+04  0.00000000000E+00 0. -1.
<scales pt_clust_3="40.11500" pt_clust_4="14000.00000" pt_clust_5="117.71298" pt_clust_6="82.03837"></scales>
<clustering>
<clus scale="   40.115">  1  3  2 -1</clus>
<clus scale="   82.038">  2  6  1 -1</clus>
<clus scale="  117.713">  2  5  1 -1</clus>
<clus scale="   40.115">  1  3  2 -1</clus>
</clustering>
</event>
<event>
 6    0  0.3584505E+002  0.8095233E+02  0.7546771E-02  0.1326370E+00
          1   -1    0    0  505    0 -0.00000000000E+00  0.00000000000E+00  0.10540279444E+04  0.10540279444E+04  0.00000000000E+00 0. -1.
         21   -1    0    0  504  502  0.00000000000E+00 -0.00000000000E+00 -0.10261078280E+04  0.10261078280E+04  0.00000000000E+00 0.  1.
         21    1    1    2  503  501  0.68212577311E+02  0.42114555902E+01  0.30878739404E+02  0.74994590530E+02  0.00000000000E+00 0. -1.
         21    1    1    2  504  503  0.60939293489E+02 -0.33429054612E+02 -0.72541530362E+03  0.72873758097E+03  0.00000000000E+00 0.  1.
         21    1    1    2  505  502 -0.13239951765E+03  0.65977482080E+02 -0.25684952989E+03  0.29640233032E+03  0.00000000000E+00 0.  1.
          1    1    1    2  501    0  0.32476468520E+01 -0.36759883058E+02  0.97930621055E+03  0.98000127053E+03  0.00000000000E+00 0. -1.
<scales pt_clust_3="80.95233" pt_clust_4="69.96793" pt_clust_5="14000.00000" pt_clust_6="36.90307"></scales>
<clustering>
<clus scale="   36.903">  1  6  2 -1</clus>
<clus scale="   69.968">  2  4  1 -1</clus>
<clus scale="   80.952">  1  3  2 -1</clus>
<clus scale="   69.968">  2  3  1 -1</clus>
</clustering>
</event>
<event>
 6    0  0.3584505E+002  0.1240997E+03  0.7546771E-02  0.1236483E+00
         21   -1    0    0  505  502  0.00000000000E+00  0.00000000000E+00  0.51135529286E+03  0.51135529286E+03  0.00000000000E+00 0.  1.
         -4   -1    0    0    0  501 -0.00000000000E+00 -0.00000000000E+00 -0.12595010541E+04  0.12595010541E+04  0.00000000000E+00 0. -1.
         21    1    1    2  503  504 -0.14746394332E+03  0.10288694803E+03  0.60557393644E+02  0.18973280312E+03  0.00000000000E+00 0. -1.
         21    1    1    2  504  501  0.46028769789E+02 -0.23059948390E+02 -0.15766400950E+03  0.16585641006E+03  0.00000000000E+00 0. -1.
         21    1    1    2  505  503  0.60851651950E+02 -0.10116274846E+03  0.37247026285E+03  0.39073126562E+03  0.00000000000E+00 0.  1.
         -4    1    1    2    0  502  0.40583521579E+02  0.21335748814E+02 -0.10235094082E+04  0.10245358682E+04  0.00000000000E+00 0. -1.
<scales pt_clust_3="14000.00000" pt_clust_4="74.38355" pt_clust_5="124.09969" pt_clust_6="45.85015"></scales>
<clustering>
<clus scale="   45.850">  2  6  1 -1</clus>
<clus scale="   74.384">  2  4  1 -1</clus>
<clus scale="  124.100">  1  5  2 -1</clus>
<clus scale="  124.100">  1  3  2 -1</clus>
</clustering>
</event>
<event>
 6    0  0.3584505E+002  0.1535037E+03  0.7546771E-02  0.1196233E+00
         21   -1    0    0  505  502  0.00000000000E+00  0.00000000000E+00  0.21662031963E+04  0.21662031963E+04  0.00000000000E+00 0.  1.
          2   -1    0    0  504    0 -0.00000000000E+00 -0.00000000000E+00 -0.52415866039E+03  0.52415866039E+03  0.00000000000E+00 0.  1.
         21    1    1    2  503  502  0.34387372621E+02  0.91957206095E+01  0.18482110327E+04  0.18485537791E+04  0.00000000000E+00 0.  1.
         21    1    1    2  504  503 -0.14165992171E+03 -0.12270092355E+03  0.24783178828E+03  0.31071473307E+03  0.00000000000E+00 0.  1.
         21    1    1    2  505  501  0.62776576185E+02  0.10701168532E+03 -0.66059217948E+02  0.14055681979E+03  0.00000000000E+00 0.  1.
          2    1    1    2  501    0  0.44495972905E+02  0.64935176243E+01 -0.38793906713E+03  0.39053652478E+03  0.00000000000E+00 0.  1.
<scales pt_clust_3="35.59568" pt_clust_4="153.50371" pt_clust_5="14000.00000" pt_clust_6="45.11177"></scales>
<clustering>
<clus scale="   35.596">  1  3  2 -1</clus>
<clus scale="   45.112">  2  6  1 -1</clus>
<clus scale="  153.504">  1  4  2 -1</clus>
<clus scale="   35.596">  1  3  2 -1</clus>
</clustering>
</event>
<event>
 6    0  0.3584505E+002  0.9775306E+02  0.7546771E-02  0.1285093E+00
         21   -1    0    0  503  502  0.00000000000E+00  0.00000000000E+00  0.59322367764E+03  0.59322367764E+03  0.00000000000E+00 0.  1.
          2   -1    0    0  505    0 -0.00000000000E+00 -0.00000000000E+00 -0.90421778185E+03  0.90421778185E+03  0.00000000000E+00 0.  1.
         21    1    1    2  503  501  0.49768005776E+02 -0.81236948105E+01  0.40326481646E+03  0.40640541460E+03  0.00000000000E+00 0.  1.
         21    1    1    2  504  502 -0.10497892394E+02  0.40431551390E+02  0.12576364945E+03  0.13251947636E+03  0.00000000000E+00 0. -1.
         21    1    1    2  505  504  0.24051033687E+01  0.58514261802E+02  0.41226973059E+02  0.71619596927E+02  0.00000000000E+00 0. -1.
          2    1    1    2  501    0 -0.41675216751E+02 -0.90822118382E+02 -0.88124954318E+03  0.88689697160E+03  0.00000000000E+00 0.  1.
<scales pt_clust_3="48.84785" pt_clust_4="41.77219" pt_clust_5="14000.00000" pt_clust_6="97.75306"></scales>
<clustering>
<clus scale="   41.772">  1  4  2 -1</clus>
<clus scale="   48.848">  1  3  2 -1</clus>
<clus scale="   97.753">  2  6  1 -1</clus>
<clus scale="   41.772">  1  3  2 -1</clus>
</clustering>
</event>
<event>
 6    0  0.4144847E+002  0.1015442E+03  0.7546771E-02  0.1277082E+00
         21   -1    0    0  503  502  0.00000000000E+00  0.00000000000E+00  0.55501333208E+03  0.55501333208E+03  0.00000000000E+00 0.  1.
          2   -1    0    0  504    0 -0.00000000000E+00 -0.00000000000E+00 -0.14735650228E+04  0.14735650228E+04  0.00000000000E+00 0.  1.
         21    1    1    2  503  501  0.52126213765E+02  0.48112924564E+02  0.45328344510E+02  0.84182269438E+02  0.00000000000E+00 0.  1.
         21    1    1    2  504  505 -0.10275312989E+03 -0.33346425544E+02 -0.46401204835E+03  0.47642142144E+03  0.00000000000E+00 0.  1.
         21    1    1    2  505  502  0.12587948369E+02  0.36582965627E+02  0.48224020312E+03  0.48378960647E+03  0.00000000000E+00 0.  1.
          2    1    1    2  501    0  0.38038967755E+02 -0.51349464647E+02 -0.98210818998E+03  0.98418505750E+03  0.00000000000E+00 0.  1.
<scales pt_clust_3="14000.00000" pt_clust_4="101.54417" pt_clust_5="38.68811" pt_clust_6="63.58983"></scales>
<clustering>
<clus scale="   38.688">  1  5  2 -1</clus>
<clus scale="   63.590">  2  6  1 -1</clus>
<clus scale="  101.544">  2  4  1 -1</clus>
<clus scale="   38.688">  1  3  2 -1</clus>
</clustering>
</event>
<event>
 6    0  0.3584505E+002  0.7574622E+02  0.7546771E-02  0.1341576E+00
          2   -1    0    0  504    0 -0.00000000000E+00  0.00000000000E+00  0.19331068029E+04  0.19331068029E+04  0.00000000000E+00 0.  1.
         21   -1    0    0  503  502  0.00000000000E+00 -0.00000000000E+00 -0.72578237942E+02  0.72578237942E+02  0.00000000000E+00 0. -1.
         21    1    1    2  503  501  0.69802552758E+00 -0.33055428495E+02  0.21802276127E+02  0.39604139139E+02  0.00000000000E+00 0. -1.
         21    1    1    2  504  505 -0.87761899074E+02  0.98198330518E+02  0.14642103282E+03  0.19693699982E+03  0.00000000000E+00 0. -1.
         21    1    1    2  505  502  0.53733296528E+02  0.10436964606E+01 -0.18421446453E+02  0.56812904762E+02  0.00000000000E+00 0. -1.
          2    1    1    2  501    0  0.33330577019E+02 -0.66186598484E+02  0.17107267025E+04  0.17123309972E+04  0.00000000000E+00 0.  1.
<scales pt_clust_3="33.06280" pt_clust_4="75.74622" pt_clust_5="57.21362" pt_clust_6="14000.00000"></scales>
<clustering>
<clus scale="   33.063">  2  3  1 -1</clus>
<clus scale="   57.214">  2  5  1 -1</clus>
<clus scale="   75.746">  2  4  1 -1</clus>
<clus scale="   33.063">  2  3  1 -1</clus>
</clustering>
</event>
<event>
 6    0  0.3584505E+002  0.1608303E+03  0.7546771E-02  0.1187763E+00
          1   -1    0    0  504    0 -0.00000000000E+00  0.00000000000E+00  0.10475090622E+04  0.10475090622E+04  0.00000000000E+00 0.  1.
         21   -1    0    0  505  502  0.00000000000E+00 -0.00000000000E+00 -0.61486113401E+03  0.61486113401E+03  0.00000000000E+00 0. -1.
         21    1    1    2  503  502 -0.14953678570E+02  0.39739371163E+02 -0.47983141323E+03  0.48170635791E+03  0.00000000000E+00 0. -1.
         21    1    1    2  504  503 -0.36454883487E+02  0.31634014690E+02 -0.53831032150E+02  0.72301102604E+02  0.00000000000E+00 0. -1.
         21    1    1    2  505  501 -0.92464769916E+02 -0.14560023338E+03  0.52456757694E+02  0.18027998520E+03  0.00000000000E+00 0. -1.
          1    1    1    2  501    0  0.14387333197E+03  0.74226847522E+02  0.91385361585E+03  0.92808275048E+03  0.00000000000E+00 0.  1.
<scales pt_clust_3="42.45975" pt_clust_4="66.51104" pt_clust_5="160.83030" pt_clust_6="14000.00000"></scales>
<clustering>
<clus scale="   42.460">  2  3  1 -1</clus>
<clus scale="   66.511">  2  4  1 -1</clus>
<clus scale="  160.830">  2  5  1 -1</clus>
<clus scale="   42.460">  2  3  1 -1</clus>
</clustering>
</event>
<event>
 6    0  0.3584505E+002  0.8345675E+02  0.7546771E-02  0.1319518E+00
         21   -1    0    0  505  502  0.00000000000E+00  0.00000000000E+00  0.69704735343E+02  0.69704735343E+02  0.00000000000E+00 0.  1.
          1   -1    0    0  503    0 -0.00000000000E+00 -0.00000000000E+00 -0.19262677201E+04  0.19262677201E+04  0.00000000000E+00 0.  1.
         21    1    1    2  503  504 -0.16756913265E+00  0.76435357125E+02 -0.21381314557E+03  0.22706486544E+03  0.00000000000E+00 0.  1.
         21    1    1    2  504  502  0.31364581544E+02 -0.21324988333E+02  0.38585987347E+02  0.54105180181E+02  0.00000000000E+00 0.  1.
         21    1    1    2  505  501 -0.94117489296E+02 -0.58281412298E+02 -0.17451238445E+03  0.20666251992E+03  0.00000000000E+00 0.  1.
          1    1    1    2  501    0  0.62920476885E+02  0.31710435066E+01 -0.15068234421E+04  0.15081398900E+04  0.00000000000E+00 0.  1.
<scales pt_clust_3="83.45675" pt_clust_4="37.92746" pt_clust_5="14000.00000" pt_clust_6="63.85602"></scales>
<clustering>
<clus scale="   37.927">  1  4  2 -1</clus>
<clus scale="   63.856">  2  6  1 -1</clus>
<clus scale="   83.457">  2  3  1 -1</clus>
<clus scale="   37.927">  1  3  2 -1</clus>
</clustering>
</event>
<event>
 6    0  0.3584505E+002  0.1420829E+03  0.7546771E-02  0.1210553E+00
         21   -1    0    0  503  502  0.00000000000E+00  0.00000000000E+00  0.87152879536E+03  0.87152879536E+03  0.00000000000E+00 0. -1.
         -3   -1    0    0    0  501 -0.00000000000E+00 -0.00000000000E+00 -0.46350992461E+03  0.46350992461E+03  0.00000000000E+00 0. -1.
         21    1    1    2  503  505 -0.66280461071E+02  0.70426741866E+01  0.14173704651E+03  0.15662722986E+03  0.00000000000E+00 0. -1.
         21    1    1    2  504  502 -0.21685339318E+02 -0.26726399410E+02  0.66878628509E+03  0.66967129959E+03  0.00000000000E+00 0. -1.
         21    1    1    2  505  501  0.14396550780E+03 -0.99679169097E+02 -0.18767705723E+03  0.25668011610E+03  0.00000000000E+00 0. -1.
         -3    1    1    2    0  504 -0.55999707411E+02  0.11936289432E+03 -0.21482740363E+03  0.25206007443E+03  0.00000000000E+00 0. -1.
<scales pt_clust_3="83.24119" pt_clust_4="34.41736" pt_clust_5="142.08287" pt_clust_6="14000.00000"></scales>
<clustering>
<clus scale="   34.417">  1  4  2 -1</clus>
<clus scale="   83.241">  1  3  2 -1</clus>
<clus scale="  142.083">  1  5  2 -1</clus>
<clus scale="   34.417">  1  3  2 -1</clus>
</clustering>
</event>
<event>
 6    0  0.3584505E+002  0.1155531E+03  0.7546771E-02  0.1250619E+00
         21   -1    0    0  505  502  0.00000000000E+00  0.00000000000E+00  0.48140792133E+03  0.48140792133E+03  0.00000000000E+00 0.  1.
         -3   -1    0    0    0  501 -0.00000000000E+00 -0.00000000000E+00 -0.37865366603E+04  0.37865366603E+04  0.00000000000E+00 0. -1.
         21    1    1    2  503  502 -0.32702369896E+02  0.36882317592E+02  0.25437002064E+03  0.25910202189E+03  0.00000000000E+00 0.  1.
         21    1    1    2  504  503  0.28502711123E+02  0.54335609676E+02  0.29491649018E+02  0.68077311801E+02  0.00000000000E+00 0.  1.
         21    1    1    2  505  501 -0.78569163008E+02 -0.10098364845E+02  0.16602867366E+03  0.18395817683E+03  0.00000000000E+00 0.  1.
         -3    1    1    2    0  504  0.82768821780E+02 -0.81119562424E+02 -0.37550190822E+04  0.37568070711E+04  0.00000000000E+00 0. -1.
<scales pt_clust_3="49.29250" pt_clust_4="65.91530" pt_clust_5="14000.00000" pt_clust_6="115.55312"></scales>
<clustering>
<clus scale="   49.292">  1  3  2 -1</clus>
<clus scale="   65.915">  1  4  2 -1</clus>
<clus scale="  115.553">  2  6  1 -1</clus>
<clus scale="   49.292">  1  3  2 -1</clus>
</clustering>
</event>
<event>
 6    0  0.3584505E+002  0.1232153E+03  0.7546771E-02  0.1237885E+00
         21   -1    0    0  505  502  0.00000000000E+00  0.00000000000E+00  0.26559135494E+03  0.26559135494E+03  0.00000000000E+00 0. -1.
          2   -1    0    0  503    0 -0.00000000000E+00 -0.00000000000E+00 -0.11020878531E+04  0.11020878531E+04  0.00000000000E+00 0. -1.
         21    1    1    2  503  502  0.31230010131E+02  0.45891490255E+02 -0.33761452757E+03  0.34214749982E+03  0.00000000000E+00 0. -1.
         21    1    1    2  504  501  0.12006382603E+03 -0.96187522784E+02 -0.27553110480E+02  0.15628990932E+03  0.00000000000E+00 0.  1.
         21    1    1    2  505  504 -0.24086742546E+02  0.25161749738E+02  0.19109643028E+03  0.19424502691E+03  0.00000000000E+00 0. -1.
          2    1    1    2  501    0 -0.12720709361E+03  0.25134282791E+02 -0.66242529042E+03  0.67499677201E+03  0.00000000000E+00 0. -1.
<scales pt_clust_3="55.74526" pt_clust_4="123.21527" pt_clust_5="34.83224" pt_clust_6="14000.00000"></scales>
<clustering>
<clus scale="   34.832">  1  5  2 -1</clus>
<clus scale="   55.745">  2  3  1 -1</clus>
<clus scale="  123.215">  1  4  2 -1</clus>
<clus scale="   34.832">  1  3  2 -1</clus>
</clustering>
</event>
<event>
 6    0  0.3584505E+002  0.1047223E+03  0.7546771E-02  0.1270668E+00
         21   -1    0    0  504  502  0.00000000000E+00  0.00000000000E+00  0.29672863589E+02  0.29672863589E+02  0.00000000000E+00 0.  1.
          1   -1    0    0  503    0 -0.00000000000E+00 -0.00000000000E+00 -0.24854277835E+04  0.24854277835E+04  0.00000000000E+00 0.  1.
         21    1    1    2  503  505  0.44361609540E+02 -0.82673097823E+02 -0.23208936880E+03  0.25033631102E+03  0.00000000000E+00 0.  1.
         21    1    1    2  504  501  0.78138720002E+02  0.10914327461E+03 -0.24610972498E+03  0.28033535397E+03  0.00000000000E+00 0.  1.
         21    1    1    2  505  502 -0.15915317478E+02 -0.25466952418E+02 -0.11600749676E+03  0.11983155803E+03  0.00000000000E+00 0.  1.
          1    1    1    2  501    0 -0.10658501206E+03 -0.10032243681E+01 -0.18615483294E+04  0.18645974241E+04  0.00000000000E+00 0.  1.
<scales pt_clust_3="99.09600" pt_clust_4="14000.00000" pt_clust_5="30.03103" pt_clust_6="104.72227"></scales>
<clustering>
<clus scale="   30.031">  1  5  2 -1</clus>
<clus scale="   99.096">  1  3  2 -1</clus>
<clus scale="  104.722">  2  6  1 -1</clus>
<clus scale="   30.031">  1  3  2 -1</clus>
</clustering>
</event>
<event>
 6    0  0.3584505E+002  0.1248077E+03  0.7546771E-02  0.1235370E+00
         21   -1    0    0  504  502  0.00000000000E+00  0.00000000000E+00  0.55647063557E+02  0.55647063557E+02  0.00000000000E+00 0.  1.
          2   -1    0    0  505    0 -0.00000000000E+00 -0.00000000000E+00 -0.26569208441E+04  0.26569208441E+04  0.00000000000E+00 0. -1.
         21    1    1    2  503  502  0.14002021858E+01  0.10521140597E+03 -0.44812468165E+03  0.46031199291E+03  0.00000000000E+00 0.  1.
         21    1    1    2  504  501 -0.12711056382E+02 -0.12889343586E+03 -0.68484376861E+02  0.14651006326E+03  0.00000000000E+00 0.  1.
         21    1    1    2  505  503 -0.38987790944E+02  0.73819812236E+02 -0.16640642600E+03  0.18617333626E+03  0.00000000000E+00 0.  1.
          2    1    1    2  501    0  0.50298645140E+02 -0.50137782349E+02 -0.19182582960E+04  0.19195725152E+04  0.00000000000E+00 0. -1.
<scales pt_clust_3="14000.00000" pt_clust_4="124.80773" pt_clust_5="67.46937" pt_clust_6="71.01937"></scales>
<clustering>
<clus scale="   71.019">  2  6  1 -1</clus>
<clus scale="   67.469">  2  5  1 -1</clus>
<clus scale="  124.808">  1  4  2 -1</clus>
<clus scale="  124.808">  1  3  2 -1</clus>
</clustering>
</event>
<event>
 6    0  0.3584505E+002  0.1055993E+03  0.7546771E-02  0.1268943E+00
         21   -1    0    0  503  502  0.00000000000E+00  0.00000000000E+00  0.10933318254E+04  0.10933318254E+04  0.00000000000E+00 0. -1.
          2   -1    0    0  505    0 -0.00000000000E+00 -0.00000000000E+00 -0.78269398021E+03  0.78269398021E+03  0.00000000000E+00 0. -1.
         21    1    1    2  503  504 -0.55896604704E+02  0.78628567839E+01  0.94872710584E+03  0.95040484863E+03  0.00000000000E+00 0. -1.
         21    1    1    2  504  501  0.46471272235E+02 -0.82412200210E+02 -0.43740884827E+02  0.10423346340E+03  0.00000000000E+00 0.  1.
         21    1    1    2  505  502  0.17430723540E+02  0.10583331836E+03  0.87716026609E+02  0.13855909469E+03  0.00000000000E+00 0.  1.
          2    1    1    2  501    0 -0.80053910710E+01 -0.31283974929E+02 -0.68206440240E+03  0.68282839894E+03  0.00000000000E+00 0. -1.
<scales pt_clust_3="56.47743" pt_clust_4="14000.00000" pt_clust_5="105.59931" pt_clust_6="32.29200"></scales>
<clustering>
<clus scale="   32.292">  2  6  1 -1</clus>
<clus scale="   56.477">  1  3  2 -1</clus>
<clus scale="  105.599">  1  5  2 -1</clus>
<clus scale="   56.477">  1  3  2 -1</clus>
</clustering>
</event>
<event>
 6    0  0.3584505E+002  0.9896165E+02  0.7546771E-02  0.1282495E+00
         21   -1    0    0  503  502  0.00000000000E+00  0.00000000000E+00  0.28775581655E+04  0.28775581655E+04  0.00000000000E+00 0. -1.
          2   -1    0    0  505    0 -0.00000000000E+00 -0.00000000000E+00 -0.11268314312E+04  0.11268314312E+04  0.00000000000E+00 0.  1.
         21    1    1    2  503  501 -0.40132588606E+02 -0.87533561329E+02  0.67086714215E+03  0.67774292431E+03  0.00000000000E+00 0. -1.
         21    1    1    2  504  502 -0.31495017713E+02  0.22718352393E+02  0.20263855878E+04  0.20267576594E+04  0.00000000000E+00 0. -1.
         21    1    1    2  505  504  0.10755460697E+03  0.62972856920E+02  0.15437146587E+03  0.19840394065E+03  0.00000000000E+00 0. -1.
          2    1    1    2  501    0 -0.35927000655E+02  0.18423520157E+01 -0.11008974615E+04  0.11014850722E+04  0.00000000000E+00 0.  1.
<scales pt_clust_3="98.96165" pt_clust_4="39.05323" pt_clust_5="14000.00000" pt_clust_6="35.97421"></scales>
<clustering>
<clus scale="   35.974">  2  6  1 -1</clus>
<clus scale="   39.053">  1  4  2 -1</clus>
<clus scale="   98.962">  1  3  2 -1</clus>
<clus scale="   39.053">  1  3  2 -1</clus>
</clustering>
</event>
<event>
 6    0  0.3584505E+002  0.1158639E+03  0.7546771E-02  0.1250081E+00
         21   -1    0    0  504  502  0.00000000000E+00  0.00000000000E+00  0.73795140846E+03  0.73795140846E+03  0.00000000000E+00 0.  1.
          1   -1    0    0  503    0 -0.00000000000E+00 -0.00000000000E+00 -0.75324197516E+03  0.75324197516E+03  0.00000000000E+00 0. -1.
         21    1    1    2  503  502  0.38172248378E+02 -0.20156169490E+02  0.16351408699E+02  0.46160159025E+02  0.00000000000E+00 0.  1.
         21    1    1    2  504  505  0.63301382639E+02 -0.21315282609E+02  0.47863597345E+03  0.48327404378E+03  0.00000000000E+00 0.  1.
         21    1    1    2  505  501 -0.16970293928E+03  0.89683080811E+01  0.19143842283E+03  0.25598474151E+03  0.00000000000E+00 0.  1.
          1    1    1    2  501    0  0.68229308266E+02  0.32503144018E+02 -0.70171637168E+03  0.70577443930E+03  0.00000000000E+00 0. -1.
<scales pt_clust_3="43.16702" pt_clust_4="115.86390" pt_clust_5="14000.00000" pt_clust_6="75.64986"></scales>
<clustering>
<clus scale="   43.167">  1  3  2 -1</clus>
<clus scale="   75.650">  2  6  1 -1</clus>
<clus scale="  115.864">  1  4  2 -1</clus>
<clus scale="   43.167">  1  3  2 -1</clus>
</clustering>
</event>
<event>
 6    0  0.3584505E+002  0.2115417E+03  0.7546771E-02  0.1140351E+00
          2   -1    0    0  504    0 -0.00000000000E+00  0.00000000000E+00  0.45946734144E+03  0.45946734144E+03  0.00000000000E+00 0. -1.
         21   -1    0    0  503  502  0.00000000000E+00 -0.00000000000E+00 -0.34173985062E+03  0.34173985062E+03  0.00000000000E+00 0. -1.
         21    1    1    2  503  505  0.13780835248E+03  0.92549120900E+02 -0.18444470444E+03  0.24814578535E+03  0.00000000000E+00 0. -1.
         21    1    1    2  504  502 -0.16686669834E+03 -0.10783408650E+03  0.11624026933E+03  0.23018359072E+03  0.00000000000E+00 0. -1.
         21    1    1    2  505  501  0.95804501222E+01  0.45354103750E+02 -0.59173229158E+02  0.75168150173E+02  0.00000000000E+00 0.  1.
          2    1    1    2  501    0  0.19477895735E+02 -0.30069138153E+02  0.24510515508E+03  0.24770966581E+03  0.00000000000E+00 0. -1.
<scales pt_clust_3="35.21715" pt_clust_4="200.76961" pt_clust_5="35.21715" pt_clust_6="35.82655"></scales>
<clustering>
<clus scale="   35.217">  3  5 -1 -1</clus>
<clus scale="   35.827">  1  6  2 -1</clus>
<clus scale="  200.770">  1  4  2 -1</clus>
<clus scale="  211.542">  2  3  1 -1</clus>
</clustering>
</event>
<event>
 6    0  0.3584505E+002  0.9271210E+02  0.7546771E-02  0.1296414E+00
          2   -1    0    0  503    0 -0.00000000000E+00  0.00000000000E+00  0.15873297683E+04  0.15873297683E+04  0.00000000000E+00 0.  1.
         21   -1    0    0  505  502  0.00000000000E+00 -0.00000000000E+00 -0.10825991233E+03  0.10825991233E+03  0.00000000000E+00 0. -1.
         21    1    1    2  503  502 -0.84753761056E+02 -0.84401003339E+01  0.27158521506E+03  0.28462776454E+03  0.00000000000E+00 0. -1.
         21    1    1    2  504  501  0.38100549849E+02  0.67671393358E+02  0.90197758001E+02  0.11902396786E+03  0.00000000000E+00 0. -1.
         21    1    1    2  505  504  0.28949638399E+02 -0.98644425380E+02 -0.56532817972E+02  0.11732332986E+03  0.00000000000E+00 0. -1.
          2    1    1    2  501    0  0.17703572808E+02  0.39413132356E+02  0.11738197008E+04  0.11746146183E+04  0.00000000000E+00 0.  1.
<scales pt_clust_3="75.04928" pt_clust_4="14000.00000" pt_clust_5="92.71210" pt_clust_6="43.20661"></scales>
<clustering>
<clus scale="   43.207">  1  6  2 -1</clus>
<clus scale="   75.049">  1  3  2 -1</clus>
<clus scale="   92.712">  2  5  1 -1</clus>
<clus scale="   92.712">  2  3  1 -1</clus>
</clustering>
</event>
<event>
 6    0  0.3584505E+002  0.8067561E+02  0.7546771E-02  0.1327145E+00
         -2   -1    0    0    0  501 -0.00000000000E+00  0.00000000000E+00  0.25531641148E+02  0.25531641148E+02  0.00000000000E+00 0.  1.
         21   -1    0    0  504  502  0.00000000000E+00 -0.00000000000E+00 -0.24025092427E+04  0.24025092427E+04  0.00000000000E+00 0.  1.
         21    1    1    2  503  501 -0.11112618188E+03  0.54267188463E+02 -0.27956525814E+03  0.30569705527E+03  0.00000000000E+00 0.  1.
         21    1    1    2  504  503  0.27826959606E+02  0.40803608816E+02 -0.60079297805E+03  0.60281960540E+03  0.00000000000E+00 0.  1.
         21    1    1    2  505  502  0.26092482505E+02 -0.62597486982E+02 -0.14055336694E+04  0.14071688452E+04  0.00000000000E+00 0.  1.
         -2    1    1    2    0  505  0.57206739773E+02 -0.32473310297E+02 -0.91085695951E+02  0.11235537799E+03  0.00000000000E+00 0.  1.
<scales pt_clust_3="14000.00000" pt_clust_4="49.38901" pt_clust_5="56.84706" pt_clust_6="80.67561"></scales>
<clustering>
<clus scale="   49.389">  2  4  1 -1</clus>
<clus scale="   56.847">  2  5  1 -1</clus>
<clus scale="   80.676">  1  6  2 -1</clus>
<clus scale="   49.389">  2  3  1 -1</clus>
</clustering>
</event>
<event>
 6    0  0.3584505E+002  0.1054264E+03  0.7546771E-02  0.1269282E+00
         21   -1    0    0  504  502  0.00000000000E+00  0.00000000000E+00  0.16449686319E+04  0.16449686319E+04  0.00000000000E+00 0.  1.
          4   -1    0    0  503    0 -0.00000000000E+00 -0.00000000000E+00 -0.37466308509E+03  0.37466308509E+03  0.00000000000E+00 0. -1.
         21    1    1    2  503  505  0.11147764519E+03  0.50830634637E+02 -0.24710272046E+03  0.27580930596E+03  0.00000000000E+00 0. -1.
         21    1    1    2  504  501 -0.12895882681E+03  0.42691938628E+02  0.13311518637E+04  0.13380651198E+04  0.00000000000E+00 0.  1.
         21    1    1    2  505  502  0.26340851123E+02 -0.64402927355E+02  0.28969460246E+03  0.29793378490E+03  0.00000000000E+00 0.  1.
          4    1    1    2  501    0 -0.88596695089E+01 -0.29119645909E+02 -0.10343819890E+03  0.10782350631E+03  0.00000000000E+00 0. -1.
<scales pt_clust_3="105.42641" pt_clust_4="14000.00000" pt_clust_5="69.94342" pt_clust_6="30.43760"></scales>
<clustering>
<clus scale="   30.438">  2  6  1 -1</clus>
<clus scale="   69.943">  1  5  2 -1</clus>
<clus scale="  105.426">  2  3  1 -1</clus>
<clus scale="   69.943">  1  3  2 -1</clus>
</clustering>
</event>
<event>
 6    0  0.3584505E+002  0.7467794E+02  0.7546771E-02  0.1344871E+00
          1   -1    0    0  505    0 -0.00000000000E+00  0.00000000000E+00  0.11954066325E+04  0.11954066325E+04  0.00000000000E+00 0. -1.
         21   -1    0    0  504  502  0.00000000000E+00 -0.00000000000E+00 -0.49887929718E+02  0.49887929718E+02  0.00000000000E+00 0. -1.
         21    1    1    2  503  502 -0.22643636334E+02  0.10712158582E+03  0.20887036717E+03  0.23582747655E+03  0.00000000000E+00 0. -1.
         21    1    1    2  504  501  0.52399060148E+00 -0.60940560200E+02  0.11496448546E+01  0.60953655567E+02  0.00000000000E+00 0. -1.
         21    1    1    2  505  503 -0.20385121133E+02 -0.87685830666E+02  0.41602666814E+03  0.42565543185E+03  0.00000000000E+00 0. -1.
          1    1    1    2  501    0  0.42504766866E+02  0.41504805049E+02  0.51947202262E+03  0.52285799825E+03  0.00000000000E+00 0. -1.
<scales pt_clust_3="74.67794" pt_clust_4="59.08123" pt_clust_5="14000.00000" pt_clust_6="59.40795"></scales>
<clustering>
<clus scale="   59.408">  1  6  2 -1</clus>
<clus scale="   59.081">  2  4  1 -1</clus>
<clus scale="   74.678">  2  3  1 -1</clus>
<clus scale="   59.081">  2  3  1 -1</clus>
</clustering>
</event>
<event>
 6    0  0.3584505E+002  0.9412907E+02  0.7546771E-02  0.1293150E+00
          2   -1    0    0  502    0 -0.00000000000E+00  0.00000000000E+00  0.14270602096E+04  0.14270602096E+04  0.00000000000E+00 0. -1.
         21   -1    0    0  503  502  0.00000000000E+00 -0.00000000000E+00 -0.36754826651E+02  0.36754826651E+02  0.00000000000E+00 0.  1.
         21    1    1    2  503  504  0.47434302116E+01 -0.34173824750E+02  0.65734523335E+02  0.74238655607E+02  0.00000000000E+00 0. -1.
         21    1    1    2  504  505  0.69308595371E+02 -0.50478801453E+02  0.39147378550E+02  0.94256607385E+02  0.00000000000E+00 0.  1.
         21    1    1    2  505  501 -0.73273255595E+02  0.14131138788E+02  0.38677139742E+03  0.39390452261E+03  0.00000000000E+00 0.  1.
          2    1    1    2  501    0 -0.77876998733E+00  0.70521487415E+02  0.89865208366E+03  0.90141525066E+03  0.00000000000E+00 0. -1.
<scales pt_clust_3="34.50146" pt_clust_4="94.12907" pt_clust_5="14000.00000" pt_clust_6="69.07128"></scales>
<clustering>
<clus scale="   34.501">  2  3  1 -1</clus>
<clus scale="   69.071">  1  6  2 -1</clus>
<clus scale="   94.129">  2  4  1 -1</clus>
<clus scale="   34.501">  2  3  1 -1</clus>
</clustering>
</event>
<event>
 6    0  0.6628055E+002  0.1109382E+03  0.7546771E-02  0.1258842E+00
         21   -1    0    0  503  502  0.00000000000E+00  0.00000000000E+00  0.37908620361E+03  0.37908620361E+03  0.00000000000E+00 0.  1.
          2   -1    0    0  504    0 -0.00000000000E+00 -0.00000000000E+00 -0.15916657116E+04  0.15916657116E+04  0.00000000000E+00 0. -1.
         21    1    1    2  503  501  0.52084523625E+02  0.79716689481E+02  0.43909798325E+01  0.95324859753E+02  0.00000000000E+00 0.  1.
         21    1    1    2  504  505 -0.18204229436E+02 -0.60049505047E+02 -0.41283800222E+03  0.41757939737E+03  0.00000000000E+00 0. -1.
         21    1    1    2  505  502 -0.41060053834E+01  0.32882132393E+02  0.32520866006E+03  0.32689259167E+03  0.00000000000E+00 0.  1.
          2    1    1    2  501    0 -0.29774288806E+02 -0.52549316827E+02 -0.11293411457E+04  0.11309550665E+04  0.00000000000E+00 0. -1.
<scales pt_clust_3="14000.00000" pt_clust_4="110.93818" pt_clust_5="33.13750" pt_clust_6="59.99442"></scales>
<clustering>
<clus scale="   33.138">  1  5  2 -1</clus>
<clus scale="   59.994">  2  6  1 -1</clus>
<clus scale="  110.938">  2  4  1 -1</clus>
<clus scale="   33.138">  1  3  2 -1</clus>
</clustering>
</event>
<event>
 6    0  0.3584505E+002  0.1697855E+03  0.7546771E-02  0.1178072E+00
         21   -1    0    0  504  502  0.00000000000E+00  0.00000000000E+00  0.11065638395E+04  0.11065638395E+04  0.00000000000E+00 0. -1.
          1   -1    0    0  503    0 -0.00000000000E+00 -0.00000000000E+00 -0.23630905627E+04  0.23630905627E+04  0.00000000000E+00 0.  1.
         21    1    1    2  503  502 -0.14243929866E+03  0.23360377906E+02 -0.90467247845E+02  0.17034959345E+03  0.00000000000E+00 0. -1.
         21    1    1    2  504  505 -0.94161472331E+02 -0.50382628705E+02  0.93559817046E+03  0.94167336625E+03  0.00000000000E+00 0. -1.
         21    1    1    2  505  501  0.23685967785E+03 -0.13083164669E+02  0.17713217426E+02  0.23788113473E+03  0.00000000000E+00 0. -1.
          1    1    1    2  501    0 -0.25890686307E+00  0.40105415468E+02 -0.21193708632E+04  0.21197503078E+04  0.00000000000E+00 0.  1.
<scales pt_clust_3="14000.00000" pt_clust_4="106.56098" pt_clust_5="169.78546" pt_clust_6="40.10625"></scales>
<clustering>
<clus scale="   40.106">  2  6  1 -1</clus>
<clus scale="  106.561">  1  4  2 -1</clus>
<clus scale="  169.785">  1  5  2 -1</clus>
<clus scale="  106.561">  1  3  2 -1</clus>
</clustering>
</event>
<event>
 6    0  0.3584505E+002  0.8937456E+02  0.7546771E-02  0.1304373E+00
          2   -1    0    0  504    0 -0.00000000000E+00  0.00000000000E+00  0.98303989514E+03  0.98303989514E+03  0.00000000000E+00 0. -1.
         21   -1    0    0  505  502  0.00000000000E+00 -0.00000000000E+00 -0.62892720992E+03  0.62892720992E+03  0.00000000000E+00 0.  1.
         21    1    1    2  503  501 -0.64183585606E+02  0.27018740285E+02 -0.14471895800E+03  0.16060237169E+03  0.00000000000E+00 0. -1.
         21    1    1    2  504  502  0.98728581032E+02  0.44504559159E+01 -0.39584800904E+02  0.10646171017E+03  0.00000000000E+00 0.  1.
         21    1    1    2  505  503  0.51924492951E+02 -0.97448599360E+01 -0.39938949874E+03  0.40286857283E+03  0.00000000000E+00 0.  1.
          2    1    1    2  501    0 -0.86469488378E+02 -0.21724336265E+02  0.93780594287E+03  0.94203445038E+03  0.00000000000E+00 0. -1.
<scales pt_clust_3="35.82319" pt_clust_4="14000.00000" pt_clust_5="52.83101" pt_clust_6="89.37456"></scales>
<clustering>
<clus scale="   52.831">  2  5  1 -1</clus>
<clus scale="   35.823">  2  3  1 -1</clus>
<clus scale="   89.375">  1  6  2 -1</clus>
<clus scale="   52.831">  2  3  1 -1</clus>
</clustering>
</event>
<event>
 6    0  0.3584505E+002  0.1954302E+03  0.7546771E-02  0.1153653E+00
         21   -1    0    0  505  502  0.00000000000E+00  0.00000000000E+00  0.36425253336E+03  0.36425253336E+03  0.00000000000E+00 0. -1.
          2   -1    0    0  504    0 -0.00000000000E+00 -0.00000000000E+00 -0.22565459870E+04  0.22565459870E+04  0.00000000000E+00 0. -1.
         21    1    1    2  503  501  0.17898869863E+03  0.11070254785E+03  0.30441988683E+02  0.21264694452E+03  0.00000000000E+00 0. -1.
         21    1    1    2  504  502 -0.15911907884E+03 -0.82982124207E+02  0.74861506401E+02  0.19444577478E+03  0.00000000000E+00 0. -1.
         21    1    1    2  505  503 -0.33573691591E+02  0.30150333850E+01  0.10528756206E+03  0.11055204167E+03  0.00000000000E+00 0.  1.
          2    1    1    2  501    0  0.13704071801E+02 -0.30735457031E+02 -0.21028845108E+04  0.21031537594E+04  0.00000000000E+00 0. -1.
<scales pt_clust_3="195.43020" pt_clust_4="14000.00000" pt_clust_5="33.43145" pt_clust_6="33.65219"></scales>
<clustering>
<clus scale="   33.652">  2  6  1 -1</clus>
<clus scale="   33.431">  1  5  2 -1</clus>
<clus scale="  195.430">  2  3  1 -1</clus>
<clus scale="   33.431">  1  3  2 -1</clus>
</clustering>
</event>
<event>
 6    0  0.3584505E+002  0.8813723E+02  0.7546771E-02  0.1307426E+00
         21   -1    0    0  504  502  0.00000000000E+00  0.00000000000E+00  0.20452861294E+03  0.20452861294E+03  0.00000000000E+00 0.  1.
          1   -1    0    0  503    0 -0.00000000000E+00 -0.00000000000E+00 -0.53726680835E+03  0.53726680835E+03  0.00000000000E+00 0. -1.
         21    1    1    2  503  502 -0.87469606413E+02 -0.41035374940E+02  0.14263203915E+02  0.97664082591E+02  0.00000000000E+00 0.  1.
         21    1    1    2  504  505  0.66176888894E+02  0.53396544254E+02  0.73547985396E+02  0.11242721075E+03  0.00000000000E+00 0.  1.
         21    1    1    2  505  501  0.59355139527E+02 -0.19308678645E+02  0.36975045271E+02  0.72546616958E+02  0.00000000000E+00 0.  1.
          1    1    1    2  501    0 -0.38062422008E+02  0.69475093316E+01 -0.45752442999E+03  0.45915751099E+03  0.00000000000E+00 0. -1.
<scales pt_clust_3="88.13723" pt_clust_4="14000.00000" pt_clust_5="53.78853" pt_clust_6="38.69129"></scales>
<clustering>
<clus scale="   38.691">  2  6  1 -1</clus>
<clus scale="   53.789">  2  5  1 -1</clus>
<clus scale="   88.137">  2  3  1 -1</clus>
<clus scale="   88.137">  1  3  2 -1</clus>
</clustering>
</event>
<event>
 6    0  0.3584505E+002  0.8689052E+02  0.7546771E-02  0.1310561E+00
          4   -1    0    0  504    0 -0.00000000000E+00  0.00000000000E+00  0.64207607511E+03  0.64207607511E+03  0.00000000000E+00 0.  1.
         21   -1    0    0  505  502  0.00000000000E+00 -0.00000000000E+00 -0.41009452449E+03  0.41009452449E+03  0.00000000000E+00 0. -1.
         21    1    1    2  503  501  0.81566850038E+02 -0.65208672345E+02 -0.33631366923E+02  0.10971048635E+03  0.00000000000E+00 0. -1.
         21    1    1    2  504  502 -0.48360634410E+02 -0.46977165076E+02 -0.25358688585E+03  0.26239648182E+03  0.00000000000E+00 0. -1.
         21    1    1    2  505  503  0.15380743225E+02  0.40844765182E+02 -0.71132360018E+02  0.83454626874E+02  0.00000000000E+00 0.  1.
          4    1    1    2  501    0 -0.48586958853E+02  0.71341072239E+02  0.59033216341E+03  0.59660900455E+03  0.00000000000E+00 0.  1.
<scales pt_clust_3="86.89052" pt_clust_4="39.52451" pt_clust_5="43.64473" pt_clust_6="14000.00000"></scales>
<clustering>
<clus scale="   43.645">  2  5  1 -1</clus>
<clus scale="   39.525">  2  4  1 -1</clus>
<clus scale="   86.891">  2  3  1 -1</clus>
<clus scale="   43.645">  2  3  1 -1</clus>
</clustering>
</event>
<event>
 6    0  0.3584505E+002  0.1590494E+03  0.7546771E-02  0.1189774E+00
         21   -1    0    0  503  502  0.00000000000E+00  0.00000000000E+00  0.10448441779E+04  0.10448441779E+04  0.00000000000E+00 0. -1.
          2   -1    0    0  504    0 -0.00000000000E+00 -0.00000000000E+00 -0.23890516758E+03  0.23890516758E+03  0.00000000000E+00 0.  1.
         21    1    1    2  503  501  0.32041324766E+00  0.15292933675E+03  0.31317100760E+03  0.34851623306E+03  0.00000000000E+00 0. -1.
         21    1    1    2  504  505  0.41355362099E+02 -0.15496940182E+03  0.53176879434E+03  0.55543121276E+03  0.00000000000E+00 0. -1.
         21    1    1    2  505  502 -0.32239272252E+02 -0.32104993269E+02  0.16581560943E+03  0.17194451896E+03  0.00000000000E+00 0. -1.
          2    1    1    2  501    0 -0.94365030943E+01  0.34145058339E+02 -0.20481640102E+03  0.20785738074E+03  0.00000000000E+00 0.  1.
<scales pt_clust_3="159.04940" pt_clust_4="14000.00000" pt_clust_5="43.95643" pt_clust_6="35.42503"></scales>
<clustering>
<clus scale="   35.425">  2  6  1 -1</clus>
<clus scale="   43.956">  1  5  2 -1</clus>
<clus scale="  159.049">  2  3  1 -1</clus>
<clus scale="   43.956">  1  3  2 -1</clus>
</clustering>
</event>
<event>
 6    0  0.3584505E+002  0.1148745E+03  0.7546771E-02  0.1251800E+00
         21   -1    0    0  503  502  0.00000000000E+00  0.00000000000E+00  0.53333358320E+03  0.53333358320E+03  0.00000000000E+00 0.  1.
          2   -1    0    0  505    0 -0.00000000000E+00 -0.00000000000E+00 -0.27065539085E+04  0.27065539085E+04  0.00000000000E+00 0. -1.
         21    1    1    2  503  501  0.23119567358E+02 -0.73129619183E+02  0.51216980429E+03  0.51788064651E+03  0.00000000000E+00 0.  1.
         21    1    1    2  504  502 -0.97261442431E+02 -0.27269478181E+02 -0.15830731306E+03  0.18778875896E+03  0.00000000000E+00 0.  1.
         21    1    1    2  505  504  0.36044540341E+02 -0.51823958839E+01 -0.14536278611E+03  0.14985461521E+03  0.00000000000E+00 0. -1.
          2    1    1    2  501    0  0.38097334732E+02  0.10558149325E+03 -0.23817200304E+04  0.23843634710E+04  0.00000000000E+00 0. -1.
<scales pt_clust_3="76.71481" pt_clust_4="14000.00000" pt_clust_5="36.41519" pt_clust_6="114.87452"></scales>
<clustering>
<clus scale="   36.415">  2  5  1 -1</clus>
<clus scale="   76.715">  1  3  2 -1</clus>
<clus scale="  114.875">  2  6  1 -1</clus>
<clus scale="   76.715">  1  3  2 -1</clus>
</clustering>
</event>
<event>
 6    0  0.3584505E+002  0.1508381E+03  0.7546771E-02  0.1199447E+00
         21   -1    0    0  505  502  0.00000000000E+00  0.00000000000E+00  0.77345556565E+02  0.77345556565E+02  0.00000000000E+00 0. -1.
          2   -1    0    0  504    0 -0.00000000000E+00 -0.00000000000E+00 -0.14097209266E+04  0.14097209266E+04  0.00000000000E+00 0. -1.
         21    1    1    2  503  502  0.15538494373E+02  0.64294053663E+02  0.78603610696E+01  0.66610475302E+02  0.00000000000E+00 0. -1.
         21    1    1    2  504  503 -0.80239224188E+02  0.80347131596E+02 -0.36749930496E+03  0.38464234531E+03  0.00000000000E+00 0. -1.
         21    1    1    2  505  501 -0.99425878233E+02 -0.24071177214E+02 -0.11361061967E+03  0.15288001745E+03  0.00000000000E+00 0. -1.
          2    1    1    2  501    0  0.16412660805E+03 -0.12057000804E+03 -0.85912580646E+03  0.88293364509E+03  0.00000000000E+00 0. -1.
<scales pt_clust_3="66.14507" pt_clust_4="14000.00000" pt_clust_5="92.11735" pt_clust_6="150.83811"></scales>
<clustering>
<clus scale="   66.145">  1  3  2 -1</clus>
<clus scale="   92.117">  1  5  2 -1</clus>
<clus scale="  150.838">  1  6  2 -1</clus>
<clus scale="   66.145">  1  3  2 -1</clus>
</clustering>
</event>
<event>
 6    0  0.3584505E+002  0.7184163E+02  0.7546771E-02  0.1353940E+00
          2   -1    0    0  503    0 -0.00000000000E+00  0.00000000000E+00  0.11703808084E+04  0.11703808084E+04  0.00000000000E+00 0. -1.
         21   -1    0    0  504  502  0.00000000000E+00 -0.00000000000E+00 -0.28898239332E+03  0.28898239332E+03  0.00000000000E+00 0. -1.
         21    1    1    2  503  502 -0.64531908700E+02 -0.91117300805E+02  0.29081142740E+02  0.11537955889E+03  0.00000000000E+00 0. -1.
         21    1    1    2  504  505  0.17265084960E+02  0.67326963551E+02 -0.23237505676E+03  0.24254725351E+03  0.00000000000E+00 0. -1.
         21    1    1    2  505  501  0.19550920327E+02  0.38939732868E+02  0.50242763805E+02  0.66504711082E+02  0.00000000000E+00 0.  1.
          2    1    1    2  501    0  0.27715903413E+02 -0.15149395613E+02  0.10344495653E+04  0.10349316782E+04  0.00000000000E+00 0. -1.
<scales pt_clust_3="14000.00000" pt_clust_4="71.84163" pt_clust_5="45.18680" pt_clust_6="31.58600"></scales>
<clustering>
<clus scale="   31.586">  1  6  2 -1</clus>
<clus scale="   45.187">  1  5  2 -1</clus>
<clus scale="   71.842">  2  4  1 -1</clus>
<clus scale="   71.842">  2  3  1 -1</clus>
</clustering>
</event>
<event>
 6    0  0.3584505E+002  0.1132775E+03  0.7546771E-02  0.1254618E+00
         -1   -1    0    0    0  501 -0.00000000000E+00  0.00000000000E+00  0.22302548852E+03  0.22302548852E+03  0.00000000000E+00 0. -1.
         21   -1    0    0  505  502  0.00000000000E+00 -0.00000000000E+00 -0.75813404979E+03  0.75813404979E+03  0.00000000000E+00 0. -1.
         21    1    1    2  503  502  0.38428672597E+02 -0.30949743885E+01 -0.18369238389E+03  0.18769452215E+03  0.00000000000E+00 0. -1.
         21    1    1    2  504  503  0.11347017511E+03  0.11832967851E+01 -0.18214277851E+03  0.21459933037E+03  0.00000000000E+00 0. -1.
         21    1    1    2  505  501 -0.12567288858E+03  0.46637011478E+02 -0.35845963640E+03  0.38270353630E+03  0.00000000000E+00 0. -1.
         -1    1    1    2    0  504 -0.26225959133E+02 -0.44725333874E+02  0.18918623753E+03  0.19616214950E+03  0.00000000000E+00 0. -1.
<scales pt_clust_3="38.55310" pt_clust_4="113.27748" pt_clust_5="14000.00000" pt_clust_6="51.74569"></scales>
<clustering>
<clus scale="   38.553">  2  3  1 -1</clus>
<clus scale="   51.746">  1  6  2 -1</clus>
<clus scale="  113.277">  1  4  2 -1</clus>
<clus scale="   38.553">  2  3  1 -1</clus>
</clustering>
</event>
<event>
 6    0  0.3584505E+002  0.1297529E+03  0.7546771E-02  0.1227823E+00
          1   -1    0    0  504    0 -0.00000000000E+00  0.00000000000E+00  0.24840882283E+04  0.24840882283E+04  0.00000000000E+00 0.  1.
         21   -1    0    0  503  502  0.00000000000E+00 -0.00000000000E+00 -0.64283721034E+02  0.64283721034E+02  0.00000000000E+00 0.  1.
         21    1    1    2  503  505 -0.20368452243E+02  0.62898524849E+02 -0.14517330554E+02  0.67689372588E+02  0.00000000000E+00 0.  1.
         21    1    1    2  504  502  0.11800716733E+03 -0.15028761059E+03  0.46019962781E+03  0.49829284048E+03  0.00000000000E+00 0.  1.
         21    1    1    2  505  501 -0.71417836593E+02  0.61134672227E+02  0.56414872141E+03  0.57192808587E+03  0.00000000000E+00 0.  1.
          1    1    1    2  501    0 -0.26220878489E+02  0.26254413514E+02  0.14099734886E+04  0.14104616504E+04  0.00000000000E+00 0.  1.
<scales pt_clust_3="66.93395" pt_clust_4="129.75287" pt_clust_5="14000.00000" pt_clust_6="37.10564"></scales>
<clustering>
<clus scale="   37.106">  1  6  2 -1</clus>
<clus scale="   66.934">  2  3  1 -1</clus>
<clus scale="  129.753">  2  4  1 -1</clus>
<clus scale="   66.934">  2  3  1 -1</clus>
</clustering>
</event>
<event>
 6    0  0.3584505E+002  0.1208736E+03  0.7546771E-02  0.1241663E+00
         21   -1    0    0  504  502  0.00000000000E+00  0.00000000000E+00  0.11104990060E+04  0.11104990060E+04  0.00000000000E+00 0.  1.
          2   -1    0    0  505    0 -0.00000000000E+00 -0.00000000000E+00 -0.41749605809E+03  0.41749605809E+03  0.00000000000E+00 0.  1.
         21    1    1    2  503  502  0.71024947015E+02  0.77676881955E+02  0.64896557688E+03  0.65744548143E+03  0.00000000000E+00 0.  1.
         21    1    1    2  504  501  0.42045556580E+02 -0.11537061160E+03 -0.13604557553E+03  0.18326648758E+03  0.00000000000E+00 0.  1.
         21    1    1    2  505  503 -0.14896688266E+03  0.16670601080E+02  0.41887845756E+03  0.44489122634E+03  0.00000000000E+00 0.  1.
          2    1    1    2  501    0  0.35896379067E+02  0.21023128568E+02 -0.23879551099E+03  0.24239186874E+03  0.00000000000E+00 0.  1.
<scales pt_clust_3="106.20606" pt_clust_4="14000.00000" pt_clust_5="120.87362" pt_clust_6="41.59954"></scales>
<clustering>
<clus scale="   41.600">  2  6  1 -1</clus>
<clus scale="  106.206">  1  3  2 -1</clus>
<clus scale="  120.874">  1  5  2 -1</clus>
<clus scale="  106.206">  1  3  2 -1</clus>
</clustering>
</event>
<event>
 6    0  0.3584505E+002  0.7637260E+02  0.7546771E-02  0.1339672E+00
         21   -1    0    0  503  502  0.00000000000E+00  0.00000000000E+00  0.65799697938E+02  0.65799697938E+02  0.00000000000E+00 0.  1.
          2   -1    0    0  505    0 -0.00000000000E+00 -0.00000000000E+00 -0.19965702290E+04  0.19965702290E+04  0.00000000000E+00 0. -1.
         21    1    1    2  503  501  0.92142016661E+02 -0.78687211712E+01  0.21053399911E+02  0.94843627383E+02  0.00000000000E+00 0.  1.
         21    1    1    2  504  502 -0.18583460684E+02  0.27250480384E+02 -0.68322689589E+02  0.75867803480E+02  0.00000000000E+00 0.  1.
         21    1    1    2  505  504 -0.79642724049E+02  0.29150732723E+02 -0.48902309517E+03  0.49632279449E+03  0.00000000000E+00 0.  1.
          2    1    1    2  501    0  0.60841680715E+01 -0.48532491936E+02 -0.13944781462E+04  0.13953357016E+04  0.00000000000E+00 0. -1.
<scales pt_clust_3="14000.00000" pt_clust_4="32.98384" pt_clust_5="76.37260" pt_clust_6="48.70959"></scales>
<clustering>
<clus scale="   32.984">  1  4  2 -1</clus>
<clus scale="   48.710">  2  6  1 -1</clus>
<clus scale="   76.373">  2  5  1 -1</clus>
<clus scale="   32.984">  1  3  2 -1</clus>
</clustering>
</event>
<event>
 6    0  0.3584505E+002  0.1012476E+03  0.7546771E-02  0.1277694E+00
          2   -1    0    0  505    0 -0.00000000000E+00  0.00000000000E+00  0.81026699942E+03  0.81026699942E+03  0.00000000000E+00 0. -1.
         21   -1    0    0  504  502  0.00000000000E+00 -0.00000000000E+00 -0.85794900991E+03  0.85794900991E+03  0.00000000000E+00 0. -1.
         21    1    1    2  503  501  0.41046000336E+02  0.43289894680E+02 -0.27176919943E+03  0.27823962134E+03  0.00000000000E+00 0. -1.
         21    1    1    2  504  503 -0.40254461911E+01  0.45307147622E+02 -0.32743064132E+03  0.33057490334E+03  0.00000000000E+00 0. -1.
         21    1    1    2  505  502  0.33193159455E+02 -0.86563177725E+02 -0.24388056748E+03  0.26090745632E+03  0.00000000000E+00 0.  1.
          2    1    1    2  501    0 -0.70213713600E+02 -0.20338645770E+01  0.79539839773E+03  0.79849402834E+03  0.00000000000E+00 0. -1.
<scales pt_clust_3="42.73058" pt_clust_4="42.73058" pt_clust_5="88.63612" pt_clust_6="70.24316"></scales>
<clustering>
<clus scale="   42.731">  3  4 -1 -1</clus>
<clus scale="   70.243">  1  6  2 -1</clus>
<clus scale="   88.636">  1  5  2 -1</clus>
<clus scale="  101.248">  2  3  1 -1</clus>
</clustering>
</event>
<event>
 6    0  0.3584505E+002  0.3379229E+03  0.7546771E-02  0.1067684E+00
         21   -1    0    0  505  502  0.00000000000E+00  0.00000000000E+00  0.32011935916E+03  0.32011935916E+03  0.00000000000E+00 0.  1.
          1   -1    0    0  504    0 -0.00000000000E+00 -0.00000000000E+00 -0.27139144479E+04  0.27139144479E+04  0.00000000000E+00 0.  1.
         21    1    1    2  503  502  0.40992981619E+02  0.23814650804E+02  0.25627454804E+03  0.26062272754E+03  0.00000000000E+00 0.  1.
         21    1    1    2  504  503 -0.25102328107E+03 -0.28635765166E+03 -0.98694123164E+03  0.10578593418E+04  0.00000000000E+00 0.  1.
         21    1    1    2  505  501  0.20195537431E+03  0.22220105606E+03 -0.85166931340E+03  0.90305033188E+03  0.00000000000E+00 0.  1.
          1    1    1    2  501    0  0.80749251484E+01  0.40341944786E+02 -0.81145909179E+03  0.81250140589E+03  0.00000000000E+00 0.  1.
<scales pt_clust_3="47.43962" pt_clust_4="14000.00000" pt_clust_5="337.92292" pt_clust_6="41.14216"></scales>
<clustering>
<clus scale="   41.142">  2  6  1 -1</clus>
<clus scale="   47.440">  1  3  2 -1</clus>
<clus scale="  337.923">  2  5  1 -1</clus>
<clus scale="   47.440">  1  3  2 -1</clus>
</clustering>
</event>
<event>
 6    0  0.3584505E+002  0.8991787E+02  0.7546771E-02  0.1303051E+00
         21   -1    0    0  503  502  0.00000000000E+00  0.00000000000E+00  0.91281061572E+02  0.91281061572E+02  0.00000000000E+00 0. -1.
          1   -1    0    0  504    0 -0.00000000000E+00 -0.00000000000E+00 -0.38895792274E+03  0.38895792274E+03  0.00000000000E+00 0. -1.
         21    1    1    2  503  505 -0.87381906818E+02 -0.21237210604E+02  0.19825962373E+02  0.92085208027E+02  0.00000000000E+00 0. -1.
         21    1    1    2  504  502 -0.19661677478E+02 -0.54286039281E+02 -0.96382313680E+02  0.11235259682E+03  0.00000000000E+00 0.  1.
         21    1    1    2  505  501  0.86949936642E+02  0.22880150088E+02 -0.68259899408E+02  0.11288581229E+03  0.00000000000E+00 0. -1.
          1    1    1    2  501    0  0.20093647653E+02  0.52643099797E+02 -0.15286061045E+03  0.16291536717E+03  0.00000000000E+00 0. -1.
<scales pt_clust_3="89.91787" pt_clust_4="32.29310" pt_clust_5="14000.00000" pt_clust_6="56.34759"></scales>
<clustering>
<clus scale="   56.348">  2  6  1 -1</clus>
<clus scale="   32.293">  2  4  1 -1</clus>
<clus scale="   89.918">  1  3  2 -1</clus>
<clus scale="   89.918">  1  3  2 -1</clus>
</clustering>
</event>
<event>
 6    0  0.3584505E+002  0.2663763E+03  0.7546771E-02  0.1103372E+00
         21   -1    0    0  505  502  0.00000000000E+00  0.00000000000E+00  0.13029550300E+03  0.13029550300E+03  0.00000000000E+00 0. -1.
          2   -1    0    0  504    0 -0.00000000000E+00 -0.00000000000E+00 -0.22878133960E+04  0.22878133960E+04  0.00000000000E+00 0. -1.
         21    1    1    2  503  501 -0.18259643194E+03 -0.13654363917E+03 -0.61954862841E+03  0.66017128484E+03  0.00000000000E+00 0. -1.
         21    1    1    2  504  502  0.14601241368E+03  0.28236550082E+03 -0.18024915974E+03  0.36543078769E+03  0.00000000000E+00 0. -1.
         21    1    1    2  505  503 -0.11384061356E+02 -0.43134935702E+02 -0.18169439555E+02  0.48169991330E+02  0.00000000000E+00 0. -1.
          2    1    1    2  501    0  0.47968079614E+02 -0.10268692595E+03 -0.13395506653E+04  0.13443368352E+04  0.00000000000E+00 0. -1.
<scales pt_clust_3="266.37633" pt_clust_4="14000.00000" pt_clust_5="44.61188" pt_clust_6="114.05089"></scales>
<clustering>
<clus scale="   44.612">  1  5  2 -1</clus>
<clus scale="  114.051">  2  6  1 -1</clus>
<clus scale="  266.376">  2  3  1 -1</clus>
<clus scale="   44.612">  1  3  2 -1</clus>
</clustering>
</event>
<event>
 6    0  0.3584505E+002  0.1432304E+03  0.7546771E-02  0.1209047E+00
          2   -1    0    0  504    0 -0.00000000000E+00  0.00000000000E+00  0.12742129587E+04  0.12742129587E+04  0.00000000000E+00 0.  1.
         21   -1    0    0  501  502  0.00000000000E+00 -0.00000000000E+00 -0.22020976300E+02  0.22020976300E+02  0.00000000000E+00 0.  1.
         21    1    1    2  503  502 -0.48759403328E+01 -0.70863449519E+02  0.28061285464E+03  0.28946325753E+03  0.00000000000E+00 0.  1.
         21    1    1    2  504  505  0.96951737224E+02  0.82899198158E+02  0.61492360881E+03  0.62801509622E+03  0.00000000000E+00 0.  1.
         21    1    1    2  505  503 -0.63348576234E+02 -0.39220613506E+02  0.30343179422E+03  0.31244543904E+03  0.00000000000E+00 0.  1.
          2    1    1    2  501    0 -0.28727220657E+02  0.27184864867E+02  0.53223724698E+02  0.66310142175E+02  0.00000000000E+00 0.  1.
<scales pt_clust_3="60.28109" pt_clust_4="126.89403" pt_clust_5="60.28109" pt_clust_6="39.55085"></scales>
<clustering>
<clus scale="   39.551">  2  6  1 -1</clus>
<clus scale="   60.281">  3  5 -1 -1</clus>
<clus scale="  126.894">  1  4  2 -1</clus>
<clus scale="   39.551">  2  3  1 -1</clus>
</clustering>
</event>
<event>
 6    0  0.3584505E+002  0.1951680E+03  0.7546771E-02  0.1153881E+00
          2   -1    0    0  504    0 -0.00000000000E+00  0.00000000000E+00  0.14643151937E+04  0.14643151937E+04  0.00000000000E+00 0. -1.
         21   -1    0    0  503  502  0.00000000000E+00 -0.00000000000E+00 -0.18431515298E+03  0.18431515298E+03  0.00000000000E+00 0.  1.
         21    1    1    2  503  501 -0.54004443344E+02 -0.20868455341E+01  0.99722062862E+02  0.11342541447E+03  0.00000000000E+00 0.  1.
         21    1    1    2  504  505  0.94667588053E+02  0.15475613538E+03  0.51316469435E+02  0.18853326948E+03  0.00000000000E+00 0. -1.
         21    1    1    2  505  502  0.15033885786E+01  0.40592705451E+02 -0.96839015340E+02  0.10501344107E+03  0.00000000000E+00 0.  1.
          2    1    1    2  501    0 -0.42166533287E+02 -0.19326199529E+03  0.12258005238E+04  0.12416582217E+04  0.00000000000E+00 0. -1.
<scales pt_clust_3="53.89538" pt_clust_4="14000.00000" pt_clust_5="40.62054" pt_clust_6="195.16797"></scales>
<clustering>
<clus scale="   40.621">  2  5  1 -1</clus>
<clus scale="   53.895">  2  3  1 -1</clus>
<clus scale="  195.168">  1  6  2 -1</clus>
<clus scale="   40.621">  2  3  1 -1</clus>
</clustering>
</event>
<event>
 6    0  0.3584505E+002  0.1043470E+03  0.7546771E-02  0.1271412E+00
          1   -1    0    0  502    0 -0.00000000000E+00  0.00000000000E+00  0.12432574622E+04  0.12432574622E+04  0.00000000000E+00 0.  1.
         21   -1    0    0  505  502  0.00000000000E+00 -0.00000000000E+00 -0.27065331445E+02  0.27065331445E+02  0.00000000000E+00 0.  1.
         21    1    1    2  503  501 -0.29167977806E+02  0.51279628573E+02  0.55890501025E+03  0.56200994806E+03  0.00000000000E+00 0. -1.
         21    1    1    2  504  503  0.35808393772E+02 -0.88434385571E+02  0.23647558239E+03  0.25499722093E+03  0.00000000000E+00 0.  1.
         21    1    1    2  505  504  0.40396717283E+02  0.34867481339E+02  0.33187574622E+02  0.62841476204E+02  0.00000000000E+00 0.  1.
          1    1    1    2  501    0 -0.47037133249E+02  0.22872756588E+01  0.38762396350E+03  0.39047414846E+03  0.00000000000E+00 0.  1.
<scales pt_clust_3="45.83865" pt_clust_4="90.86296" pt_clust_5="53.36325" pt_clust_6="45.83865"></scales>
<clustering>
<clus scale="   45.839">  3  6 -1 -1</clus>
<clus scale="   53.363">  2  5  1 -1</clus>
<clus scale="   90.863">  2  4  1 -1</clus>
<clus scale="   53.363">  2  3  1 -1</clus>
</clustering>
</event>
<event>
 6    0  0.3584505E+002  0.1006683E+03  0.7546771E-02  0.1278897E+00
          2   -1    0    0  502    0 -0.00000000000E+00  0.00000000000E+00  0.16112795954E+04  0.16112795954E+04  0.00000000000E+00 0. -1.
         21   -1    0    0  504  502  0.00000000000E+00 -0.00000000000E+00 -0.29456601825E+03  0.29456601825E+03  0.00000000000E+00 0.  1.
         21    1    1    2  503  505 -0.76842042001E+02 -0.35670798574E+01 -0.20867418700E+03  0.22240130350E+03  0.00000000000E+00 0.  1.
         21    1    1    2  504  503 -0.17887262288E+02 -0.33791107060E+02 -0.55522860559E+02  0.67413508388E+02  0.00000000000E+00 0.  1.
         21    1    1    2  505  501  0.11605853017E+03  0.11435452044E+02  0.17850711331E+03  0.21322556482E+03  0.00000000000E+00 0. -1.
          2    1    1    2  501    0 -0.21329225878E+02  0.25922734874E+02  0.14024035114E+04  0.14028052369E+04  0.00000000000E+00 0. -1.
<scales pt_clust_3="14000.00000" pt_clust_4="37.87524" pt_clust_5="100.66834" pt_clust_6="33.56969"></scales>
<clustering>
<clus scale="   33.570">  1  6  2 -1</clus>
<clus scale="   37.875">  2  4  1 -1</clus>
<clus scale="  100.668">  1  5  2 -1</clus>
<clus scale="   37.875">  2  3  1 -1</clus>
</clustering>
</event>
<event>
 6    0  0.3584505E+002  0.1017531E+03  0.7546771E-02  0.1276652E+00
         -2   -1    0    0    0  501 -0.00000000000E+00  0.00000000000E+00  0.63395335214E+03  0.63395335214E+03  0.00000000000E+00 0.  1.
         21   -1    0    0  504  502  0.00000000000E+00 -0.00000000000E+00 -0.22065687968E+03  0.22065687968E+03  0.00000000000E+00 0.  1.
         21    1    1    2  503  502 -0.84986508151E+01 -0.11555866180E+03  0.12228089823E+03  0.16845963746E+03  0.00000000000E+00 0.  1.
         21    1    1    2  504  505 -0.16601547456E+02  0.45339483140E+02 -0.16447380740E+03  0.17141444931E+03  0.00000000000E+00 0.  1.
         21    1    1    2  505  501  0.68968669395E+02  0.69177011272E+02  0.55504812450E+02  0.11235177102E+03  0.00000000000E+00 0. -1.
         -2    1    1    2    0  503 -0.43868471124E+02  0.10421673834E+01  0.39998456919E+03  0.40238437402E+03  0.00000000000E+00 0.  1.
<scales pt_clust_3="14000.00000" pt_clust_4="48.52662" pt_clust_5="101.75306" pt_clust_6="43.88085"></scales>
<clustering>
<clus scale="   43.881">  1  6  2 -1</clus>
<clus scale="   48.527">  2  4  1 -1</clus>
<clus scale="  101.753">  1  5  2 -1</clus>
<clus scale="   48.527">  2  3  1 -1</clus>
</clustering>
</event>
<event>
 6    0  0.3584505E+002  0.1388571E+03  0.7546771E-02  0.1214875E+00
          2   -1    0    0  505    0 -0.00000000000E+00  0.00000000000E+00  0.16778446628E+04  0.16778446628E+04  0.00000000000E+00 0.  1.
         21   -1    0    0  504  502  0.00000000000E+00 -0.00000000000E+00 -0.19669726414E+03  0.19669726414E+03  0.00000000000E+00 0. -1.
         21    1    1    2  503  502  0.91269854934E+02  0.61519204014E+02 -0.15936506588E+03  0.19368020835E+03  0.00000000000E+00 0. -1.
         21    1    1    2  504  501  0.30704811586E+02  0.20301891401E+02  0.19664708918E+02  0.41733116656E+02  0.00000000000E+00 0. -1.
         21    1    1    2  505  503 -0.11575191136E+03  0.24344585866E+02  0.52638873939E+03  0.53951484576E+03  0.00000000000E+00 0.  1.
          2    1    1    2  501    0 -0.62227551638E+01 -0.10616568128E+03  0.10944590162E+04  0.10996137561E+04  0.00000000000E+00 0.  1.
<scales pt_clust_3="14000.00000" pt_clust_4="36.80968" pt_clust_5="138.85706" pt_clust_6="106.04239"></scales>
<clustering>
<clus scale="   36.810">  2  4  1 -1</clus>
<clus scale="  106.042">  1  6  2 -1</clus>
<clus scale="  138.857">  1  5  2 -1</clus>
<clus scale="   36.810">  2  3  1 -1</clus>
</clustering>
</event>
<event>
 6    0  0.3584505E+002  0.5564731E+02  0.7546771E-02  0.1417062E+00
         21   -1    0    0  504  502  0.00000000000E+00  0.00000000000E+00  0.43456812908E+03  0.43456812908E+03  0.00000000000E+00 0. -1.
         -1   -1    0    0    0  501 -0.00000000000E+00 -0.00000000000E+00 -0.15113639040E+04  0.15113639040E+04  0.00000000000E+00 0. -1.
         21    1    1    2  503  502 -0.22933832371E+02  0.33365930185E+02  0.21577076232E+03  0.21953648406E+03  0.00000000000E+00 0. -1.
         21    1    1    2  504  505  0.74597857392E+02 -0.49576902117E+02  0.20176544428E+03  0.22075326511E+03  0.00000000000E+00 0. -1.
         21    1    1    2  505  501 -0.86264521421E+02  0.23584749879E+02 -0.36641876891E+03  0.37717439241E+03  0.00000000000E+00 0. -1.
         -1    1    1    2    0  503  0.34600496399E+02 -0.73737779472E+01 -0.11279132126E+04  0.11284678915E+04  0.00000000000E+00 0. -1.
<scales pt_clust_3="40.36161" pt_clust_4="14000.00000" pt_clust_5="55.64731" pt_clust_6="35.37749"></scales>
<clustering>
<clus scale="   35.377">  2  6  1 -1</clus>
<clus scale="   40.362">  1  3  2 -1</clus>
<clus scale="   55.647">  2  5  1 -1</clus>
<clus scale="   40.362">  1  3  2 -1</clus>
</clustering>
</event>
<event>
 6    0  0.3584505E+002  0.7500789E+02  0.7546771E-02  0.1343847E+00
          1   -1    0    0  504    0 -0.00000000000E+00  0.00000000000E+00  0.17676082138E+04  0.17676082138E+04  0.00000000000E+00 0.  1.
         21   -1    0    0  505  502  0.00000000000E+00 -0.00000000000E+00 -0.37322947116E+02  0.37322947116E+02  0.00000000000E+00 0.  1.
         21    1    1    2  503  502  0.32968222962E+02 -0.52481235587E+00  0.50945786091E+02  0.60684860334E+02  0.00000000000E+00 0. -1.
         21    1    1    2  504  503 -0.11163207909E+03  0.41108594726E+01  0.39290273150E+03  0.40847420563E+03  0.00000000000E+00 0.  1.
         21    1    1    2  505  501  0.15794039387E+02  0.30687621362E+02 -0.11105000929E+02  0.36256073017E+02  0.00000000000E+00 0.  1.
          1    1    1    2  501    0  0.62869816744E+02 -0.34273668478E+02  0.12975417500E+04  0.12995160219E+04  0.00000000000E+00 0.  1.
<scales pt_clust_3="32.97240" pt_clust_4="14000.00000" pt_clust_5="50.06410" pt_clust_6="75.00789"></scales>
<clustering>
<clus scale="   32.972">  2  3  1 -1</clus>
<clus scale="   50.064">  2  5  1 -1</clus>
<clus scale="   75.008">  1  6  2 -1</clus>
<clus scale="   32.972">  2  3  1 -1</clus>
</clustering>
</event>
<event>
 6    0  0.3584505E+002  0.9555714E+02  0.7546771E-02  0.1289926E+00
         -2   -1    0    0    0  501 -0.00000000000E+00  0.00000000000E+00  0.17258167835E+03  0.17258167835E+03  0.00000000000E+00 0. -1.
         21   -1    0    0  504  502  0.00000000000E+00 -0.00000000000E+00 -0.29757789245E+03  0.29757789245E+03  0.00000000000E+00 0. -1.
         21    1    1    2  503  501 -0.11479160835E+03 -0.15925396642E+02  0.11165321424E+03  0.16092598254E+03  0.00000000000E+00 0. -1.
         21    1    1    2  504  505  0.25736102064E+02  0.20001260572E+02 -0.15605274029E+03  0.15942037237E+03  0.00000000000E+00 0. -1.
         21    1    1    2  505  503  0.30408170106E+02 -0.34208003954E+02 -0.69099700530E+02  0.82883128302E+02  0.00000000000E+00 0.  1.
         -2    1    1    2    0  502  0.58647336178E+02  0.30132140024E+02 -0.11496987522E+02  0.66930087593E+02  0.00000000000E+00 0. -1.
<scales pt_clust_3="95.55714" pt_clust_4="32.59444" pt_clust_5="50.15469" pt_clust_6="14000.00000"></scales>
<clustering>
<clus scale="   32.594">  2  4  1 -1</clus>
<clus scale="   50.155">  2  5  1 -1</clus>
<clus scale="   95.557">  1  3  2 -1</clus>
<clus scale="   32.594">  2  3  1 -1</clus>
</clustering>
</event>
<event>
 6    0  0.3584505E+002  0.1210077E+03  0.7546771E-02  0.1241444E+00
          1   -1    0    0  503    0 -0.00000000000E+00  0.00000000000E+00  0.48776819531E+03  0.48776819531E+03  0.00000000000E+00 0. -1.
         21   -1    0    0  504  502  0.00000000000E+00 -0.00000000000E+00 -0.14731226637E+03  0.14731226637E+03  0.00000000000E+00 0.  1.
         21    1    1    2  503  505 -0.58584255637E+02 -0.38125959254E+02  0.10418832180E+03  0.12546278403E+03  0.00000000000E+00 0.  1.
         21    1    1    2  504  501  0.31536910967E+02  0.14067035946E+03 -0.57296606397E+02  0.15513100234E+03  0.00000000000E+00 0.  1.
         21    1    1    2  505  502 -0.38520887131E+02 -0.16464454890E+02  0.29668387169E+00  0.41893019007E+02  0.00000000000E+00 0. -1.
          1    1    1    2  501    0  0.65568231802E+02 -0.86079945313E+02  0.29326752966E+03  0.31259365630E+03  0.00000000000E+00 0. -1.
<scales pt_clust_3="73.36998" pt_clust_4="121.00772" pt_clust_5="41.89197" pt_clust_6="14000.00000"></scales>
<clustering>
<clus scale="   41.892">  2  5  1 -1</clus>
<clus scale="   73.370">  1  3  2 -1</clus>
<clus scale="  121.008">  2  4  1 -1</clus>
<clus scale="   41.892">  2  3  1 -1</clus>
</clustering>
</event>
<event>
 6    0  0.3584505E+002  0.1311919E+03  0.7546771E-02  0.1225698E+00
         21   -1    0    0  505  502  0.00000000000E+00  0.00000000000E+00  0.40754851766E+03  0.40754851766E+03  0.00000000000E+00 0.  1.
          2   -1    0    0  503    0 -0.00000000000E+00 -0.00000000000E+00 -0.46811138135E+03  0.46811138135E+03  0.00000000000E+00 0. -1.
         21    1    1    2  503  504 -0.11070513732E+02 -0.45487046277E+02 -0.39767713810E+02  0.61425554250E+02  0.00000000000E+00 0. -1.
         21    1    1    2  504  502 -0.41990746230E+02 -0.10321075228E+03 -0.31970803479E+03  0.33856891420E+03  0.00000000000E+00 0. -1.
         21    1    1    2  505  501  0.70653968882E-01  0.13216714344E+03  0.36568336114E+03  0.38883477135E+03  0.00000000000E+00 0.  1.
          2    1    1    2  501    0  0.52990605993E+02  0.16530655118E+02 -0.66770476237E+02  0.86830659211E+02  0.00000000000E+00 0. -1.
<scales pt_clust_3="46.81482" pt_clust_4="131.19187" pt_clust_5="14000.00000" pt_clust_6="51.60401"></scales>
<clustering>
<clus scale="   46.815">  2  3  1 -1</clus>
<clus scale="   51.604">  2  6  1 -1</clus>
<clus scale="  131.192">  2  4  1 -1</clus>
<clus scale="  131.192">  1  3  2 -1</clus>
</clustering>
</event>
<event>
 6    0  0.3584505E+002  0.6843342E+02  0.7546771E-02  0.1365503E+00
         21   -1    0    0  503  502  0.00000000000E+00  0.00000000000E+00  0.30278908896E+02  0.30278908896E+02  0.00000000000E+00 0.  1.
          2   -1    0    0  504    0 -0.00000000000E+00 -0.00000000000E+00 -0.45466797895E+04  0.45466797895E+04  0.00000000000E+00 0. -1.
         21    1    1    2  503  501  0.78222783971E+02  0.71053166809E+02 -0.74630785173E+03  0.75375245671E+03  0.00000000000E+00 0. -1.
         21    1    1    2  504  505  0.77528494110E+00 -0.44647530326E+02 -0.14039067710E+03  0.14732123149E+03  0.00000000000E+00 0. -1.
         21    1    1    2  505  502 -0.36496360644E+02  0.23480336072E+02  0.21414779619E+01  0.43449930382E+02  0.00000000000E+00 0.  1.
          2    1    1    2  501    0 -0.42501708268E+02 -0.49885972555E+02 -0.36318438298E+04  0.36324350798E+04  0.00000000000E+00 0. -1.
<scales pt_clust_3="68.43342" pt_clust_4="37.42637" pt_clust_5="43.39713" pt_clust_6="14000.00000"></scales>
<clustering>
<clus scale="   43.397">  1  5  2 -1</clus>
<clus scale="   37.426">  1  4  2 -1</clus>
<clus scale="   68.433">  1  3  2 -1</clus>
<clus scale="   43.397">  1  3  2 -1</clus>
</clustering>
</event>
<event>
 6    0  0.3584505E+002  0.7110279E+02  0.7546771E-02  0.1356383E+00
          2   -1    0    0  504    0 -0.00000000000E+00  0.00000000000E+00  0.17558324244E+04  0.17558324244E+04  0.00000000000E+00 0. -1.
         21   -1    0    0  505  502  0.00000000000E+00 -0.00000000000E+00 -0.43617369804E+03  0.43617369804E+03  0.00000000000E+00 0. -1.
         21    1    1    2  503  502  0.42465810108E+02  0.12473346329E+02 -0.12867759116E+02  0.46092392230E+02  0.00000000000E+00 0.  1.
         21    1    1    2  504  503  0.37822615081E+02  0.62206929277E+02  0.83059460629E+03  0.83377913877E+03  0.00000000000E+00 0. -1.
         21    1    1    2  505  501 -0.33675238448E+02 -0.83330531989E+02 -0.39948558133E+03  0.40947127975E+03  0.00000000000E+00 0. -1.
          2    1    1    2  501    0 -0.46613186741E+02  0.86502563816E+01  0.90141746054E+03  0.90266331169E+03  0.00000000000E+00 0. -1.
<scales pt_clust_3="44.25979" pt_clust_4="71.10279" pt_clust_5="14000.00000" pt_clust_6="47.34857"></scales>
<clustering>
<clus scale="   44.260">  2  3  1 -1</clus>
<clus scale="   47.349">  1  6  2 -1</clus>
<clus scale="   71.103">  1  4  2 -1</clus>
<clus scale="   44.260">  2  3  1 -1</clus>
</clustering>
</event>
<event>
 6    0  0.3584505E+002  0.8669765E+02  0.7546771E-02  0.1311052E+00
         21   -1    0    0  504  502  0.00000000000E+00  0.00000000000E+00  0.31352670557E+03  0.31352670557E+03  0.00000000000E+00 0. -1.
          2   -1    0    0  503    0 -0.00000000000E+00 -0.00000000000E+00 -0.22194544864E+04  0.22194544864E+04  0.00000000000E+00 0.  1.
         21    1    1    2  503  502 -0.27530455866E+02  0.10332751399E+03 -0.54199424370E+02  0.11988360501E+03  0.00000000000E+00 0. -1.
         21    1    1    2  504  505  0.34408277524E+02 -0.14704464134E+02  0.24332878075E+03  0.24618904600E+03  0.00000000000E+00 0. -1.
         21    1    1    2  505  501 -0.87359436545E+02 -0.57734516665E+02 -0.43254271881E+02  0.11329553215E+03  0.00000000000E+00 0. -1.
          2    1    1    2  501    0  0.80481614887E+02 -0.30888533191E+02 -0.20518028654E+04  0.20536130089E+04  0.00000000000E+00 0.  1.
<scales pt_clust_3="85.92510" pt_clust_4="37.41859" pt_clust_5="14000.00000" pt_clust_6="86.69765"></scales>
<clustering>
<clus scale="   37.419">  1  4  2 -1</clus>
<clus scale="   86.698">  2  6  1 -1</clus>
<clus scale="   85.925">  2  3  1 -1</clus>
<clus scale="   37.419">  1  3  2 -1</clus>
</clustering>
</event>
<event>
 6    0  0.3584505E+002  0.1213092E+03  0.7546771E-02  0.1240953E+00
         21   -1    0    0  503  502  0.00000000000E+00  0.00000000000E+00  0.50562326432E+03  0.50562326432E+03  0.00000000000E+00 0.  1.
          2   -1    0    0  504    0 -0.00000000000E+00 -0.00000000000E+00 -0.57907028887E+03  0.57907028887E+03  0.00000000000E+00 0.  1.
         21    1    1    2  503  505 -0.49387316761E+02 -0.33689185961E+02  0.17837223817E+03  0.18812422401E+03  0.00000000000E+00 0.  1.
         21    1    1    2  504  502  0.16636564427E+03  0.21587482961E+02  0.25744836564E+03  0.30728359537E+03  0.00000000000E+00 0.  1.
         21    1    1    2  505  501 -0.10537585951E+03 -0.59946622357E+02 -0.62120554719E+02  0.13622273165E+03  0.00000000000E+00 0.  1.
          2    1    1    2  501    0 -0.11602468004E+02  0.72048325357E+02 -0.44714707365E+03  0.45306300216E+03  0.00000000000E+00 0.  1.
<scales pt_clust_3="59.78351" pt_clust_4="14000.00000" pt_clust_5="121.30919" pt_clust_6="72.74512"></scales>
<clustering>
<clus scale="   59.784">  1  3  2 -1</clus>
<clus scale="   72.745">  2  6  1 -1</clus>
<clus scale="  121.309">  2  5  1 -1</clus>
<clus scale="   59.784">  1  3  2 -1</clus>
</clustering>
</event>
<event>
 6    0  0.3584505E+002  0.1261963E+03  0.7546771E-02  0.1233211E+00
          1   -1    0    0  502    0 -0.00000000000E+00  0.00000000000E+00  0.50992552450E+03  0.50992552450E+03  0.00000000000E+00 0.  1.
         21   -1    0    0  505  502  0.00000000000E+00 -0.00000000000E+00 -0.46256274489E+02  0.46256274489E+02  0.00000000000E+00 0.  1.
         21    1    1    2  503  501  0.25103595406E+02 -0.11091398912E+03  0.14839648732E+03  0.18695887498E+03  0.00000000000E+00 0.  1.
         21    1    1    2  504  503 -0.22440611616E+02  0.39498940335E+02  0.89491749512E+02  0.10036194781E+03  0.00000000000E+00 0.  1.
         21    1    1    2  505  504 -0.35311144294E+02  0.68919056767E+02  0.55033054089E+02  0.95001843874E+02  0.00000000000E+00 0.  1.
          1    1    1    2  501    0  0.32648160504E+02  0.24959920134E+01  0.17074795910E+03  0.17385913233E+03  0.00000000000E+00 0.  1.
<scales pt_clust_3="117.19920" pt_clust_4="35.17440" pt_clust_5="35.17440" pt_clust_6="32.74343"></scales>
<clustering>
<clus scale="   32.743">  1  6  2 -1</clus>
<clus scale="   35.174">  4  5 -1 -1</clus>
<clus scale="  117.199">  1  3  2 -1</clus>
<clus scale="  126.196">  2  3  1 -1</clus>
</clustering>
</event>
<event>
 6    0  0.3584505E+002  0.1314012E+03  0.7546771E-02  0.1225391E+00
          1   -1    0    0  504    0 -0.00000000000E+00  0.00000000000E+00  0.13616130016E+03  0.13616130016E+03  0.00000000000E+00 0.  1.
         21   -1    0    0  505  502  0.00000000000E+00 -0.00000000000E+00 -0.86279302376E+03  0.86279302376E+03  0.00000000000E+00 0.  1.
         21    1    1    2  503  502 -0.39218620534E+02  0.66288821729E+01 -0.28748798817E+03  0.29022643852E+03  0.00000000000E+00 0.  1.
         21    1    1    2  504  503  0.33440421282E+02 -0.12240158706E+03 -0.43228235500E+03  0.45052019348E+03  0.00000000000E+00 0.  1.
         21    1    1    2  505  501 -0.28094422823E+02 -0.12904502290E+02 -0.94133234204E+02  0.99080212731E+02  0.00000000000E+00 0. -1.
          1    1    1    2  501    0  0.33872622076E+02  0.12867720718E+03  0.87271853770E+02  0.15912747919E+03  0.00000000000E+00 0.  1.
<scales pt_clust_3="49.84162" pt_clust_4="131.40119" pt_clust_5="30.91638" pt_clust_6="14000.00000"></scales>
<clustering>
<clus scale="   30.916">  2  5  1 -1</clus>
<clus scale="   49.842">  2  3  1 -1</clus>
<clus scale="  131.401">  2  4  1 -1</clus>
<clus scale="   30.916">  2  3  1 -1</clus>
</clustering>
</event>
<event>
 6    0  0.3584505E+002  0.6907754E+02  0.7546771E-02  0.1363258E+00
          2   -1    0    0  505    0 -0.00000000000E+00  0.00000000000E+00  0.84092815006E+03  0.84092815006E+03  0.00000000000E+00 0. -1.
         21   -1    0    0  504  502  0.00000000000E+00 -0.00000000000E+00 -0.56557479229E+02  0.56557479229E+02  0.00000000000E+00 0. -1.
         21    1    1    2  503  502 -0.41564341307E+02  0.10439046570E+03  0.29074365746E+02  0.11606154635E+03  0.00000000000E+00 0. -1.
         21    1    1    2  504  501  0.62243313588E+00 -0.44814960020E+02  0.53943878050E+02  0.70133515838E+02  0.00000000000E+00 0.  1.
         21    1    1    2  505  503  0.55985583491E+02 -0.18432356407E+02  0.21386048258E+03  0.22183426997E+03  0.00000000000E+00 0.  1.
          2    1    1    2  501    0 -0.15043675320E+02 -0.41143149274E+02  0.48749194445E+03  0.48945629713E+03  0.00000000000E+00 0. -1.
<scales pt_clust_3="14000.00000" pt_clust_4="52.09634" pt_clust_5="69.07754" pt_clust_6="43.80720"></scales>
<clustering>
<clus scale="   43.807">  1  6  2 -1</clus>
<clus scale="   52.096">  2  4  1 -1</clus>
<clus scale="   69.078">  1  5  2 -1</clus>
<clus scale="   52.096">  2  3  1 -1</clus>
</clustering>
</event>
<event>
 6    0  0.3584505E+002  0.1143037E+03  0.7546771E-02  0.1252801E+00
          1   -1    0    0  504    0 -0.00000000000E+00  0.00000000000E+00  0.23816017048E+04  0.23816017048E+04  0.00000000000E+00 0. -1.
         21   -1    0    0  505  502  0.00000000000E+00 -0.00000000000E+00 -0.45863860883E+02  0.45863860883E+02  0.00000000000E+00 0.  1.
         21    1    1    2  503  502 -0.10784128124E+03 -0.44563413844E+02  0.42945815278E+02  0.12433817935E+03  0.00000000000E+00 0.  1.
         21    1    1    2  504  503  0.42186310864E+02 -0.23776711497E+02  0.23849384662E+03  0.24336049743E+03  0.00000000000E+00 0. -1.
         21    1    1    2  505  501  0.48297198579E+02  0.94194282186E+02  0.11307750175E+04  0.11357188571E+04  0.00000000000E+00 0. -1.
          1    1    1    2  501    0  0.17357771800E+02 -0.25854156846E+02  0.92352316455E+03  0.92404803183E+03  0.00000000000E+00 0. -1.
<scales pt_clust_3="14000.00000" pt_clust_4="53.07282" pt_clust_5="114.30372" pt_clust_6="31.14048"></scales>
<clustering>
<clus scale="   31.140">  1  6  2 -1</clus>
<clus scale="   53.073">  1  4  2 -1</clus>
<clus scale="  114.304">  1  5  2 -1</clus>
<clus scale="  114.304">  2  3  1 -1</clus>
</clustering>
</event>
<event>
 6    0  0.3584505E+002  0.1094171E+03  0.7546771E-02  0.1261653E+00
          2   -1    0    0  505    0 -0.00000000000E+00  0.00000000000E+00  0.57444458794E+03  0.57444458794E+03  0.00000000000E+00 0. -1.
         21   -1    0    0  504  502  0.00000000000E+00 -0.00000000000E+00 -0.26101082726E+03  0.26101082726E+03  0.00000000000E+00 0.  1.
         21    1    1    2  503  502 -0.84992326356E+02  0.79279346946E+02 -0.21223085483E+03  0.24197282106E+03  0.00000000000E+00 0.  1.
         21    1    1    2  504  501  0.77004845416E+02 -0.54301791337E+01  0.90751931970E+02  0.11914338513E+03  0.00000000000E+00 0. -1.
         21    1    1    2  505  503 -0.39244181139E+02 -0.66967830292E+02  0.64661831935E+02  0.10102449483E+03  0.00000000000E+00 0.  1.
          2    1    1    2  501    0  0.47231662079E+02 -0.68813375206E+01  0.37025085160E+03  0.37331471418E+03  0.00000000000E+00 0. -1.
<scales pt_clust_3="109.41710" pt_clust_4="14000.00000" pt_clust_5="72.57299" pt_clust_6="47.73031"></scales>
<clustering>
<clus scale="   47.730">  1  6  2 -1</clus>
<clus scale="   72.573">  1  5  2 -1</clus>
<clus scale="  109.417">  2  3  1 -1</clus>
<clus scale="  109.417">  2  3  1 -1</clus>
</clustering>
</event>
<event>
 6    0  0.3584505E+002  0.1381980E+03  0.7546771E-02  0.1215774E+00
         21   -1    0    0  504  502  0.00000000000E+00  0.00000000000E+00  0.40858987663E+03  0.40858987663E+03  0.00000000000E+00 0.  1.
          1   -1    0    0  503    0 -0.00000000000E+00 -0.00000000000E+00 -0.94858102821E+03  0.94858102821E+03  0.00000000000E+00 0. -1.
         21    1    1    2  503  502 -0.74810193944E+02  0.26201934582E+02 -0.45106361094E+02  0.91201372276E+02  0.00000000000E+00 0.  1.
         21    1    1    2  504  505 -0.22119502235E+02 -0.82600691472E+02  0.29920050871E+03  0.31118015847E+03  0.00000000000E+00 0.  1.
         21    1    1    2  505  501  0.12574265581E+03 -0.32492226043E+02  0.23414243386E+02  0.13196661335E+03  0.00000000000E+00 0.  1.
          1    1    1    2  501    0 -0.28812959636E+02  0.88890982933E+02 -0.81749954258E+03  0.82282276075E+03  0.00000000000E+00 0. -1.
<scales pt_clust_3="79.26605" pt_clust_4="85.47224" pt_clust_5="138.19803" pt_clust_6="14000.00000"></scales>
<clustering>
<clus scale="   79.266">  2  3  1 -1</clus>
<clus scale="   85.472">  1  4  2 -1</clus>
<clus scale="  138.198">  1  5  2 -1</clus>
<clus scale="   85.472">  1  3  2 -1</clus>
</clustering>
</event>
<event>
 6    0  0.3584505E+002  0.9134323E+02  0.7546771E-02  0.1299631E+00
          1   -1    0    0  503    0 -0.00000000000E+00  0.00000000000E+00  0.16763006401E+04  0.16763006401E+04  0.00000000000E+00 0. -1.
         21   -1    0    0  504  502  0.00000000000E+00 -0.00000000000E+00 -0.26037714081E+03  0.26037714081E+03  0.00000000000E+00 0. -1.
         21    1    1    2  503  505 -0.38136680737E+02  0.13872951545E+03  0.19748608517E+02  0.14522497173E+03  0.00000000000E+00 0. -1.
         21    1    1    2  504  501  0.15558351316E+02 -0.32033685813E+02  0.24309164448E+01  0.35694939098E+02  0.00000000000E+00 0. -1.
         21    1    1    2  505  502  0.12947832611E+02 -0.49022304342E+02 -0.17690149475E+03  0.18402437756E+03  0.00000000000E+00 0. -1.
          1    1    1    2  501    0  0.96304968100E+01 -0.57673525296E+02  0.15706454690E+04  0.15717334925E+04  0.00000000000E+00 0. -1.
<scales pt_clust_3="91.34323" pt_clust_4="35.61207" pt_clust_5="14000.00000" pt_clust_6="58.54830"></scales>
<clustering>
<clus scale="   35.612">  2  4  1 -1</clus>
<clus scale="   58.548">  1  6  2 -1</clus>
<clus scale="   91.343">  1  3  2 -1</clus>
<clus scale="   35.612">  2  3  1 -1</clus>
</clustering>
</event>
<event>
 6    0  0.3584505E+002  0.2251951E+03  0.7546771E-02  0.1130068E+00
          2   -1    0    0  503    0 -0.00000000000E+00  0.00000000000E+00  0.25854701938E+04  0.25854701938E+04  0.00000000000E+00 0.  1.
         21   -1    0    0  505  502  0.00000000000E+00 -0.00000000000E+00 -0.63186657874E+02  0.63186657874E+02  0.00000000000E+00 0. -1.
         21    1    1    2  503  502  0.15573229379E+03  0.10524048958E+03  0.50787871542E+03  0.54154307082E+03  0.00000000000E+00 0. -1.
         21    1    1    2  504  501 -0.12895856788E+03 -0.13346395397E+03  0.14359588322E+04  0.14479021745E+04  0.00000000000E+00 0.  1.
         21    1    1    2  505  504  0.14688429448E+02  0.37536756764E+02 -0.29394276713E+02  0.49887689578E+02  0.00000000000E+00 0. -1.
          2    1    1    2  501    0 -0.41462155352E+02 -0.93132923739E+01  0.60784026508E+03  0.60932391680E+03  0.00000000000E+00 0.  1.
<scales pt_clust_3="212.31339" pt_clust_4="35.92328" pt_clust_5="40.30829" pt_clust_6="35.92328"></scales>
<clustering>
<clus scale="   35.923">  4  6 -1 -1</clus>
<clus scale="   40.308">  2  5  1 -1</clus>
<clus scale="  212.313">  2  3  1 -1</clus>
<clus scale="   40.308">  2  3  1 -1</clus>
</clustering>
</event>
<event>
 6    0  0.3584505E+002  0.9032825E+02  0.7546771E-02  0.1302059E+00
          1   -1    0    0  505    0 -0.00000000000E+00  0.00000000000E+00  0.36432289684E+03  0.36432289684E+03  0.00000000000E+00 0.  1.
         21   -1    0    0  504  502  0.00000000000E+00 -0.00000000000E+00 -0.22899892102E+03  0.22899892102E+03  0.00000000000E+00 0.  1.
         21    1    1    2  503  501  0.46066969871E+02  0.60459459626E+02 -0.53736753591E+02  0.93086790996E+02  0.00000000000E+00 0.  1.
         21    1    1    2  504  503  0.39132490538E+02 -0.15419233025E+02 -0.12904803875E+03  0.13572951363E+03  0.00000000000E+00 0.  1.
         21    1    1    2  505  502 -0.11510586663E+03  0.87778206605E+01  0.22490802311E+03  0.25280433052E+03  0.00000000000E+00 0.  1.
          1    1    1    2  501    0  0.29906406220E+02 -0.53818047262E+02  0.93200745051E+02  0.11170118273E+03  0.00000000000E+00 0.  1.
<scales pt_clust_3="14000.00000" pt_clust_4="42.06072" pt_clust_5="90.32825" pt_clust_6="64.73031"></scales>
<clustering>
<clus scale="   42.061">  2  4  1 -1</clus>
<clus scale="   64.730">  1  6  2 -1</clus>
<clus scale="   90.328">  1  5  2 -1</clus>
<clus scale="   42.061">  2  3  1 -1</clus>
</clustering>
</event>
<event>
 6    0  0.3584505E+002  0.1654248E+03  0.7546771E-02  0.1182705E+00
          2   -1    0    0  505    0 -0.00000000000E+00  0.00000000000E+00  0.27383897479E+04  0.27383897479E+04  0.00000000000E+00 0. -1.
         21   -1    0    0  504  502  0.00000000000E+00 -0.00000000000E+00 -0.15982282736E+03  0.15982282736E+03  0.00000000000E+00 0. -1.
         21    1    1    2  503  501  0.33488667488E+02  0.17022615409E+03  0.37569734745E+03  0.41381992614E+03  0.00000000000E+00 0. -1.
         21    1    1    2  504  503 -0.47507367735E+02 -0.75681060785E+01 -0.13123864626E+03  0.13977771100E+03  0.00000000000E+00 0. -1.
         21    1    1    2  505  502 -0.40724576323E+02  0.40881736333E+01  0.67777425031E+03  0.67900893858E+03  0.00000000000E+00 0. -1.
          2    1    1    2  501    0  0.54743276569E+02 -0.16674622164E+03  0.16563339691E+04  0.16656059996E+04  0.00000000000E+00 0. -1.
<scales pt_clust_3="165.42483" pt_clust_4="48.18843" pt_clust_5="40.92926" pt_clust_6="14000.00000"></scales>
<clustering>
<clus scale="   40.929">  1  5  2 -1</clus>
<clus scale="   48.188">  2  4  1 -1</clus>
<clus scale="  165.425">  2  3  1 -1</clus>
<clus scale="   48.188">  2  3  1 -1</clus>
</clustering>
</event>
<event>
 6    0  0.3584505E+002  0.7238749E+02  0.7546771E-02  0.1352157E+00
         21   -1    0    0  504  502  0.00000000000E+00  0.00000000000E+00  0.30931356602E+03  0.30931356602E+03  0.00000000000E+00 0.  1.
          2   -1    0    0  503    0 -0.00000000000E+00 -0.00000000000E+00 -0.75936996925E+03  0.75936996925E+03  0.00000000000E+00 0.  1.
         21    1    1    2  503  502 -0.17069081174E+02 -0.32614256918E+02  0.80322279897E+02  0.88355599337E+02  0.00000000000E+00 0.  1.
         21    1    1    2  504  505 -0.34701157980E+02  0.66734260252E+01  0.19891545502E+03  0.20202985726E+03  0.00000000000E+00 0.  1.
         21    1    1    2  505  501  0.49565396414E+02  0.96204355214E+02 -0.10748838855E+03  0.15253117765E+03  0.00000000000E+00 0.  1.
          2    1    1    2  501    0  0.22048427396E+01 -0.70263524322E+02 -0.62180574960E+03  0.62576690102E+03  0.00000000000E+00 0.  1.
<scales pt_clust_3="51.82149" pt_clust_4="35.33702" pt_clust_5="72.38749" pt_clust_6="14000.00000"></scales>
<clustering>
<clus scale="   35.337">  1  4  2 -1</clus>
<clus scale="   51.821">  1  3  2 -1</clus>
<clus scale="   72.387">  1  5  2 -1</clus>
<clus scale="   35.337">  1  3  2 -1</clus>
</clustering>
</event>
<event>
 6    0  0.3584505E+002  0.1708250E+03  0.7546771E-02  0.1176990E+00
         21   -1    0    0  505  502  0.00000000000E+00  0.00000000000E+00  0.88195092033E+03  0.88195092033E+03  0.00000000000E+00 0. -1.
          2   -1    0    0  504    0 -0.00000000000E+00 -0.00000000000E+00 -0.12991487092E+03  0.12991487092E+03  0.00000000000E+00 0. -1.
         21    1    1    2  503  501  0.74876068142E+02 -0.31883038943E+01  0.42457657308E+02  0.86135030772E+02  0.00000000000E+00 0. -1.
         21    1    1    2  504  502 -0.13113170641E+03 -0.15186096515E+03  0.32246764173E+03  0.37979291347E+03  0.00000000000E+00 0. -1.
         21    1    1    2  505  503  0.81517201345E+02  0.13498104089E+03  0.44914191980E+03  0.47601827658E+03  0.00000000000E+00 0. -1.
          2    1    1    2  501    0 -0.25261563080E+02  0.20068228155E+02 -0.62031169421E+02  0.69919570438E+02  0.00000000000E+00 0. -1.
<scales pt_clust_3="66.34928" pt_clust_4="170.82500" pt_clust_5="14000.00000" pt_clust_6="32.26268"></scales>
<clustering>
<clus scale="   32.263">  2  6  1 -1</clus>
<clus scale="   66.349">  2  3  1 -1</clus>
<clus scale="  170.825">  2  4  1 -1</clus>
<clus scale="  170.825">  1  3  2 -1</clus>
</clustering>
</event>
<event>
 6    0  0.3584505E+002  0.8327778E+02  0.7546771E-02  0.1319999E+00
         21   -1    0    0  504  502  0.00000000000E+00  0.00000000000E+00  0.15275733435E+04  0.15275733435E+04  0.00000000000E+00 0. -1.
          2   -1    0    0  505    0 -0.00000000000E+00 -0.00000000000E+00 -0.24015256339E+04  0.24015256339E+04  0.00000000000E+00 0.  1.
         21    1    1    2  503  501 -0.25379051981E+02  0.66081651440E+02  0.13789886502E+03  0.15500638022E+03  0.00000000000E+00 0. -1.
         21    1    1    2  504  503  0.84432651089E+02 -0.11421604735E+02  0.13189008393E+04  0.13216500102E+04  0.00000000000E+00 0. -1.
         21    1    1    2  505  502 -0.34963093090E+02 -0.95367618981E+02  0.18048673501E+02  0.10316566892E+03  0.00000000000E+00 0.  1.
          2    1    1    2  501    0 -0.24090506018E+02  0.40707572275E+02 -0.23488006682E+04  0.23492769181E+04  0.00000000000E+00 0.  1.
<scales pt_clust_3="78.39877" pt_clust_4="14000.00000" pt_clust_5="83.27778" pt_clust_6="47.30179"></scales>
<clustering>
<clus scale="   47.302">  2  6  1 -1</clus>
<clus scale="   78.399">  2  3  1 -1</clus>
<clus scale="   83.278">  2  5  1 -1</clus>
<clus scale="   83.278">  1  3  2 -1</clus>
</clustering>
</event>
<event>
 6    0  0.3584505E+002  0.9250530E+02  0.7546771E-02  0.1296896E+00
         21   -1    0    0  503  502  0.00000000000E+00  0.00000000000E+00  0.19490940993E+02  0.19490940993E+02  0.00000000000E+00 0. -1.
          2   -1    0    0  505    0 -0.00000000000E+00 -0.00000000000E+00 -0.22041938414E+04  0.22041938414E+04  0.00000000000E+00 0.  1.
         21    1    1    2  503  501 -0.74121368827E+02 -0.47679801421E+02 -0.49459335282E+03  0.50238424083E+03  0.00000000000E+00 0.  1.
         21    1    1    2  504  502  0.19142877403E+02 -0.23763868836E+02 -0.89973678912E+01  0.31813893919E+02  0.00000000000E+00 0. -1.
         21    1    1    2  505  504  0.97058506757E+02  0.36129388722E+02 -0.80191348739E+03  0.80857339044E+03  0.00000000000E+00 0.  1.
          2    1    1    2  501    0 -0.42080015333E+02  0.35314281535E+02 -0.87919869229E+03  0.88091325719E+03  0.00000000000E+00 0.  1.
<scales pt_clust_3="92.50530" pt_clust_4="30.51510" pt_clust_5="14000.00000" pt_clust_6="51.76298"></scales>
<clustering>
<clus scale="   30.515">  1  4  2 -1</clus>
<clus scale="   51.763">  2  6  1 -1</clus>
<clus scale="   92.505">  1  3  2 -1</clus>
<clus scale="   30.515">  1  3  2 -1</clus>
</clustering>
</event>
<event>
 6    0  0.3584505E+002  0.1026634E+03  0.7546771E-02  0.1274793E+00
         21   -1    0    0  505  502  0.00000000000E+00  0.00000000000E+00  0.31837596044E+02  0.31837596044E+02  0.00000000000E+00 0. -1.
         -1   -1    0    0    0  501 -0.00000000000E+00 -0.00000000000E+00 -0.10610839118E+04  0.10610839118E+04  0.00000000000E+00 0. -1.
         21    1    1    2  503  501  0.94876542041E+01  0.84600839822E+02 -0.41926969655E+03  0.42782519343E+03  0.00000000000E+00 0. -1.
         21    1    1    2  504  502 -0.94149729598E+02 -0.51016702640E+02 -0.21137937579E+03  0.23695593692E+03  0.00000000000E+00 0. -1.
         21    1    1    2  505  503  0.10607933894E+03 -0.54710353840E+01 -0.20033599508E+03  0.22675376360E+03  0.00000000000E+00 0. -1.
         -1    1    1    2    0  504 -0.21417263549E+02 -0.28113101798E+02 -0.19826124829E+03  0.20138661386E+03  0.00000000000E+00 0. -1.
<scales pt_clust_3="70.78319" pt_clust_4="102.66342" pt_clust_5="14000.00000" pt_clust_6="35.34184"></scales>
<clustering>
<clus scale="   35.342">  2  6  1 -1</clus>
<clus scale="   70.783">  2  3  1 -1</clus>
<clus scale="  102.663">  2  4  1 -1</clus>
<clus scale="  102.663">  1  3  2 -1</clus>
</clustering>
</event>
<event>
 6    0  0.3584505E+002  0.1350493E+03  0.7546771E-02  0.1220150E+00
          2   -1    0    0  505    0 -0.00000000000E+00  0.00000000000E+00  0.17540855053E+04  0.17540855053E+04  0.00000000000E+00 0.  1.
         21   -1    0    0  503  502  0.00000000000E+00 -0.00000000000E+00 -0.38228035887E+03  0.38228035887E+03  0.00000000000E+00 0. -1.
         21    1    1    2  503  504 -0.67104226328E+01 -0.48990234804E+02 -0.52259264887E+02  0.71945143301E+02  0.00000000000E+00 0. -1.
         21    1    1    2  504  501  0.16458521620E+03 -0.14759200900E+01 -0.27180969428E+03  0.31775931400E+03  0.00000000000E+00 0. -1.
         21    1    1    2  505  502 -0.37837493976E+02 -0.11173634728E+02 -0.55970312056E+01  0.39847870982E+02  0.00000000000E+00 0. -1.
          2    1    1    2  501    0 -0.12003729959E+03  0.61639789623E+02  0.17014711368E+04  0.17068135359E+04  0.00000000000E+00 0.  1.
<scales pt_clust_3="52.61470" pt_clust_4="135.04927" pt_clust_5="39.45283" pt_clust_6="14000.00000"></scales>
<clustering>
<clus scale="   39.453">  2  5  1 -1</clus>
<clus scale="   52.615">  2  3  1 -1</clus>
<clus scale="  135.049">  2  4  1 -1</clus>
<clus scale="   39.453">  2  3  1 -1</clus>
</clustering>
</event>
<event>
 6    0  0.3584505E+002  0.1714425E+03  0.7546771E-02  0.1176352E+00
         21   -1    0    0  503  502  0.00000000000E+00  0.00000000000E+00  0.72692124130E+03  0.72692124130E+03  0.00000000000E+00 0. -1.
          2   -1    0    0  505    0 -0.00000000000E+00 -0.00000000000E+00 -0.21369227029E+04  0.21369227029E+04  0.00000000000E+00 0.  1.
         21    1    1    2  503  501 -0.10486107311E+03  0.77450337946E+02 -0.43090430965E+03  0.45019209630E+03  0.00000000000E+00 0. -1.
         21    1    1    2  504  502 -0.10353630192E+03  0.10497998323E+03  0.58936363610E+03  0.60752782508E+03  0.00000000000E+00 0. -1.
         21    1    1    2  505  504  0.22017607041E+03 -0.22415814406E+03 -0.89741077982E+02  0.32676878156E+03  0.00000000000E+00 0. -1.
          2    1    1    2  501    0 -0.11778695368E+02  0.41727822885E+02 -0.14787197100E+04  0.14793552412E+04  0.00000000000E+00 0.  1.
<scales pt_clust_3="171.44250" pt_clust_4="147.97142" pt_clust_5="14000.00000" pt_clust_6="43.35838"></scales>
<clustering>
<clus scale="   43.358">  2  6  1 -1</clus>
<clus scale="  147.971">  1  4  2 -1</clus>
<clus scale="  171.443">  2  3  1 -1</clus>
<clus scale="  147.971">  1  3  2 -1</clus>
</clustering>
</event>
<event>
 6    0  0.3584505E+002  0.1295411E+03  0.7546771E-02  0.1228138E+00
          4   -1    0    0  504    0 -0.00000000000E+00  0.00000000000E+00  0.73187257319E+03  0.73187257319E+03  0.00000000000E+00 0. -1.
         21   -1    0    0  503  502  0.00000000000E+00 -0.00000000000E+00 -0.33411571026E+03  0.33411571026E+03  0.00000000000E+00 0.  1.
         21    1    1    2  503  501 -0.15141577318E+02 -0.38194996809E+02  0.12077838630E+02  0.42825218399E+02  0.00000000000E+00 0. -1.
         21    1    1    2  504  505  0.10257123165E+03 -0.76370078629E+02 -0.58644264910E+02  0.14068545156E+03  0.00000000000E+00 0. -1.
         21    1    1    2  505  502 -0.30906898553E+02  0.15544125967E+03 -0.18824440990E+03  0.24607555637E+03  0.00000000000E+00 0.  1.
          4    1    1    2  501    0 -0.56522755782E+02 -0.40876184228E+02  0.63256769911E+03  0.63640205713E+03  0.00000000000E+00 0. -1.
<scales pt_clust_3="41.08680" pt_clust_4="14000.00000" pt_clust_5="129.54113" pt_clust_6="69.96301"></scales>
<clustering>
<clus scale="   41.087">  2  3  1 -1</clus>
<clus scale="   69.963">  1  6  2 -1</clus>
<clus scale="  129.541">  2  5  1 -1</clus>
<clus scale="   41.087">  2  3  1 -1</clus>
</clustering>
</event>
<event>
 6    0  0.3584505E+002  0.1917635E+03  0.7546771E-02  0.1156880E+00
         21   -1    0    0  503  502  0.00000000000E+00  0.00000000000E+00  0.27978529675E+02  0.27978529675E+02  0.00000000000E+00 0.  1.
          1   -1    0    0  502    0 -0.00000000000E+00 -0.00000000000E+00 -0.31261434703E+04  0.31261434703E+04  0.00000000000E+00 0. -1.
         21    1    1    2  503  504  0.14707835277E+02  0.26207913750E+02 -0.34947565464E+02  0.46092379994E+02  0.00000000000E+00 0. -1.
         21    1    1    2  504  505 -0.11869134716E+03 -0.74182170635E+01 -0.21785822577E+03  0.24820328840E+03  0.00000000000E+00 0.  1.
         21    1    1    2  505  501 -0.66815206806E+02 -0.31173872658E+02 -0.30827370298E+03  0.31696807118E+03  0.00000000000E+00 0.  1.
          1    1    1    2  501    0  0.17079871869E+03  0.12384175971E+02 -0.25370854464E+04  0.25428582604E+04  0.00000000000E+00 0. -1.
<scales pt_clust_3="30.05287" pt_clust_4="65.10465" pt_clust_5="65.10465" pt_clust_6="173.41108"></scales>
<clustering>
<clus scale="   30.053">  1  3  2 -1</clus>
<clus scale="   65.105">  4  5 -1 -1</clus>
<clus scale="  173.411">  2  6  1 -1</clus>
<clus scale="   30.053">  1  3  2 -1</clus>
</clustering>
</event>
<event>
 6    0  0.3584505E+002  0.1210273E+03  0.7546771E-02  0.1241412E+00
         -2   -1    0    0    0  501 -0.00000000000E+00  0.00000000000E+00  0.75855682921E+03  0.75855682921E+03  0.00000000000E+00 0. -1.
         21   -1    0    0  503  502  0.00000000000E+00 -0.00000000000E+00 -0.16491843745E+03  0.16491843745E+03  0.00000000000E+00 0.  1.
         21    1    1    2  503  501 -0.52253624195E+02 -0.73082391460E+02 -0.10733174833E+03  0.13996993028E+03  0.00000000000E+00 0.  1.
         21    1    1    2  504  505 -0.73489450963E+01  0.57018491216E+02  0.10618686966E+03  0.12075084522E+03  0.00000000000E+00 0. -1.
         21    1    1    2  505  502  0.22314979158E+02  0.10211304979E+03  0.61469659797E+02  0.12125820512E+03  0.00000000000E+00 0. -1.
         -2    1    1    2    0  504  0.37287590133E+02 -0.86049149547E+02  0.53331361063E+03  0.54149628605E+03  0.00000000000E+00 0. -1.
<scales pt_clust_3="89.84140" pt_clust_4="51.98251" pt_clust_5="51.98251" pt_clust_6="98.66488"></scales>
<clustering>
<clus scale="   51.983">  4  5 -1 -1</clus>
<clus scale="   89.841">  2  3  1 -1</clus>
<clus scale="   98.665">  1  6  2 -1</clus>
<clus scale="   89.841">  2  3  1 -1</clus>
</clustering>
</event>
<event>
 6    0  0.3584505E+002  0.9805870E+02  0.7546771E-02  0.1284432E+00
          2   -1    0    0  505    0 -0.00000000000E+00  0.00000000000E+00  0.54551010777E+03  0.54551010777E+03  0.00000000000E+00 0.  1.
         21   -1    0    0  501  502  0.00000000000E+00 -0.00000000000E+00 -0.81517189714E+02  0.81517189714E+02  0.00000000000E+00 0. -1.
         21    1    1    2  503  502 -0.58728919859E+02 -0.78309289869E+01 -0.19121631346E+02  0.62257901201E+02  0.00000000000E+00 0. -1.
         21    1    1    2  504  503 -0.56600352855E+02  0.83804612350E+02  0.80498332061E+02  0.12925476571E+03  0.00000000000E+00 0. -1.
         21    1    1    2  505  504  0.89006639642E+02 -0.61316700782E+01  0.25391412956E+03  0.26913224346E+03  0.00000000000E+00 0.  1.
          2    1    1    2  501    0  0.26322633071E+02 -0.69842013285E+02  0.14870208778E+03  0.16638238711E+03  0.00000000000E+00 0.  1.
<scales pt_clust_3="59.24871" pt_clust_4="14000.00000" pt_clust_5="98.05870" pt_clust_6="72.82007"></scales>
<clustering>
<clus scale="   59.249">  2  3  1 -1</clus>
<clus scale="   72.820">  1  6  2 -1</clus>
<clus scale="   98.059">  1  5  2 -1</clus>
<clus scale="   59.249">  2  3  1 -1</clus>
</clustering>
</event>
<event>
 6    0  0.3584505E+002  0.9276215E+02  0.7546771E-02  0.1296297E+00
         21   -1    0    0  503  502  0.00000000000E+00  0.00000000000E+00  0.33408086892E+03  0.33408086892E+03  0.00000000000E+00 0.  1.
          2   -1    0    0  505    0 -0.00000000000E+00 -0.00000000000E+00 -0.23695117324E+03  0.23695117324E+03  0.00000000000E+00 0. -1.
         21    1    1    2  503  501  0.21017903066E+02 -0.26829900760E+02  0.45956681513E+02  0.57215490907E+02  0.00000000000E+00 0.  1.
         21    1    1    2  504  502 -0.13612283436E+02 -0.47403982710E+02  0.16975639969E+03  0.17677575363E+03  0.00000000000E+00 0.  1.
         21    1    1    2  505  504  0.85725717408E+02  0.58211310157E+02  0.70724728814E+02  0.12545693493E+03  0.00000000000E+00 0.  1.
          2    1    1    2  501    0 -0.93131337037E+02  0.16022573312E+02 -0.18930811434E+03  0.21158386269E+03  0.00000000000E+00 0. -1.
<scales pt_clust_3="34.08219" pt_clust_4="63.86397" pt_clust_5="92.76215" pt_clust_6="14000.00000"></scales>
<clustering>
<clus scale="   34.082">  1  3  2 -1</clus>
<clus scale="   63.864">  1  4  2 -1</clus>
<clus scale="   92.762">  1  5  2 -1</clus>
<clus scale="   34.082">  1  3  2 -1</clus>
</clustering>
</event>
<event>
 6    0  0.3584505E+002  0.1421468E+03  0.7546771E-02  0.1210469E+00
         21   -1    0    0  505  502  0.00000000000E+00  0.00000000000E+00  0.58357332300E+03  0.58357332300E+03  0.00000000000E+00 0.  1.
          1   -1    0    0  504    0 -0.00000000000E+00 -0.00000000000E+00 -0.21446794141E+03  0.21446794141E+03  0.00000000000E+00 0.  1.
         21    1    1    2  503  501 -0.34187984551E+02 -0.38679154708E+02 -0.26246487594E+02  0.57911772617E+02  0.00000000000E+00 0.  1.
         21    1    1    2  504  502  0.69819142039E+02  0.14191645219E+03  0.51952296172E+03  0.54306454474E+03  0.00000000000E+00 0.  1.
         21    1    1    2  505  503 -0.92727898143E+01 -0.30722073094E+02  0.16902458143E+02  0.36270146090E+02  0.00000000000E+00 0. -1.
          1    1    1    2  501    0 -0.26358367673E+02 -0.72515224391E+02 -0.14107355068E+03  0.16079480096E+03  0.00000000000E+00 0.  1.
<scales pt_clust_3="50.68391" pt_clust_4="128.05938" pt_clust_5="32.09097" pt_clust_6="50.68391"></scales>
<clustering>
<clus scale="   32.091">  1  5  2 -1</clus>
<clus scale="   50.684">  3  6 -1 -1</clus>
<clus scale="  128.059">  1  4  2 -1</clus>
<clus scale="   32.091">  1  3  2 -1</clus>
</clustering>
</event>
<event>
 6    0  0.3584505E+002  0.1165956E+03  0.7546771E-02  0.1248821E+00
         21   -1    0    0  504  502  0.00000000000E+00  0.00000000000E+00  0.17341931734E+03  0.17341931734E+03  0.00000000000E+00 0. -1.
          1   -1    0    0  503    0 -0.00000000000E+00 -0.00000000000E+00 -0.21576994620E+04  0.21576994620E+04  0.00000000000E+00 0. -1.
         21    1    1    2  503  505  0.66555457117E+02  0.59038552292E+02 -0.27675262533E+03  0.29070121286E+03  0.00000000000E+00 0.  1.
         21    1    1    2  504  501  0.18400973453E+00  0.48855503087E+02 -0.45331406598E+02  0.66647058942E+02  0.00000000000E+00 0. -1.
         21    1    1    2  505  502 -0.22278589792E+02 -0.11822954242E+03  0.13222550434E+03  0.17876840958E+03  0.00000000000E+00 0. -1.
          1    1    1    2  501    0 -0.44460877060E+02  0.10335487043E+02 -0.17944216171E+04  0.17950020980E+04  0.00000000000E+00 0. -1.
<scales pt_clust_3="116.59565" pt_clust_4="50.88923" pt_clust_5="14000.00000" pt_clust_6="45.64638"></scales>
<clustering>
<clus scale="   45.646">  2  6  1 -1</clus>
<clus scale="   50.889">  2  4  1 -1</clus>
<clus scale="  116.596">  2  3  1 -1</clus>
<clus scale="  116.596">  1  3  2 -1</clus>
</clustering>
</event>
<event>
 6    0  0.3584505E+002  0.1002052E+03  0.7546771E-02  0.1279865E+00
          2   -1    0    0  505    0 -0.00000000000E+00  0.00000000000E+00  0.13706278356E+04  0.13706278356E+04  0.00000000000E+00 0.  1.
         21   -1    0    0  504  502  0.00000000000E+00 -0.00000000000E+00 -0.95386183877E+02  0.95386183877E+02  0.00000000000E+00 0. -1.
         21    1    1    2  503  501  0.50684785866E+02  0.99312979188E+02  0.11765045608E+02  0.11211793635E+03  0.00000000000E+00 0. -1.
         21    1    1    2  504  503  0.22806484416E+02 -0.38559643036E+02 -0.21608331882E+02  0.49738333397E+02  0.00000000000E+00 0. -1.
         21    1    1    2  505  502 -0.12157655098E+03 -0.51693292654E+02  0.48780978651E+03  0.50538247107E+03  0.00000000000E+00 0. -1.
          2    1    1    2  501    0  0.48085280702E+02 -0.90600434981E+01  0.79727515150E+03  0.79877527867E+03  0.00000000000E+00 0.  1.
<scales pt_clust_3="100.20519" pt_clust_4="44.79935" pt_clust_5="14000.00000" pt_clust_6="49.30439"></scales>
<clustering>
<clus scale="   44.799">  2  4  1 -1</clus>
<clus scale="   49.304">  1  6  2 -1</clus>
<clus scale="  100.205">  2  3  1 -1</clus>
<clus scale="   44.799">  2  3  1 -1</clus>
</clustering>
</event>
<event>
 6    0  0.3584505E+002  0.1069477E+03  0.7546771E-02  0.1266329E+00
          1   -1    0    0  504    0 -0.00000000000E+00  0.00000000000E+00  0.91543489106E+03  0.91543489106E+03  0.00000000000E+00 0. -1.
         21   -1    0    0  505  502  0.00000000000E+00 -0.00000000000E+00 -0.52033287549E+03  0.52033287549E+03  0.00000000000E+00 0. -1.
         21    1    1    2  503  502  0.33727799819E+02 -0.74648791318E+02 -0.47751148298E+03  0.48448655596E+03  0.00000000000E+00 0. -1.
         21    1    1    2  504  503 -0.84143818408E+02 -0.10208473818E+02  0.14396257355E+02  0.85974690111E+02  0.00000000000E+00 0.  1.
         21    1    1    2  505  501  0.32459479217E+02  0.23416015736E+02  0.19875278348E+03  0.20274268550E+03  0.00000000000E+00 0.  1.
          1    1    1    2  501    0  0.17956539371E+02  0.61441249399E+02  0.65946445772E+03  0.66256383498E+03  0.00000000000E+00 0. -1.
<scales pt_clust_3="81.91463" pt_clust_4="94.66682" pt_clust_5="39.34669" pt_clust_6="39.34669"></scales>
<clustering>
<clus scale="   39.347">  5  6 -1 -1</clus>
<clus scale="   81.915">  2  3  1 -1</clus>
<clus scale="   94.667">  2  4  1 -1</clus>
<clus scale="   81.915">  2  3  1 -1</clus>
</clustering>
</event>
<event>
 6    0  0.3584505E+002  0.2722281E+03  0.7546771E-02  0.1100011E+00
         21   -1    0    0  505  502  0.00000000000E+00  0.00000000000E+00  0.17518301583E+04  0.17518301583E+04  0.00000000000E+00 0. -1.
          3   -1    0    0  504    0 -0.00000000000E+00 -0.00000000000E+00 -0.61156337307E+03  0.61156337307E+03  0.00000000000E+00 0.  1.
         21    1    1    2  503  502  0.26687750963E+02  0.60675676672E+02  0.16216496343E+04  0.16230037924E+04  0.00000000000E+00 0. -1.
         21    1    1    2  504  503  0.22244311980E+03  0.79493722564E+02 -0.90498483865E+02  0.25296278195E+03  0.00000000000E+00 0. -1.
         21    1    1    2  505  501 -0.18705154551E+03 -0.11690199836E+03 -0.26197867224E+03  0.34247216326E+03  0.00000000000E+00 0.  1.
          3    1    1    2  501    0 -0.62079325251E+02 -0.23267400875E+02 -0.12890569293E+03  0.14495479377E+03  0.00000000000E+00 0.  1.
<scales pt_clust_3="66.28555" pt_clust_4="266.50956" pt_clust_5="30.42961" pt_clust_6="30.42961"></scales>
<clustering>
<clus scale="   30.430">  5  6 -1 -1</clus>
<clus scale="   66.286">  1  3  2 -1</clus>
<clus scale="  266.510">  1  4  2 -1</clus>
<clus scale="   66.286">  1  3  2 -1</clus>
</clustering>
</event>
<event>
 6    0  0.3584505E+002  0.1204737E+03  0.7546771E-02  0.1242318E+00
          2   -1    0    0  505    0 -0.00000000000E+00  0.00000000000E+00  0.14751948321E+04  0.14751948321E+04  0.00000000000E+00 0.  1.
         21   -1    0    0  504  502  0.00000000000E+00 -0.00000000000E+00 -0.85539075192E+02  0.85539075192E+02  0.00000000000E+00 0.  1.
         21    1    1    2  503  502 -0.58591460407E+02  0.11686415155E+02  0.44624871247E+02  0.74571513768E+02  0.00000000000E+00 0.  1.
         21    1    1    2  504  501 -0.10237312906E+02 -0.55258993673E+02  0.52867358762E+02  0.77157738301E+02  0.00000000000E+00 0. -1.
         21    1    1    2  505  503  0.11115246060E+03  0.15287849331E+03  0.10530013491E+03  0.21636733031E+03  0.00000000000E+00 0.  1.
          2    1    1    2  501    0 -0.42323687290E+02 -0.10930591480E+03  0.11868633920E+04  0.11926373249E+04  0.00000000000E+00 0.  1.
<scales pt_clust_3="60.68141" pt_clust_4="56.19928" pt_clust_5="14000.00000" pt_clust_6="120.47371"></scales>
<clustering>
<clus scale="   56.199">  2  4  1 -1</clus>
<clus scale="   60.681">  2  3  1 -1</clus>
<clus scale="  120.474">  1  6  2 -1</clus>
<clus scale="   56.199">  2  3  1 -1</clus>
</clustering>
</event>
<event>
 6    0  0.3584505E+002  0.1598442E+03  0.7546771E-02  0.1188873E+00
         21   -1    0    0  505  502  0.00000000000E+00  0.00000000000E+00  0.37163940889E+03  0.37163940889E+03  0.00000000000E+00 0.  1.
          1   -1    0    0  504    0 -0.00000000000E+00 -0.00000000000E+00 -0.24157548968E+04  0.24157548968E+04  0.00000000000E+00 0. -1.
         21    1    1    2  503  501 -0.56511914601E+02  0.12762172255E+02 -0.10416298514E+04  0.10432397696E+04  0.00000000000E+00 0. -1.
         21    1    1    2  504  502 -0.34953537205E+02 -0.56527404390E+01 -0.48629287990E+02  0.60154059614E+02  0.00000000000E+00 0.  1.
         21    1    1    2  505  503  0.13531828980E+03 -0.70283350863E+02  0.34796563601E+03  0.37990903228E+03  0.00000000000E+00 0.  1.
          1    1    1    2  501    0 -0.43852837998E+02  0.63173919046E+02 -0.13018219845E+04  0.13040914442E+04  0.00000000000E+00 0. -1.
<scales pt_clust_3="44.34474" pt_clust_4="35.40767" pt_clust_5="152.28998" pt_clust_6="44.34474"></scales>
<clustering>
<clus scale="   35.408">  2  4  1 -1</clus>
<clus scale="   44.345">  3  6 -1 -1</clus>
<clus scale="  152.290">  1  5  2 -1</clus>
<clus scale="  152.290">  1  3  2 -1</clus>
</clustering>
</event>
<event>
 6    0  0.3584505E+002  0.3018289E+03  0.7546771E-02  0.1084330E+00
         21   -1    0    0  504  502  0.00000000000E+00  0.00000000000E+00  0.11976842171E+04  0.11976842171E+04  0.00000000000E+00 0. -1.
          1   -1    0    0  505    0 -0.00000000000E+00 -0.00000000000E+00 -0.12874559671E+04  0.12874559671E+04  0.00000000000E+00 0.  1.
         21    1    1    2  503  502  0.17528173919E+03  0.78980231045E+02  0.82338167415E+03  0.84552879686E+03  0.00000000000E+00 0. -1.
         21    1    1    2  504  501 -0.21054838963E+03 -0.13933800124E+03 -0.57776436613E+03  0.63052150299E+03  0.00000000000E+00 0. -1.
         21    1    1    2  505  503  0.33798012969E+02  0.10127257091E+03  0.32774364275E+03  0.34469455271E+03  0.00000000000E+00 0. -1.
          1    1    1    2  501    0  0.14686374719E+01 -0.40914800721E+02 -0.66313270078E+03  0.66439533160E+03  0.00000000000E+00 0.  1.
<scales pt_clust_3="92.12700" pt_clust_4="275.25259" pt_clust_5="92.12700" pt_clust_6="40.94115"></scales>
<clustering>
<clus scale="   40.941">  2  6  1 -1</clus>
<clus scale="   92.127">  3  5 -1 -1</clus>
<clus scale="  275.253">  2  4  1 -1</clus>
<clus scale="  301.829">  1  3  2 -1</clus>
</clustering>
</event>
<event>
 6    0  0.3584505E+002  0.1396703E+03  0.7546771E-02  0.1213773E+00
         21   -1    0    0  503  502  0.00000000000E+00  0.00000000000E+00  0.10909998284E+04  0.10909998284E+04  0.00000000000E+00 0. -1.
         -2   -1    0    0    0  501 -0.00000000000E+00 -0.00000000000E+00 -0.51909925011E+03  0.51909925011E+03  0.00000000000E+00 0.  1.
         21    1    1    2  503  501  0.57262112126E+02 -0.96025274273E+02  0.60437159241E+03  0.61462575971E+03  0.00000000000E+00 0. -1.
         21    1    1    2  504  505 -0.38549236571E+02  0.70833649536E+02 -0.33697304876E+03  0.34648850650E+03  0.00000000000E+00 0.  1.
         21    1    1    2  505  502 -0.23467405339E+02 -0.31953400061E+02  0.47111505694E+03  0.47278021930E+03  0.00000000000E+00 0. -1.
         -2    1    1    2    0  504  0.47545297844E+01  0.57145024799E+02 -0.16661302227E+03  0.17620459302E+03  0.00000000000E+00 0.  1.
<scales pt_clust_3="131.98204" pt_clust_4="38.53646" pt_clust_5="39.64516" pt_clust_6="38.53646"></scales>
<clustering>
<clus scale="   38.536">  4  6 -1 -1</clus>
<clus scale="   39.645">  1  5  2 -1</clus>
<clus scale="  131.982">  1  3  2 -1</clus>
<clus scale="   39.645">  1  3  2 -1</clus>
</clustering>
</event>
<event>
 6    0  0.3584505E+002  0.1047499E+03  0.7546771E-02  0.1270613E+00
         21   -1    0    0  505  502  0.00000000000E+00  0.00000000000E+00  0.95769888906E+02  0.95769888906E+02  0.00000000000E+00 0.  1.
          2   -1    0    0  503    0 -0.00000000000E+00 -0.00000000000E+00 -0.90827952427E+03  0.90827952427E+03  0.00000000000E+00 0.  1.
         21    1    1    2  503  502 -0.27163765389E+02  0.64184896416E+02  0.61066626167E+02  0.92664469509E+02  0.00000000000E+00 0.  1.
         21    1    1    2  504  501  0.37297792189E+02 -0.12012697908E+03 -0.51112545704E+03  0.52637519816E+03  0.00000000000E+00 0.  1.
         21    1    1    2  505  504  0.12798529417E+02  0.79708759602E+02 -0.15320427663E+03  0.17317285899E+03  0.00000000000E+00 0.  1.
          2    1    1    2  501    0 -0.22932556217E+02 -0.23766676937E+02 -0.20924652787E+03  0.21183688652E+03  0.00000000000E+00 0.  1.
<scales pt_clust_3="69.40647" pt_clust_4="104.74991" pt_clust_5="14000.00000" pt_clust_6="33.02661"></scales>
<clustering>
<clus scale="   33.027">  2  6  1 -1</clus>
<clus scale="   69.406">  1  3  2 -1</clus>
<clus scale="  104.750">  2  4  1 -1</clus>
<clus scale="   69.406">  1  3  2 -1</clus>
</clustering>
</event>
<event>
 6    0  0.3584505E+002  0.7579685E+02  0.7546771E-02  0.1341421E+00
          2   -1    0    0  503    0 -0.00000000000E+00  0.00000000000E+00  0.23404592617E+04  0.23404592617E+04  0.00000000000E+00 0.  1.
         21   -1    0    0  504  502  0.00000000000E+00 -0.00000000000E+00 -0.26235171749E+02  0.26235171749E+02  0.00000000000E+00 0.  1.
         21    1    1    2  503  502 -0.15674040955E+02  0.26898211524E+02  0.34238725588E+02  0.46276124221E+02  0.00000000000E+00 0. -1.
         21    1    1    2  504  505 -0.45304196933E+01 -0.77224646512E+02  0.12922678150E+03  0.15061119410E+03  0.00000000000E+00 0.  1.
         21    1    1    2  505  501  0.74173593757E+02 -0.51895074960E+01  0.14871803235E+03  0.16626997969E+03  0.00000000000E+00 0.  1.
          2    1    1    2  501    0 -0.53969133108E+02  0.55515942484E+02  0.20020405505E+04  0.20035371354E+04  0.00000000000E+00 0.  1.
<scales pt_clust_3="31.13181" pt_clust_4="64.28978" pt_clust_5="14000.00000" pt_clust_6="75.79685"></scales>
<clustering>
<clus scale="   31.132">  2  3  1 -1</clus>
<clus scale="   64.290">  2  4  1 -1</clus>
<clus scale="   75.797">  1  6  2 -1</clus>
<clus scale="   31.132">  2  3  1 -1</clus>
</clustering>
</event>
<event>
 6    0  0.3584505E+002  0.2098664E+03  0.7546771E-02  0.1141672E+00
          1   -1    0    0  503    0 -0.00000000000E+00  0.00000000000E+00  0.11213360137E+04  0.11213360137E+04  0.00000000000E+00 0.  1.
         21   -1    0    0  505  502  0.00000000000E+00 -0.00000000000E+00 -0.95274070512E+03  0.95274070512E+03  0.00000000000E+00 0.  1.
         21    1    1    2  503  502 -0.16561321546E+01  0.36429689849E+02 -0.12032069855E+03  0.12572563611E+03  0.00000000000E+00 0.  1.
         21    1    1    2  504  501  0.75425903180E+01 -0.27988150450E+03 -0.39329742261E+03  0.48277677022E+03  0.00000000000E+00 0.  1.
         21    1    1    2  505  504 -0.43109802446E+01  0.35207494707E+02 -0.38075236289E+03  0.38240098599E+03  0.00000000000E+00 0.  1.
          1    1    1    2  501    0 -0.15754779188E+01  0.20824431995E+03  0.10629657927E+04  0.10831733265E+04  0.00000000000E+00 0.  1.
<scales pt_clust_3="44.08887" pt_clust_4="14000.00000" pt_clust_5="35.47044" pt_clust_6="209.86642"></scales>
<clustering>
<clus scale="   35.470">  2  5  1 -1</clus>
<clus scale="   44.089">  2  3  1 -1</clus>
<clus scale="  209.866">  1  6  2 -1</clus>
<clus scale="   35.470">  2  3  1 -1</clus>
</clustering>
</event>
<event>
 6    0  0.3584505E+002  0.1056974E+03  0.7546771E-02  0.1268752E+00
          2   -1    0    0  504    0 -0.00000000000E+00  0.00000000000E+00  0.44404429919E+03  0.44404429919E+03  0.00000000000E+00 0. -1.
         21   -1    0    0  505  502  0.00000000000E+00 -0.00000000000E+00 -0.99112350771E+03  0.99112350771E+03  0.00000000000E+00 0. -1.
         21    1    1    2  503  501  0.22786212184E+02 -0.50269973928E+02  0.56894171514E+01  0.55485594635E+02  0.00000000000E+00 0. -1.
         21    1    1    2  504  502 -0.92478127266E+02  0.57461829475E+02 -0.33706369230E+03  0.35421179898E+03  0.00000000000E+00 0. -1.
         21    1    1    2  505  503 -0.30779202337E+02  0.25626089498E+02 -0.61302510117E+03  0.61433201969E+03  0.00000000000E+00 0. -1.
          2    1    1    2  501    0  0.10047111742E+03 -0.32817945045E+02  0.39732016779E+03  0.41113839360E+03  0.00000000000E+00 0. -1.
<scales pt_clust_3="52.82782" pt_clust_4="14000.00000" pt_clust_5="40.05066" pt_clust_6="105.69742"></scales>
<clustering>
<clus scale="   40.051">  2  5  1 -1</clus>
<clus scale="   52.828">  2  3  1 -1</clus>
<clus scale="  105.697">  1  6  2 -1</clus>
<clus scale="   40.051">  2  3  1 -1</clus>
</clustering>
</event>
<event>
 6    0  0.3584505E+002  0.1007924E+03  0.7546771E-02  0.1278639E+00
          2   -1    0    0  504    0 -0.00000000000E+00  0.00000000000E+00  0.25862872609E+04  0.25862872609E+04  0.00000000000E+00 0. -1.
         21   -1    0    0  503  502  0.00000000000E+00 -0.00000000000E+00 -0.28238614323E+02  0.28238614323E+02  0.00000000000E+00 0. -1.
         21    1    1    2  503  501  0.85934422524E+01  0.10727661419E+03  0.39135574323E+03  0.40588352635E+03  0.00000000000E+00 0. -1.
         21    1    1    2  504  505  0.13098241731E+01 -0.36460174788E+02  0.23432101096E+03  0.23714425180E+03  0.00000000000E+00 0. -1.
         21    1    1    2  505  502 -0.57314700032E+02 -0.84410728703E+02  0.11612082137E+03  0.15457745992E+03  0.00000000000E+00 0. -1.
          2    1    1    2  501    0  0.47411433606E+02  0.13594289305E+02  0.18162510710E+04  0.18169206371E+04  0.00000000000E+00 0. -1.
<scales pt_clust_3="14000.00000" pt_clust_4="36.48369" pt_clust_5="100.79236" pt_clust_6="50.57202"></scales>
<clustering>
<clus scale="   36.484">  1  4  2 -1</clus>
<clus scale="   50.572">  1  6  2 -1</clus>
<clus scale="  100.792">  2  5  1 -1</clus>
<clus scale="  100.792">  2  3  1 -1</clus>
</clustering>
</event>
<event>
 6    0  0.3584505E+002  0.9002663E+02  0.7546771E-02  0.1302787E+00
          2   -1    0    0  504    0 -0.00000000000E+00  0.00000000000E+00  0.85425859697E+03  0.85425859697E+03  0.00000000000E+00 0.  1.
         21   -1    0    0  503  502  0.00000000000E+00 -0.00000000000E+00 -0.23967379509E+03  0.23967379509E+03  0.00000000000E+00 0.  1.
         21    1    1    2  503  501 -0.31370708707E+02  0.61686592541E+00 -0.19647453291E+03  0.19896417761E+03  0.00000000000E+00 0.  1.
         21    1    1    2  504  505  0.77818136810E+02  0.96581190581E+02  0.34147080193E+03  0.36329863385E+03  0.00000000000E+00 0.  1.
         21    1    1    2  505  502 -0.35170574273E+02 -0.15004853476E+02 -0.14222419219E+02  0.40796962276E+02  0.00000000000E+00 0.  1.
          2    1    1    2  501    0 -0.11276853830E+02 -0.82193203030E+02  0.48381095209E+03  0.49087261832E+03  0.00000000000E+00 0.  1.
<scales pt_clust_3="31.37677" pt_clust_4="90.02663" pt_clust_5="57.62092" pt_clust_6="14000.00000"></scales>
<clustering>
<clus scale="   31.377">  2  3  1 -1</clus>
<clus scale="   57.621">  2  5  1 -1</clus>
<clus scale="   90.027">  2  4  1 -1</clus>
<clus scale="   31.377">  2  3  1 -1</clus>
</clustering>
</event>
<event>
 6    0  0.3584505E+002  0.1449633E+03  0.7546771E-02  0.1206802E+00
         21   -1    0    0  503  502  0.00000000000E+00  0.00000000000E+00  0.84054800711E+02  0.84054800711E+02  0.00000000000E+00 0. -1.
          2   -1    0    0  505    0 -0.00000000000E+00 -0.00000000000E+00 -0.24834327495E+04  0.24834327495E+04  0.00000000000E+00 0.  1.
         21    1    1    2  503  501  0.15831059032E+03 -0.74653637417E+02 -0.44087951432E+03  0.47435235293E+03  0.00000000000E+00 0. -1.
         21    1    1    2  504  502 -0.91482689284E+01  0.29045428939E+02  0.17869269007E+02  0.35307768855E+02  0.00000000000E+00 0. -1.
         21    1    1    2  505  504 -0.35700869914E+02  0.12825571542E+03 -0.78043983898E+02  0.15432091262E+03  0.00000000000E+00 0. -1.
          2    1    1    2  501    0 -0.11346145148E+03 -0.82647506941E+02 -0.18983237196E+04  0.19035065158E+04  0.00000000000E+00 0.  1.
<scales pt_clust_3="14000.00000" pt_clust_4="30.45206" pt_clust_5="144.96330" pt_clust_6="139.93967"></scales>
<clustering>
<clus scale="   30.452">  1  4  2 -1</clus>
<clus scale="  139.940">  2  6  1 -1</clus>
<clus scale="  144.963">  1  5  2 -1</clus>
<clus scale="   30.452">  1  3  2 -1</clus>
</clustering>
</event>
<event>
 6    0  0.3584505E+002  0.7845773E+02  0.7546771E-02  0.1333486E+00
         21   -1    0    0  503  502  0.00000000000E+00  0.00000000000E+00  0.12902589279E+03  0.12902589279E+03  0.00000000000E+00 0. -1.
          2   -1    0    0  505    0 -0.00000000000E+00 -0.00000000000E+00 -0.58636929378E+03  0.58636929378E+03  0.00000000000E+00 0. -1.
         21    1    1    2  503  501 -0.13396443670E+03  0.77383318128E+01  0.45307427610E+02  0.14163020538E+03  0.00000000000E+00 0. -1.
         21    1    1    2  504  502  0.54737726462E+02 -0.12270964111E+02  0.30023535504E+01  0.56176591079E+02  0.00000000000E+00 0. -1.
         21    1    1    2  505  504  0.32779977724E+02  0.35190691104E+02 -0.14764091257E+03  0.15527636892E+03  0.00000000000E+00 0. -1.
          2    1    1    2  501    0  0.46446732512E+02 -0.30658058805E+02 -0.35801226958E+03  0.36231202119E+03  0.00000000000E+00 0. -1.
<scales pt_clust_3="14000.00000" pt_clust_4="57.63698" pt_clust_5="48.09274" pt_clust_6="78.45773"></scales>
<clustering>
<clus scale="   48.093">  2  5  1 -1</clus>
<clus scale="   57.637">  1  4  2 -1</clus>
<clus scale="   78.458">  2  6  1 -1</clus>
<clus scale="   57.637">  1  3  2 -1</clus>
</clustering>
</event>
<event>
 6    0  0.3584505E+002  0.9089915E+02  0.7546771E-02  0.1300689E+00
         21   -1    0    0  504  502  0.00000000000E+00  0.00000000000E+00  0.63518648064E+02  0.63518648064E+02  0.00000000000E+00 0. -1.
         -2   -1    0    0    0  501 -0.00000000000E+00 -0.00000000000E+00 -0.12219204275E+04  0.12219204275E+04  0.00000000000E+00 0.  1.
         21    1    1    2  503  502 -0.69998811600E+02  0.13661650512E+02 -0.11131277235E+03  0.13220063392E+03  0.00000000000E+00 0.  1.
         21    1    1    2  504  505  0.49036517514E+02 -0.33796890516E+02 -0.24675652505E+02  0.64464701078E+02  0.00000000000E+00 0.  1.
         21    1    1    2  505  501  0.99849321085E+02  0.61617377085E+02 -0.79662880684E+02  0.14181947200E+03  0.00000000000E+00 0. -1.
         -2    1    1    2    0  503 -0.78887026999E+02 -0.41482137081E+02 -0.94275047393E+03  0.94695426861E+03  0.00000000000E+00 0.  1.
<scales pt_clust_3="58.52482" pt_clust_4="59.55510" pt_clust_5="90.89915" pt_clust_6="14000.00000"></scales>
<clustering>
<clus scale="   59.555">  1  4  2 -1</clus>
<clus scale="   58.525">  1  3  2 -1</clus>
<clus scale="   90.899">  1  5  2 -1</clus>
<clus scale="   59.555">  1  3  2 -1</clus>
</clustering>
</event>
<event>
 6    0  0.3584505E+002  0.7216658E+02  0.7546771E-02  0.1352877E+00
          2   -1    0    0  503    0 -0.00000000000E+00  0.00000000000E+00  0.18746372356E+04  0.18746372356E+04  0.00000000000E+00 0.  1.
         21   -1    0    0  504  502  0.00000000000E+00 -0.00000000000E+00 -0.20745473175E+03  0.20745473175E+03  0.00000000000E+00 0.  1.
         21    1    1    2  503  505 -0.33687791101E+02  0.39203377383E+02  0.18314604610E+02  0.54837913979E+02  0.00000000000E+00 0.  1.
         21    1    1    2  504  501  0.11370630158E+03 -0.54096948988E+02  0.97620502336E+02  0.15932785502E+03  0.00000000000E+00 0.  1.
         21    1    1    2  505  502 -0.23819953015E+02 -0.28410774983E+02 -0.15542195706E+03  0.15978281207E+03  0.00000000000E+00 0.  1.
          2    1    1    2  501    0 -0.56198557466E+02  0.43304346589E+02  0.17066693540E+04  0.17081433863E+04  0.00000000000E+00 0.  1.
<scales pt_clust_3="51.26510" pt_clust_4="14000.00000" pt_clust_5="37.07509" pt_clust_6="72.16658"></scales>
<clustering>
<clus scale="   37.075">  2  5  1 -1</clus>
<clus scale="   51.265">  2  3  1 -1</clus>
<clus scale="   72.167">  1  6  2 -1</clus>
<clus scale="   37.075">  2  3  1 -1</clus>
</clustering>
</event>
<event>
 6    0  0.3584505E+002  0.1157379E+03  0.7546771E-02  0.1250298E+00
          1   -1    0    0  503    0 -0.00000000000E+00  0.00000000000E+00  0.29373028029E+03  0.29373028029E+03  0.00000000000E+00 0. -1.
         21   -1    0    0  505  502  0.00000000000E+00 -0.00000000000E+00 -0.25481199785E+03  0.25481199785E+03  0.00000000000E+00 0.  1.
         21    1    1    2  503  502  0.10636382304E+03  0.37002584761E+01  0.45021165859E+02  0.11555890333E+03  0.00000000000E+00 0.  1.
         21    1    1    2  504  501 -0.83883752589E+02  0.76520550543E+02 -0.17250224643E+03  0.20651610985E+03  0.00000000000E+00 0.  1.
         21    1    1    2  505  504 -0.29271756627E+02 -0.14566537863E+02 -0.13095810211E+02  0.35221016544E+02  0.00000000000E+00 0.  1.
          1    1    1    2  501    0  0.67916861771E+01 -0.65654271157E+02  0.17949517322E+03  0.19124624841E+03  0.00000000000E+00 0. -1.
<scales pt_clust_3="115.73793" pt_clust_4="14000.00000" pt_clust_5="32.69587" pt_clust_6="66.30157"></scales>
<clustering>
<clus scale="   32.696">  2  5  1 -1</clus>
<clus scale="   66.302">  1  6  2 -1</clus>
<clus scale="  115.738">  1  3  2 -1</clus>
<clus scale="   32.696">  2  3  1 -1</clus>
</clustering>
</event>
<event>
 6    0  0.3584505E+002  0.1174085E+03  0.7546771E-02  0.1247434E+00
         21   -1    0    0  505  502  0.00000000000E+00  0.00000000000E+00  0.44302514272E+03  0.44302514272E+03  0.00000000000E+00 0. -1.
          2   -1    0    0  503    0 -0.00000000000E+00 -0.00000000000E+00 -0.51366661226E+03  0.51366661226E+03  0.00000000000E+00 0. -1.
         21    1    1    2  503  504 -0.17683947817E+02  0.54293342797E+02  0.18826959130E+03  0.19673822224E+03  0.00000000000E+00 0. -1.
         21    1    1    2  504  502  0.54683502690E+01  0.43578283289E+02  0.23962815242E+01  0.43985358862E+02  0.00000000000E+00 0. -1.
         21    1    1    2  505  501 -0.89636529519E+02 -0.15375814276E+03  0.18385926558E+03  0.25589158530E+03  0.00000000000E+00 0. -1.
          2    1    1    2  501    0  0.10185212707E+03  0.55886516671E+02 -0.44516660794E+03  0.46007658858E+03  0.00000000000E+00 0. -1.
<scales pt_clust_3="75.80967" pt_clust_4="43.92004" pt_clust_5="117.40852" pt_clust_6="14000.00000"></scales>
<clustering>
<clus scale="   43.920">  1  4  2 -1</clus>
<clus scale="   75.810">  1  3  2 -1</clus>
<clus scale="  117.409">  1  5  2 -1</clus>
<clus scale="   43.920">  1  3  2 -1</clus>
</clustering>
</event>
<event>
 6    0  0.3584505E+002  0.1091117E+03  0.7546771E-02  0.1262224E+00
         21   -1    0    0  504  502  0.00000000000E+00  0.00000000000E+00  0.98990307924E+02  0.98990307924E+02  0.00000000000E+00 0. -1.
          2   -1    0    0  505    0 -0.00000000000E+00 -0.00000000000E+00 -0.25604235836E+04  0.25604235836E+04  0.00000000000E+00 0. -1.
         21    1    1    2  503  501 -0.53722063138E+02 -0.75475997598E+02 -0.35090053742E+03  0.36292406016E+03  0.00000000000E+00 0. -1.
         21    1    1    2  504  503 -0.10983585558E+02  0.14926352719E+03 -0.34827452591E+02  0.15366584252E+03  0.00000000000E+00 0. -1.
         21    1    1    2  505  502  0.42534483015E+02 -0.42905487593E+02  0.60533543837E+01  0.60718252694E+02  0.00000000000E+00 0. -1.
          2    1    1    2  501    0  0.22171165682E+02 -0.30882042004E+02 -0.20817586401E+04  0.20821057362E+04  0.00000000000E+00 0. -1.
<scales pt_clust_3="14000.00000" pt_clust_4="109.11168" pt_clust_5="62.56109" pt_clust_6="38.01659"></scales>
<clustering>
<clus scale="   38.017">  2  6  1 -1</clus>
<clus scale="   62.561">  1  5  2 -1</clus>
<clus scale="  109.112">  1  4  2 -1</clus>
<clus scale="   62.561">  1  3  2 -1</clus>
</clustering>
</event>
<event>
 6    0  0.3584505E+002  0.6679696E+02  0.7546771E-02  0.1371337E+00
         21   -1    0    0  504  502  0.00000000000E+00  0.00000000000E+00  0.12022623280E+03  0.12022623280E+03  0.00000000000E+00 0.  1.
          2   -1    0    0  505    0 -0.00000000000E+00 -0.00000000000E+00 -0.30156655134E+04  0.30156655134E+04  0.00000000000E+00 0. -1.
         21    1    1    2  503  502 -0.14943669524E+01 -0.60811680621E+02 -0.47955778763E+02  0.77459991926E+02  0.00000000000E+00 0. -1.
         21    1    1    2  504  501 -0.17808221508E+02  0.12423581151E+03  0.65927869030E+02  0.14176795664E+03  0.00000000000E+00 0.  1.
         21    1    1    2  505  503  0.46002273970E+02  0.11536157082E+01 -0.46861340911E+03  0.47086735631E+03  0.00000000000E+00 0.  1.
          2    1    1    2  501    0 -0.26699685510E+02 -0.64577746602E+02 -0.24447979618E+04  0.24457964413E+04  0.00000000000E+00 0. -1.
<scales pt_clust_3="60.78434" pt_clust_4="14000.00000" pt_clust_5="46.01674" pt_clust_6="66.79696"></scales>
<clustering>
<clus scale="   46.017">  2  5  1 -1</clus>
<clus scale="   60.784">  1  3  2 -1</clus>
<clus scale="   66.797">  2  6  1 -1</clus>
<clus scale="   60.784">  1  3  2 -1</clus>
</clustering>
</event>
<event>
 6    0  0.3584505E+002  0.1065628E+03  0.7546771E-02  0.1267071E+00
         21   -1    0    0  505  502  0.00000000000E+00  0.00000000000E+00  0.29483374347E+04  0.29483374347E+04  0.00000000000E+00 0.  1.
          2   -1    0    0  502    0 -0.00000000000E+00 -0.00000000000E+00 -0.23539315541E+03  0.23539315541E+03  0.00000000000E+00 0.  1.
         21    1    1    2  503  504 -0.72694768958E+02  0.11900998412E+03  0.21112920618E+04  0.21158927374E+04  0.00000000000E+00 0.  1.
         21    1    1    2  504  501  0.89225161998E+01 -0.71180249685E+02  0.10949480548E+03  0.13090206900E+03  0.00000000000E+00 0. -1.
         21    1    1    2  505  503  0.25864007285E+02 -0.17993648137E+02  0.71157772271E+03  0.71227492845E+03  0.00000000000E+00 0. -1.
          2    1    1    2  501    0  0.37908245474E+02 -0.29836086294E+02 -0.21942031075E+03  0.22466085526E+03  0.00000000000E+00 0.  1.
<scales pt_clust_3="14000.00000" pt_clust_4="106.56281" pt_clust_5="31.50743" pt_clust_6="48.27819"></scales>
<clustering>
<clus scale="   31.507">  1  5  2 -1</clus>
<clus scale="   48.278">  2  6  1 -1</clus>
<clus scale="  106.563">  2  4  1 -1</clus>
<clus scale="   31.507">  1  3  2 -1</clus>
</clustering>
</event>
<event>
 6    0  0.3584505E+002  0.8429009E+02  0.7546771E-02  0.1317300E+00
         21   -1    0    0  504  502  0.00000000000E+00  0.00000000000E+00  0.21350587674E+03  0.21350587674E+03  0.00000000000E+00 0.  1.
          3   -1    0    0  503    0 -0.00000000000E+00 -0.00000000000E+00 -0.91890511046E+03  0.91890511046E+03  0.00000000000E+00 0.  1.
         21    1    1    2  503  505 -0.70723518968E+02  0.53592642528E+02 -0.43605138280E+03  0.44498853458E+03  0.00000000000E+00 0. -1.
         21    1    1    2  504  501  0.49845481634E+02 -0.14951629379E+02  0.13485556283E+03  0.14454807535E+03  0.00000000000E+00 0.  1.
         21    1    1    2  505  502 -0.32771827809E+01  0.47096103978E+02  0.56506404947E+02  0.73632579317E+02  0.00000000000E+00 0.  1.
          3    1    1    2  501    0  0.24155220114E+02 -0.85737117127E+02 -0.46070981869E+03  0.46924179796E+03  0.00000000000E+00 0.  1.
<scales pt_clust_3="84.29009" pt_clust_4="55.22125" pt_clust_5="47.20999" pt_clust_6="14000.00000"></scales>
<clustering>
<clus scale="   47.210">  1  5  2 -1</clus>
<clus scale="   55.221">  1  4  2 -1</clus>
<clus scale="   84.290">  1  3  2 -1</clus>
<clus scale="   47.210">  1  3  2 -1</clus>
</clustering>
</event>
<event>
 6    0  0.3584505E+002  0.6939041E+02  0.7546771E-02  0.1362178E+00
         21   -1    0    0  501  502  0.00000000000E+00  0.00000000000E+00  0.68977506339E+02  0.68977506339E+02  0.00000000000E+00 0.  1.
          2   -1    0    0  503    0 -0.00000000000E+00 -0.00000000000E+00 -0.17189651316E+04  0.17189651316E+04  0.00000000000E+00 0.  1.
         21    1    1    2  503  504  0.44678645808E+02 -0.20210507715E+02 -0.26225573891E+03  0.26680089693E+03  0.00000000000E+00 0.  1.
         21    1    1    2  504  505 -0.65983479509E+02  0.32355169399E+02 -0.11980492285E+04  0.12003010582E+04  0.00000000000E+00 0.  1.
         21    1    1    2  505  502  0.13797136824E+02 -0.69280497788E+02  0.41942680511E+02  0.82154347461E+02  0.00000000000E+00 0.  1.
          2    1    1    2  501    0  0.75076968765E+01  0.57135836104E+02 -0.23162533839E+03  0.23868633531E+03  0.00000000000E+00 0.  1.
<scales pt_clust_3="49.03719" pt_clust_4="33.10181" pt_clust_5="69.39041" pt_clust_6="14000.00000"></scales>
<clustering>
<clus scale="   49.037">  2  3  1 -1</clus>
<clus scale="   33.102">  2  4  1 -1</clus>
<clus scale="   69.390">  1  5  2 -1</clus>
<clus scale="   69.390">  1  3  2 -1</clus>
</clustering>
</event>
<event>
 6    0  0.3584505E+002  0.3226966E+03  0.7546771E-02  0.1074415E+00
         21   -1    0    0  503  502  0.00000000000E+00  0.00000000000E+00  0.22866158022E+03  0.22866158022E+03  0.00000000000E+00 0. -1.
          1   -1    0    0  505    0 -0.00000000000E+00 -0.00000000000E+00 -0.11805353053E+04  0.11805353053E+04  0.00000000000E+00 0.  1.
         21    1    1    2  503  501 -0.21101190361E+03  0.22514626868E+03  0.19240944273E+02  0.30917160236E+03  0.00000000000E+00 0. -1.
         21    1    1    2  504  502  0.82478072345E+01  0.65458202994E+02 -0.34168665801E+02  0.74298723986E+02  0.00000000000E+00 0. -1.
         21    1    1    2  505  504  0.22564584661E+03 -0.17414953372E+03 -0.52945323664E+03  0.60130261764E+03  0.00000000000E+00 0.  1.
          1    1    1    2  501    0 -0.22881750238E+02 -0.11645493795E+03 -0.40749276691E+03  0.42442394154E+03  0.00000000000E+00 0.  1.
<scales pt_clust_3="322.69663" pt_clust_4="65.97577" pt_clust_5="14000.00000" pt_clust_6="116.01055"></scales>
<clustering>
<clus scale="   65.976">  1  4  2 -1</clus>
<clus scale="  116.011">  2  6  1 -1</clus>
<clus scale="  322.697">  1  3  2 -1</clus>
<clus scale="   65.976">  1  3  2 -1</clus>
</clustering>
</event>
<event>
 6    0  0.3584505E+002  0.1064282E+03  0.7546771E-02  0.1267331E+00
         -3   -1    0    0    0  501 -0.00000000000E+00  0.00000000000E+00  0.93670618964E+03  0.93670618964E+03  0.00000000000E+00 0.  1.
         21   -1    0    0  505  502  0.00000000000E+00 -0.00000000000E+00 -0.41033547114E+03  0.41033547114E+03  0.00000000000E+00 0. -1.
         21    1    1    2  503  502  0.11508983986E+03 -0.67397897278E+02 -0.29815522359E+03  0.32662621626E+03  0.00000000000E+00 0. -1.
         21    1    1    2  504  501 -0.11643272756E+03 -0.39792566968E+01  0.15033062248E+02  0.11746662288E+03  0.00000000000E+00 0.  1.
         21    1    1    2  505  504 -0.29984033255E+02  0.98531104052E+01 -0.39833150586E+02  0.50821313644E+02  0.00000000000E+00 0. -1.
         -3    1    1    2    0  503  0.31326920947E+02  0.61524043569E+02  0.84932603043E+03  0.85212750800E+03  0.00000000000E+00 0.  1.
<scales pt_clust_3="106.42818" pt_clust_4="14000.00000" pt_clust_5="31.56146" pt_clust_6="69.02204"></scales>
<clustering>
<clus scale="   31.561">  2  5  1 -1</clus>
<clus scale="   69.022">  1  6  2 -1</clus>
<clus scale="  106.428">  2  3  1 -1</clus>
<clus scale="   31.561">  2  3  1 -1</clus>
</clustering>
</event>
<event>
 6    0  0.3584505E+002  0.1000630E+03  0.7546771E-02  0.1280164E+00
         21   -1    0    0  503  502  0.00000000000E+00  0.00000000000E+00  0.19955405614E+04  0.19955405614E+04  0.00000000000E+00 0. -1.
          2   -1    0    0  505    0 -0.00000000000E+00 -0.00000000000E+00 -0.36000099250E+03  0.36000099250E+03  0.00000000000E+00 0.  1.
         21    1    1    2  503  501  0.90755915474E+02  0.10752890617E+02  0.62285017587E+03  0.62951934238E+03  0.00000000000E+00 0. -1.
         21    1    1    2  504  502 -0.28932904982E+02 -0.31323821387E+02  0.13069729955E+04  0.13076684234E+04  0.00000000000E+00 0. -1.
         21    1    1    2  505  504  0.21455419719E+01 -0.57148924348E+02  0.39642857605E+02  0.69585623972E+02  0.00000000000E+00 0. -1.
          2    1    1    2  501    0 -0.63968552464E+02  0.77719855118E+02 -0.33392646004E+03  0.34876816411E+03  0.00000000000E+00 0.  1.
<scales pt_clust_3="14000.00000" pt_clust_4="42.64147" pt_clust_5="59.63484" pt_clust_6="100.06296"></scales>
<clustering>
<clus scale="   42.641">  1  4  2 -1</clus>
<clus scale="   59.635">  1  5  2 -1</clus>
<clus scale="  100.063">  2  6  1 -1</clus>
<clus scale="   42.641">  1  3  2 -1</clus>
</clustering>
</event>
<event>
 6    0  0.3584505E+002  0.1098872E+03  0.7546771E-02  0.1260779E+00
         21   -1    0    0  503  502  0.00000000000E+00  0.00000000000E+00  0.12885435300E+04  0.12885435300E+04  0.00000000000E+00 0.  1.
          1   -1    0    0  505    0 -0.00000000000E+00 -0.00000000000E+00 -0.75320941003E+03  0.75320941003E+03  0.00000000000E+00 0. -1.
         21    1    1    2  503  504 -0.55327972179E+02  0.87856852583E+02  0.10139769098E+04  0.10192787571E+04  0.00000000000E+00 0.  1.
         21    1    1    2  504  501  0.31859436192E+02 -0.15135394936E+03 -0.13403591232E+03  0.20466721148E+03  0.00000000000E+00 0. -1.
         21    1    1    2  505  502  0.29451587937E+02  0.18112117956E+02  0.23442868812E+03  0.23696466965E+03  0.00000000000E+00 0.  1.
          1    1    1    2  501    0 -0.59830519499E+01  0.45384978823E+02 -0.57903556567E+03  0.58084230177E+03  0.00000000000E+00 0. -1.
<scales pt_clust_3="14000.00000" pt_clust_4="109.88717" pt_clust_5="34.57521" pt_clust_6="45.78976"></scales>
<clustering>
<clus scale="   34.575">  1  5  2 -1</clus>
<clus scale="   45.790">  2  6  1 -1</clus>
<clus scale="  109.887">  2  4  1 -1</clus>
<clus scale="   34.575">  1  3  2 -1</clus>
</clustering>
</event>
<event>
 6    0  0.3584505E+002  0.1102722E+03  0.7546771E-02  0.1260067E+00
          3   -1    0    0  505    0 -0.00000000000E+00  0.00000000000E+00  0.24604633514E+04  0.24604633514E+04  0.00000000000E+00 0.  1.
         21   -1    0    0  504  502  0.00000000000E+00 -0.00000000000E+00 -0.51011805086E+03  0.51011805086E+03  0.00000000000E+00 0. -1.
         21    1    1    2  503  502  0.19509530155E+02 -0.57687937472E+02 -0.32978801848E+03  0.33536347002E+03  0.00000000000E+00 0. -1.
         21    1    1    2  504  501 -0.22944686944E+02  0.13232739768E+03  0.58242242625E+02  0.14638701330E+03  0.00000000000E+00 0. -1.
         21    1    1    2  505  503  0.42621918567E+02 -0.50020108564E+02 -0.12513880269E+03  0.14134482354E+03  0.00000000000E+00 0. -1.
          3    1    1    2  501    0 -0.39186761778E+02 -0.24619351648E+02  0.23470298791E+04  0.23474860954E+04  0.00000000000E+00 0.  1.
<scales pt_clust_3="61.17282" pt_clust_4="14000.00000" pt_clust_5="110.27218" pt_clust_6="46.27866"></scales>
<clustering>
<clus scale="   46.279">  1  6  2 -1</clus>
<clus scale="   61.173">  2  3  1 -1</clus>
<clus scale="  110.272">  2  5  1 -1</clus>
<clus scale="   61.173">  2  3  1 -1</clus>
</clustering>
</event>
<event>
 6    0  0.3584505E+002  0.8591905E+02  0.7546771E-02  0.1313046E+00
          2   -1    0    0  502    0 -0.00000000000E+00  0.00000000000E+00  0.23022737441E+04  0.23022737441E+04  0.00000000000E+00 0. -1.
         21   -1    0    0  505  502  0.00000000000E+00 -0.00000000000E+00 -0.82369334807E+02  0.82369334807E+02  0.00000000000E+00 0.  1.
         21    1    1    2  503  501 -0.30600796518E+02 -0.47438215966E+02  0.12507194046E+03  0.13722165781E+03  0.00000000000E+00 0.  1.
         21    1    1    2  504  503  0.11644029341E+03  0.36035459587E+02  0.29978250803E+02  0.12552128026E+03  0.00000000000E+00 0.  1.
         21    1    1    2  505  504 -0.36396626397E+02  0.25391379181E+02 -0.10748545712E+02  0.45661447467E+02  0.00000000000E+00 0.  1.
          2    1    1    2  501    0 -0.49442870491E+02 -0.13988622802E+02  0.20756027638E+04  0.20762386934E+04  0.00000000000E+00 0. -1.
<scales pt_clust_3="14000.00000" pt_clust_4="85.91905" pt_clust_5="44.37833" pt_clust_6="51.54905"></scales>
<clustering>
<clus scale="   44.378">  2  5  1 -1</clus>
<clus scale="   51.549">  1  6  2 -1</clus>
<clus scale="   85.919">  2  4  1 -1</clus>
<clus scale="   44.378">  2  3  1 -1</clus>
</clustering>
</event>
<event>
 6    0  0.3584505E+002  0.1507970E+03  0.7546771E-02  0.1199497E+00
         21   -1    0    0  505  502  0.00000000000E+00  0.00000000000E+00  0.13235808950E+04  0.13235808950E+04  0.00000000000E+00 0.  1.
          1   -1    0    0  504    0 -0.00000000000E+00 -0.00000000000E+00 -0.70946483773E+03  0.70946483773E+03  0.00000000000E+00 0. -1.
         21    1    1    2  503  501 -0.90852269036E+02  0.30263239918E+02  0.74045497012E+03  0.74662143102E+03  0.00000000000E+00 0.  1.
         21    1    1    2  504  502  0.10668159314E+03 -0.39982239413E+02 -0.30595475496E+02  0.11796450697E+03  0.00000000000E+00 0. -1.
         21    1    1    2  505  503 -0.29260048866E+02  0.47734210229E+02  0.53425091240E+03  0.53717664012E+03  0.00000000000E+00 0. -1.
          1    1    1    2  501    0  0.13430724759E+02 -0.38015210733E+02 -0.62999434975E+03  0.63128315464E+03  0.00000000000E+00 0. -1.
<scales pt_clust_3="40.11138" pt_clust_4="141.37856" pt_clust_5="40.11138" pt_clust_6="40.31799"></scales>
<clustering>
<clus scale="   40.111">  3  5 -1 -1</clus>
<clus scale="   40.318">  2  6  1 -1</clus>
<clus scale="  141.379">  2  4  1 -1</clus>
<clus scale="  150.797">  1  3  2 -1</clus>
</clustering>
</event>
<event>
 6    0  0.3584505E+002  0.1160660E+03  0.7546771E-02  0.1249732E+00
         21   -1    0    0  504  502  0.00000000000E+00  0.00000000000E+00  0.44825001801E+02  0.44825001801E+02  0.00000000000E+00 0. -1.
          1   -1    0    0  505    0 -0.00000000000E+00 -0.00000000000E+00 -0.16979760591E+04  0.16979760591E+04  0.00000000000E+00 0. -1.
         21    1    1    2  503  502 -0.86368068529E+02  0.66142387027E+02 -0.34342863827E+02  0.11407756536E+03  0.00000000000E+00 0. -1.
         21    1    1    2  504  501  0.40256373520E+02 -0.25610189379E+02 -0.46745532060E+03  0.46988395819E+03  0.00000000000E+00 0. -1.
         21    1    1    2  505  503 -0.96289096546E+01 -0.38158483630E+02 -0.12675512939E+03  0.13272395640E+03  0.00000000000E+00 0.  1.
          1    1    1    2  501    0  0.55740604664E+02 -0.23737140175E+01 -0.10245977435E+04  0.10261155809E+04  0.00000000000E+00 0. -1.
<scales pt_clust_3="108.06280" pt_clust_4="39.16644" pt_clust_5="39.35462" pt_clust_6="39.16644"></scales>
<clustering>
<clus scale="   39.166">  4  6 -1 -1</clus>
<clus scale="   39.355">  2  5  1 -1</clus>
<clus scale="  108.063">  1  3  2 -1</clus>
<clus scale="  108.063">  1  3  2 -1</clus>
</clustering>
</event>
<event>
 6    0  0.3584505E+002  0.8165674E+02  0.7546771E-02  0.1324415E+00
          1   -1    0    0  503    0 -0.00000000000E+00  0.00000000000E+00  0.11296315866E+03  0.11296315866E+03  0.00000000000E+00 0.  1.
         21   -1    0    0  504  502  0.00000000000E+00 -0.00000000000E+00 -0.22786637484E+04  0.22786637484E+04  0.00000000000E+00 0.  1.
         21    1    1    2  503  505 -0.42912696535E+02  0.38144882627E+02 -0.47538427478E+02  0.74541489666E+02  0.00000000000E+00 0.  1.
         21    1    1    2  504  501 -0.38340875541E+02  0.38585777033E+02 -0.77165739882E+03  0.77357225007E+03  0.00000000000E+00 0.  1.
         21    1    1    2  505  502 -0.78148194159E+01  0.31628850401E+02 -0.13947877983E+04  0.13951682543E+04  0.00000000000E+00 0.  1.
          1    1    1    2  501    0  0.89068391491E+02 -0.10835951006E+03  0.48283034798E+02  0.14834491307E+03  0.00000000000E+00 0.  1.
<scales pt_clust_3="59.28405" pt_clust_4="81.65674" pt_clust_5="32.57999" pt_clust_6="14000.00000"></scales>
<clustering>
<clus scale="   32.580">  2  5  1 -1</clus>
<clus scale="   59.284">  1  3  2 -1</clus>
<clus scale="   81.657">  2  4  1 -1</clus>
<clus scale="   32.580">  2  3  1 -1</clus>
</clustering>
</event>
<event>
 6    0  0.3584505E+002  0.1343083E+03  0.7546771E-02  0.1221199E+00
          3   -1    0    0  503    0 -0.00000000000E+00  0.00000000000E+00  0.11874111195E+04  0.11874111195E+04  0.00000000000E+00 0.  1.
         21   -1    0    0  501  502  0.00000000000E+00 -0.00000000000E+00 -0.10963905462E+03  0.10963905462E+03  0.00000000000E+00 0.  1.
         21    1    1    2  503  504  0.31948835524E+02 -0.11927263289E+03  0.51468091336E+03  0.52928549160E+03  0.00000000000E+00 0.  1.
         21    1    1    2  504  505 -0.30514684378E+02  0.11895568238E+03  0.14002856915E+03  0.18625144432E+03  0.00000000000E+00 0.  1.
         21    1    1    2  505  502 -0.32810938351E+02  0.17705623425E+02 -0.74156692562E+02  0.83001577263E+02  0.00000000000E+00 0.  1.
          3    1    1    2  501    0  0.31376787205E+02 -0.17388672916E+02  0.49721927492E+03  0.49851166092E+03  0.00000000000E+00 0.  1.
<scales pt_clust_3="14000.00000" pt_clust_4="134.30835" pt_clust_5="37.05327" pt_clust_6="35.87295"></scales>
<clustering>
<clus scale="   35.873">  1  6  2 -1</clus>
<clus scale="   37.053">  2  5  1 -1</clus>
<clus scale="  134.308">  2  4  1 -1</clus>
<clus scale="   37.053">  2  3  1 -1</clus>
</clustering>
</event>
<event>
 6    0  0.3584505E+002  0.8307789E+02  0.7546771E-02  0.1320537E+00
          2   -1    0    0  505    0 -0.00000000000E+00  0.00000000000E+00  0.32347361590E+04  0.32347361590E+04  0.00000000000E+00 0.  1.
         21   -1    0    0  504  502  0.00000000000E+00 -0.00000000000E+00 -0.64670189030E+02  0.64670189030E+02  0.00000000000E+00 0. -1.
         21    1    1    2  503  502 -0.38609946171E+02  0.92666202797E+02  0.37659268569E+02  0.10721927809E+03  0.00000000000E+00 0. -1.
         21    1    1    2  504  501 -0.21973280214E+02 -0.22629216131E+02 -0.50026158036E+01  0.31936384125E+02  0.00000000000E+00 0. -1.
         21    1    1    2  505  503  0.83729190658E+02 -0.63349354997E+01  0.14867718270E+03  0.17075014914E+03  0.00000000000E+00 0. -1.
          2    1    1    2  501    0 -0.23145964273E+02 -0.63702051166E+02  0.29887321345E+04  0.29895005367E+04  0.00000000000E+00 0.  1.
<scales pt_clust_3="14000.00000" pt_clust_4="31.54214" pt_clust_5="83.07789" pt_clust_6="68.01610"></scales>
<clustering>
<clus scale="   31.542">  2  4  1 -1</clus>
<clus scale="   68.016">  1  6  2 -1</clus>
<clus scale="   83.078">  1  5  2 -1</clus>
<clus scale="   31.542">  2  3  1 -1</clus>
</clustering>
</event>
<event>
 6    0  0.3584505E+002  0.9548034E+02  0.7546771E-02  0.1290098E+00
          2   -1    0    0  503    0 -0.00000000000E+00  0.00000000000E+00  0.18011969190E+04  0.18011969190E+04  0.00000000000E+00 0. -1.
         21   -1    0    0  504  502  0.00000000000E+00 -0.00000000000E+00 -0.79563457117E+03  0.79563457117E+03  0.00000000000E+00 0.  1.
         21    1    1    2  503  505 -0.14346082058E+03  0.16518250134E+01  0.50359920019E+02  0.15205215260E+03  0.00000000000E+00 0.  1.
         21    1    1    2  504  501  0.45966722576E+02  0.67991170714E+01 -0.73432501415E+03  0.73579371701E+03  0.00000000000E+00 0.  1.
         21    1    1    2  505  502  0.17158471256E+02 -0.58694547138E+02  0.10412221848E+03  0.12075139494E+03  0.00000000000E+00 0.  1.
          2    1    1    2  501    0  0.80335626746E+02  0.50243605053E+02  0.15854052235E+04  0.15882342256E+04  0.00000000000E+00 0. -1.
<scales pt_clust_3="14000.00000" pt_clust_4="46.46684" pt_clust_5="62.34669" pt_clust_6="95.48034"></scales>
<clustering>
<clus scale="   46.467">  2  4  1 -1</clus>
<clus scale="   62.347">  2  5  1 -1</clus>
<clus scale="   95.480">  1  6  2 -1</clus>
<clus scale="   46.467">  2  3  1 -1</clus>
</clustering>
</event>
<event>
 6    0  0.3584505E+002  0.1008355E+03  0.7546771E-02  0.1278549E+00
         21   -1    0    0  505  502  0.00000000000E+00  0.00000000000E+00  0.92701559768E+03  0.92701559768E+03  0.00000000000E+00 0.  1.
          2   -1    0    0  504    0 -0.00000000000E+00 -0.00000000000E+00 -0.20741817779E+04  0.20741817779E+04  0.00000000000E+00 0. -1.
         21    1    1    2  503  502 -0.12546262051E+02 -0.56787883736E+02  0.17677068490E+02  0.60784464965E+02  0.00000000000E+00 0.  1.
         21    1    1    2  504  503 -0.33279863851E+02  0.69643453402E+02  0.26512849634E+02  0.81613057384E+02  0.00000000000E+00 0.  1.
         21    1    1    2  505  501 -0.47297835824E+02  0.28339782146E+02  0.83152816389E+03  0.83335425592E+03  0.00000000000E+00 0.  1.
          2    1    1    2  501    0  0.93123961726E+02 -0.41195351812E+02 -0.20228842622E+04  0.20254455973E+04  0.00000000000E+00 0. -1.
<scales pt_clust_3="55.34031" pt_clust_4="100.83551" pt_clust_5="55.13827" pt_clust_6="14000.00000"></scales>
<clustering>
<clus scale="   55.138">  1  5  2 -1</clus>
<clus scale="   55.340">  1  3  2 -1</clus>
<clus scale="  100.836">  1  4  2 -1</clus>
<clus scale="   55.138">  1  3  2 -1</clus>
</clustering>
</event>
<event>
 6    0  0.3584505E+002  0.9876381E+02  0.7546771E-02  0.1282917E+00
          2   -1    0    0  505    0 -0.00000000000E+00  0.00000000000E+00  0.10210974953E+04  0.10210974953E+04  0.00000000000E+00 0. -1.
         21   -1    0    0  503  502  0.00000000000E+00 -0.00000000000E+00 -0.11158024613E+03  0.11158024613E+03  0.00000000000E+00 0. -1.
         21    1    1    2  503  501 -0.33319438815E+02 -0.46110370477E+01  0.51261415211E+01  0.34025343385E+02  0.00000000000E+00 0. -1.
         21    1    1    2  504  502  0.11207399515E+03 -0.54132837373E+02 -0.48593822187E+02  0.13361251448E+03  0.00000000000E+00 0. -1.
         21    1    1    2  505  504 -0.37494717615E+02 -0.30829314507E+02  0.43931999672E+03  0.44199361986E+03  0.00000000000E+00 0. -1.
          2    1    1    2  501    0 -0.41259838720E+02  0.89573188927E+02  0.51366493314E+03  0.52304626373E+03  0.00000000000E+00 0. -1.
<scales pt_clust_3="33.63698" pt_clust_4="14000.00000" pt_clust_5="48.93686" pt_clust_6="98.76381"></scales>
<clustering>
<clus scale="   33.637">  2  3  1 -1</clus>
<clus scale="   48.937">  1  5  2 -1</clus>
<clus scale="   98.764">  1  6  2 -1</clus>
<clus scale="   33.637">  2  3  1 -1</clus>
</clustering>
</event>
<event>
 6    0  0.3584505E+002  0.2298677E+03  0.7546771E-02  0.1126733E+00
         21   -1    0    0  505  502  0.00000000000E+00  0.00000000000E+00  0.19421807588E+03  0.19421807588E+03  0.00000000000E+00 0. -1.
          1   -1    0    0  504    0 -0.00000000000E+00 -0.00000000000E+00 -0.19189006163E+04  0.19189006163E+04  0.00000000000E+00 0. -1.
         21    1    1    2  503  501  0.19498095530E+03 -0.15062612481E+03 -0.57655121160E+02  0.25304133141E+03  0.00000000000E+00 0. -1.
         21    1    1    2  504  502 -0.14305985937E+03  0.12212598709E+03 -0.21462011655E+03  0.28538162960E+03  0.00000000000E+00 0. -1.
         21    1    1    2  505  503  0.40877341455E+02 -0.19171243577E+02  0.50747430924E+02  0.67924924514E+02  0.00000000000E+00 0. -1.
          1    1    1    2  501    0 -0.92798437389E+02  0.47671381304E+02 -0.15031547336E+04  0.15067708067E+04  0.00000000000E+00 0. -1.
<scales pt_clust_3="14000.00000" pt_clust_4="229.86771" pt_clust_5="45.14968" pt_clust_6="103.72212"></scales>
<clustering>
<clus scale="   45.150">  1  5  2 -1</clus>
<clus scale="  103.722">  2  6  1 -1</clus>
<clus scale="  229.868">  2  4  1 -1</clus>
<clus scale="   45.150">  1  3  2 -1</clus>
</clustering>
</event>
<event>
 6    0  0.3584505E+002  0.7924669E+02  0.7546771E-02  0.1331203E+00
         21   -1    0    0  505  502  0.00000000000E+00  0.00000000000E+00  0.26645943111E+03  0.26645943111E+03  0.00000000000E+00 0.  1.
         -1   -1    0    0    0  501 -0.00000000000E+00 -0.00000000000E+00 -0.80075743263E+03  0.80075743263E+03  0.00000000000E+00 0. -1.
         21    1    1    2  503  504 -0.88753325694E+02 -0.57861446822E+02  0.17431440623E+02  0.10737297133E+03  0.00000000000E+00 0.  1.
         21    1    1    2  504  501  0.43733043905E+02  0.37168303943E+02 -0.25885160765E+03  0.26513810879E+03  0.00000000000E+00 0. -1.
         21    1    1    2  505  503  0.61375157682E+02 -0.21297860618E+02  0.19459579327E+03  0.20515367802E+03  0.00000000000E+00 0.  1.
         -1    1    1    2    0  502 -0.16354875893E+02  0.41991003497E+02 -0.48747362776E+03  0.48955210560E+03  0.00000000000E+00 0. -1.
<scales pt_clust_3="14000.00000" pt_clust_4="79.24669" pt_clust_5="64.47410" pt_clust_6="45.06358"></scales>
<clustering>
<clus scale="   45.064">  2  6  1 -1</clus>
<clus scale="   64.474">  1  5  2 -1</clus>
<clus scale="   79.247">  2  4  1 -1</clus>
<clus scale="   64.474">  1  3  2 -1</clus>
</clustering>
</event>
<event>
 6    0  0.3584505E+002  0.9323221E+02  0.7546771E-02  0.1295208E+00
          1   -1    0    0  505    0 -0.00000000000E+00  0.00000000000E+00  0.48588969341E+03  0.48588969341E+03  0.00000000000E+00 0.  1.
         21   -1    0    0  504  502  0.00000000000E+00 -0.00000000000E+00 -0.38621601141E+03  0.38621601141E+03  0.00000000000E+00 0.  1.
         21    1    1    2  503  502  0.23099812072E+02  0.53163300217E+02 -0.63679443731E+02  0.86110448620E+02  0.00000000000E+00 0. -1.
         21    1    1    2  504  501  0.55110537886E+02 -0.36935995002E+02 -0.26780694374E+03  0.27590215336E+03  0.00000000000E+00 0.  1.
         21    1    1    2  505  503 -0.29814435372E+02  0.71961574270E+02  0.11733898061E+02  0.78772159370E+02  0.00000000000E+00 0.  1.
          1    1    1    2  501    0 -0.48395914585E+02 -0.88188879485E+02  0.41942617141E+03  0.43132094348E+03  0.00000000000E+00 0.  1.
<scales pt_clust_3="57.96497" pt_clust_4="75.87747" pt_clust_5="93.23221" pt_clust_6="14000.00000"></scales>
<clustering>
<clus scale="   57.965">  2  3  1 -1</clus>
<clus scale="   75.877">  2  4  1 -1</clus>
<clus scale="   93.232">  2  5  1 -1</clus>
<clus scale="   57.965">  2  3  1 -1</clus>
</clustering>
</event>
<event>
 6    0  0.3584505E+002  0.9363131E+02  0.7546771E-02  0.1294289E+00
          1   -1    0    0  504    0 -0.00000000000E+00  0.00000000000E+00  0.61876227211E+03  0.61876227211E+03  0.00000000000E+00 0.  1.
         21   -1    0    0  501  502  0.00000000000E+00 -0.00000000000E+00 -0.61505384021E+03  0.61505384021E+03  0.00000000000E+00 0. -1.
         21    1    1    2  503  505  0.62568624557E+02 -0.28405955216E+02 -0.21838310342E+03  0.22893866193E+03  0.00000000000E+00 0. -1.
         21    1    1    2  504  503  0.56748411365E+02 -0.51165474128E+01  0.22359736980E+03  0.23074302813E+03  0.00000000000E+00 0.  1.
         21    1    1    2  505  502  0.10627158810E+02 -0.30907368799E+02 -0.37346751602E+03  0.37489490190E+03  0.00000000000E+00 0. -1.
          1    1    1    2  501    0 -0.12994419473E+03  0.64429871428E+02  0.37196168153E+03  0.39923952035E+03  0.00000000000E+00 0.  1.
<scales pt_clust_3="93.63131" pt_clust_4="57.17848" pt_clust_5="32.68336" pt_clust_6="14000.00000"></scales>
<clustering>
<clus scale="   32.683">  2  5  1 -1</clus>
<clus scale="   57.178">  1  4  2 -1</clus>
<clus scale="   93.631">  2  3  1 -1</clus>
<clus scale="   32.683">  2  3  1 -1</clus>
</clustering>
</event>
<event>
 6    0  0.3584505E+002  0.5517173E+02  0.7546771E-02  0.1419289E+00
         21   -1    0    0  501  502  0.00000000000E+00  0.00000000000E+00  0.10443856325E+03  0.10443856325E+03  0.00000000000E+00 0. -1.
          2   -1    0    0  505    0 -0.00000000000E+00 -0.00000000000E+00 -0.14987857245E+04  0.14987857245E+04  0.00000000000E+00 0. -1.
         21    1    1    2  503  502 -0.72333588642E+01  0.44344794701E+02  0.83989347027E+02  0.95252258301E+02  0.00000000000E+00 0. -1.
         21    1    1    2  504  503  0.31414166228E+02 -0.82283825345E+02 -0.15198436388E+03  0.17566082266E+03  0.00000000000E+00 0. -1.
         21    1    1    2  505  504 -0.69021470518E+02  0.30899186006E+02 -0.63840703100E+03  0.64287032932E+03  0.00000000000E+00 0. -1.
          2    1    1    2  501    0  0.44840663155E+02  0.70398446383E+01 -0.68794511340E+03  0.68944087747E+03  0.00000000000E+00 0. -1.
<scales pt_clust_3="44.93086" pt_clust_4="14000.00000" pt_clust_5="55.17173" pt_clust_6="45.43302"></scales>
<clustering>
<clus scale="   44.931">  1  3  2 -1</clus>
<clus scale="   45.433">  2  6  1 -1</clus>
<clus scale="   55.172">  2  5  1 -1</clus>
<clus scale="   44.931">  1  3  2 -1</clus>
</clustering>
</event>
<event>
 6    0  0.3584505E+002  0.8361104E+02  0.7546771E-02  0.1319105E+00
          1   -1    0    0  505    0 -0.00000000000E+00  0.00000000000E+00  0.37286618209E+03  0.37286618209E+03  0.00000000000E+00 0. -1.
         21   -1    0    0  504  502  0.00000000000E+00 -0.00000000000E+00 -0.85209793261E+03  0.85209793261E+03  0.00000000000E+00 0.  1.
         21    1    1    2  503  502  0.12461618404E-01  0.39943310491E+02 -0.75004849148E+03  0.75111131517E+03  0.00000000000E+00 0.  1.
         21    1    1    2  504  501  0.35215133325E+02  0.67268030002E+01 -0.30197035262E+02  0.46874475276E+02  0.00000000000E+00 0.  1.
         21    1    1    2  505  503  0.33882104565E+02 -0.93882767452E+02 -0.14224606743E+02  0.10081820506E+03  0.00000000000E+00 0.  1.
          1    1    1    2  501    0 -0.69109699508E+02  0.47212653961E+02  0.31523838296E+03  0.32616011919E+03  0.00000000000E+00 0. -1.
<scales pt_clust_3="56.44558" pt_clust_4="35.85185" pt_clust_5="83.61104" pt_clust_6="14000.00000"></scales>
<clustering>
<clus scale="   35.852">  2  4  1 -1</clus>
<clus scale="   56.446">  2  3  1 -1</clus>
<clus scale="   83.611">  2  5  1 -1</clus>
<clus scale="   35.852">  2  3  1 -1</clus>
</clustering>
</event>
<event>
 6    0  0.3584505E+002  0.5855206E+02  0.7546771E-02  0.1404011E+00
          2   -1    0    0  503    0 -0.00000000000E+00  0.00000000000E+00  0.23855433118E+04  0.23855433118E+04  0.00000000000E+00 0.  1.
         21   -1    0    0  504  502  0.00000000000E+00 -0.00000000000E+00 -0.13162215717E+03  0.13162215717E+03  0.00000000000E+00 0.  1.
         21    1    1    2  503  505 -0.70651931922E+02  0.51374302798E+02  0.79281258011E+03  0.79761068301E+03  0.00000000000E+00 0. -1.
         21    1    1    2  504  501 -0.22733668092E+02  0.32015852427E+02 -0.85904271086E+02  0.94453047925E+02  0.00000000000E+00 0.  1.
         21    1    1    2  505  502  0.72398467344E+02 -0.56031006925E+02  0.15080819919E+02  0.92781695071E+02  0.00000000000E+00 0.  1.
          2    1    1    2  501    0  0.20987132670E+02 -0.27359148299E+02  0.15319320256E+04  0.15323200429E+04  0.00000000000E+00 0.  1.
<scales pt_clust_3="58.55206" pt_clust_4="39.09362" pt_clust_5="14000.00000" pt_clust_6="34.48163"></scales>
<clustering>
<clus scale="   34.482">  1  6  2 -1</clus>
<clus scale="   39.094">  2  4  1 -1</clus>
<clus scale="   58.552">  1  3  2 -1</clus>
<clus scale="   39.094">  2  3  1 -1</clus>
</clustering>
</event>
<event>
 6    0  0.3584505E+002  0.8873492E+02  0.7546771E-02  0.1305945E+00
         21   -1    0    0  504  502  0.00000000000E+00  0.00000000000E+00  0.15548573423E+03  0.15548573423E+03  0.00000000000E+00 0.  1.
          2   -1    0    0  505    0 -0.00000000000E+00 -0.00000000000E+00 -0.33851512460E+04  0.33851512460E+04  0.00000000000E+00 0.  1.
         21    1    1    2  503  502 -0.23332132585E+02  0.55111177823E+02 -0.65944318559E+02  0.89052139122E+02  0.00000000000E+00 0.  1.
         21    1    1    2  504  501 -0.64459804344E+02 -0.45343003377E+02  0.12962248942E+03  0.15170050789E+03  0.00000000000E+00 0.  1.
         21    1    1    2  505  503  0.12115077421E+03 -0.27705114356E+02 -0.31189528475E+04  0.31214278701E+04  0.00000000000E+00 0.  1.
          2    1    1    2  501    0 -0.33358837280E+02  0.17936939910E+02 -0.17439083513E+03  0.17845646308E+03  0.00000000000E+00 0.  1.
<scales pt_clust_3="60.56249" pt_clust_4="88.73492" pt_clust_5="14000.00000" pt_clust_6="37.87540"></scales>
<clustering>
<clus scale="   37.875">  2  6  1 -1</clus>
<clus scale="   60.562">  1  3  2 -1</clus>
<clus scale="   88.735">  1  4  2 -1</clus>
<clus scale="   60.562">  1  3  2 -1</clus>
</clustering>
</event>
<event>
 6    0  0.3584505E+002  0.9806248E+02  0.7546771E-02  0.1284424E+00
         21   -1    0    0  504  502  0.00000000000E+00  0.00000000000E+00  0.74334927181E+02  0.74334927181E+02  0.00000000000E+00 0. -1.
          2   -1    0    0  503    0 -0.00000000000E+00 -0.00000000000E+00 -0.16892920861E+04  0.16892920861E+04  0.00000000000E+00 0. -1.
         21    1    1    2  503  505 -0.67716764703E+02 -0.38231589603E+02 -0.21966311962E+03  0.23302167450E+03  0.00000000000E+00 0. -1.
         21    1    1    2  504  501  0.12976208364E+03  0.31492962021E+02 -0.24992334193E+02  0.13584778900E+03  0.00000000000E+00 0. -1.
         21    1    1    2  505  502 -0.31187921789E+02 -0.13789404572E+02 -0.12300979591E+02  0.36251182641E+02  0.00000000000E+00 0. -1.
          2    1    1    2  501    0 -0.30857397149E+02  0.20528032155E+02 -0.13580007256E+04  0.13585063672E+04  0.00000000000E+00 0. -1.
<scales pt_clust_3="98.06248" pt_clust_4="14000.00000" pt_clust_5="34.10035" pt_clust_6="37.13632"></scales>
<clustering>
<clus scale="   34.100">  1  5  2 -1</clus>
<clus scale="   37.136">  2  6  1 -1</clus>
<clus scale="   98.062">  2  3  1 -1</clus>
<clus scale="   34.100">  1  3  2 -1</clus>
</clustering>
</event>
<event>
 6    0  0.3584505E+002  0.9658433E+02  0.7546771E-02  0.1287647E+00
         -1   -1    0    0    0  501 -0.00000000000E+00  0.00000000000E+00  0.58037370095E+03  0.58037370095E+03  0.00000000000E+00 0. -1.
         21   -1    0    0  504  502  0.00000000000E+00 -0.00000000000E+00 -0.96594754457E+02  0.96594754457E+02  0.00000000000E+00 0.  1.
         21    1    1    2  503  502 -0.11546807486E+03  0.78523323121E+01  0.91450776793E+02  0.14750518638E+03  0.00000000000E+00 0.  1.
         21    1    1    2  504  505  0.14148576154E+02 -0.28941209321E+02 -0.56520022256E+02  0.65056042917E+02  0.00000000000E+00 0.  1.
         21    1    1    2  505  501  0.35172397776E+02  0.26663906156E+02  0.10011577577E+03  0.10941311628E+03  0.00000000000E+00 0. -1.
         -1    1    1    2    0  503  0.66147100925E+02 -0.55750291471E+01  0.34873241619E+03  0.35499410983E+03  0.00000000000E+00 0. -1.
<scales pt_clust_3="96.58433" pt_clust_4="32.21453" pt_clust_5="43.52466" pt_clust_6="14000.00000"></scales>
<clustering>
<clus scale="   32.215">  2  4  1 -1</clus>
<clus scale="   43.525">  1  5  2 -1</clus>
<clus scale="   96.584">  2  3  1 -1</clus>
<clus scale="   32.215">  2  3  1 -1</clus>
</clustering>
</event>
<event>
 6    0  0.3584505E+002  0.7228696E+02  0.7546771E-02  0.1352484E+00
         21   -1    0    0  505  502  0.00000000000E+00  0.00000000000E+00  0.11986389614E+03  0.11986389614E+03  0.00000000000E+00 0. -1.
          2   -1    0    0  504    0 -0.00000000000E+00 -0.00000000000E+00 -0.54427653750E+03  0.54427653750E+03  0.00000000000E+00 0.  1.
         21    1    1    2  503  502  0.29125168469E+02 -0.31995971830E+02 -0.28881869219E+01  0.43363109614E+02  0.00000000000E+00 0.  1.
         21    1    1    2  504  503 -0.41694983977E+02 -0.25517122215E+02 -0.15343469898E+01  0.48907560107E+02  0.00000000000E+00 0. -1.
         21    1    1    2  505  501  0.79341599544E+02  0.81941812978E+02  0.28672769340E+02  0.11760815377E+03  0.00000000000E+00 0. -1.
          2    1    1    2  501    0 -0.66771784037E+02 -0.24428718933E+02 -0.44866287678E+03  0.45426161015E+03  0.00000000000E+00 0.  1.
<scales pt_clust_3="43.26682" pt_clust_4="48.02288" pt_clust_5="72.28696" pt_clust_6="14000.00000"></scales>
<clustering>
<clus scale="   43.267">  1  3  2 -1</clus>
<clus scale="   48.023">  1  4  2 -1</clus>
<clus scale="   72.287">  1  5  2 -1</clus>
<clus scale="   43.267">  1  3  2 -1</clus>
</clustering>
</event>
<event>
 6    0  0.3584505E+002  0.1757461E+03  0.7546771E-02  0.1171985E+00
          1   -1    0    0  505    0 -0.00000000000E+00  0.00000000000E+00  0.17628774926E+04  0.17628774926E+04  0.00000000000E+00 0. -1.
         21   -1    0    0  503  502  0.00000000000E+00 -0.00000000000E+00 -0.61135536628E+03  0.61135536628E+03  0.00000000000E+00 0.  1.
         21    1    1    2  503  504 -0.25763101089E+02  0.24982691894E+02 -0.14554313112E+03  0.14990221909E+03  0.00000000000E+00 0.  1.
         21    1    1    2  504  501  0.12247026787E+03  0.17686545257E+03 -0.37326861747E+03  0.43082457638E+03  0.00000000000E+00 0.  1.
         21    1    1    2  505  502  0.54244090162E+01 -0.59363024002E+02 -0.41554512740E+02  0.72664780747E+02  0.00000000000E+00 0.  1.
          1    1    1    2  501    0 -0.10213157580E+03 -0.14248512046E+03  0.17118883877E+04  0.17208412827E+04  0.00000000000E+00 0. -1.
<scales pt_clust_3="35.88694" pt_clust_4="175.74610" pt_clust_5="56.33068" pt_clust_6="14000.00000"></scales>
<clustering>
<clus scale="   35.887">  2  3  1 -1</clus>
<clus scale="   56.331">  2  5  1 -1</clus>
<clus scale="  175.746">  2  4  1 -1</clus>
<clus scale="   35.887">  2  3  1 -1</clus>
</clustering>
</event>
<event>
 6    0  0.3584505E+002  0.7488215E+02  0.7546771E-02  0.1344236E+00
         21   -1    0    0  503  502  0.00000000000E+00  0.00000000000E+00  0.11246932411E+04  0.11246932411E+04  0.00000000000E+00 0.  1.
         -2   -1    0    0    0  501 -0.00000000000E+00 -0.00000000000E+00 -0.44104015164E+02  0.44104015164E+02  0.00000000000E+00 0.  1.
         21    1    1    2  503  505  0.17037787314E+02  0.65998882333E+02  0.63260155530E+03  0.63626320532E+03  0.00000000000E+00 0.  1.
         21    1    1    2  504  502 -0.14766781832E+02 -0.10001256916E+03  0.35638940652E+03  0.37045105064E+03  0.00000000000E+00 0. -1.
         21    1    1    2  505  501  0.25212442971E+02  0.55083695381E+02  0.10794961705E+03  0.12378610826E+03  0.00000000000E+00 0.  1.
         -2    1    1    2    0  504 -0.27483448453E+02 -0.21070008558E+02 -0.16351352925E+02  0.38296892067E+02  0.00000000000E+00 0.  1.
<scales pt_clust_3="74.88215" pt_clust_4="14000.00000" pt_clust_5="46.77187" pt_clust_6="34.63070"></scales>
<clustering>
<clus scale="   34.631">  2  6  1 -1</clus>
<clus scale="   46.772">  2  5  1 -1</clus>
<clus scale="   74.882">  1  3  2 -1</clus>
<clus scale="   74.882">  1  3  2 -1</clus>
</clustering>
</event>
<event>
 6    0  0.3584505E+002  0.8213504E+02  0.7546771E-02  0.1323099E+00
         21   -1    0    0  503  502  0.00000000000E+00  0.00000000000E+00  0.17062893154E+03  0.17062893154E+03  0.00000000000E+00 0.  1.
         -4   -1    0    0    0  501 -0.00000000000E+00 -0.00000000000E+00 -0.32787722985E+03  0.32787722985E+03  0.00000000000E+00 0.  1.
         21    1    1    2  503  504 -0.19651643861E+02  0.24181849492E+02  0.64130383476E+02  0.71299754810E+02  0.00000000000E+00 0.  1.
         21    1    1    2  504  505 -0.20767298179E+02 -0.65985549148E+02  0.60344348702E+02  0.91797678567E+02  0.00000000000E+00 0.  1.
         21    1    1    2  505  501 -0.55697715361E+02  0.30577588792E+02 -0.40117508446E+02  0.75144120972E+02  0.00000000000E+00 0.  1.
         -4    1    1    2    0  502  0.96116657401E+02  0.11226110864E+02 -0.24160552204E+03  0.26026460704E+03  0.00000000000E+00 0.  1.
<scales pt_clust_3="31.16005" pt_clust_4="59.66810" pt_clust_5="82.13504" pt_clust_6="14000.00000"></scales>
<clustering>
<clus scale="   31.160">  1  3  2 -1</clus>
<clus scale="   59.668">  1  4  2 -1</clus>
<clus scale="   82.135">  1  5  2 -1</clus>
<clus scale="   31.160">  1  3  2 -1</clus>
</clustering>
</event>
<event>
 6    0  0.3584505E+002  0.1842847E+03  0.7546771E-02  0.1163720E+00
          4   -1    0    0  504    0 -0.00000000000E+00  0.00000000000E+00  0.29848321501E+03  0.29848321501E+03  0.00000000000E+00 0. -1.
         21   -1    0    0  503  502  0.00000000000E+00 -0.00000000000E+00 -0.95780781152E+03  0.95780781152E+03  0.00000000000E+00 0. -1.
         21    1    1    2  503  505  0.12381211738E+03 -0.44010746433E+02 -0.72830605357E+02  0.15023542621E+03  0.00000000000E+00 0. -1.
         21    1    1    2  504  502 -0.20266587192E+03 -0.45757175004E+02 -0.81621332243E+03  0.84224186693E+03  0.00000000000E+00 0. -1.
         21    1    1    2  505  501  0.13506221566E+02  0.29599972993E+02  0.26267738880E+02  0.41815912378E+02  0.00000000000E+00 0. -1.
          4    1    1    2  501    0  0.65347532973E+02  0.60167948444E+02  0.20345159239E+03  0.22199782100E+03  0.00000000000E+00 0. -1.
<scales pt_clust_3="14000.00000" pt_clust_4="184.28473" pt_clust_5="30.56463" pt_clust_6="129.71783"></scales>
<clustering>
<clus scale="   30.565">  5  6 -1 -1</clus>
<clus scale="  129.718">  1  5  2 -1</clus>
<clus scale="  184.285">  2  4  1 -1</clus>
<clus scale="  184.285">  2  3  1 -1</clus>
</clustering>
</event>
<event>
 6    0  0.3584505E+002  0.1728268E+03  0.7546771E-02  0.1174932E+00
         21   -1    0    0  503  502  0.00000000000E+00  0.00000000000E+00  0.23228709050E+03  0.23228709050E+03  0.00000000000E+00 0.  1.
          1   -1    0    0  504    0 -0.00000000000E+00 -0.00000000000E+00 -0.16523244969E+04  0.16523244969E+04  0.00000000000E+00 0.  1.
         21    1    1    2  503  501 -0.95114166740E+02 -0.84205021299E+02 -0.33614618800E+03  0.35934864691E+03  0.00000000000E+00 0.  1.
         21    1    1    2  504  505  0.17396674871E+03  0.80357867254E+02  0.20542425449E+02  0.19272728849E+03  0.00000000000E+00 0.  1.
         21    1    1    2  505  502  0.63637298315E+01 -0.34787273958E+02  0.10946531772E+03  0.11503611290E+03  0.00000000000E+00 0.  1.
          1    1    1    2  501    0 -0.85216311801E+02  0.38634428002E+02 -0.12138989615E+04  0.12174995391E+04  0.00000000000E+00 0.  1.
<scales pt_clust_3="14000.00000" pt_clust_4="172.82679" pt_clust_5="35.36455" pt_clust_6="93.26382"></scales>
<clustering>
<clus scale="   35.365">  1  5  2 -1</clus>
<clus scale="   93.264">  2  6  1 -1</clus>
<clus scale="  172.827">  1  4  2 -1</clus>
<clus scale="   35.365">  1  3  2 -1</clus>
</clustering>
</event>
<event>
 6    0  0.3584505E+002  0.7777520E+02  0.7546771E-02  0.1335486E+00
          1   -1    0    0  505    0 -0.00000000000E+00  0.00000000000E+00  0.22286537861E+04  0.22286537861E+04  0.00000000000E+00 0.  1.
         21   -1    0    0  504  502  0.00000000000E+00 -0.00000000000E+00 -0.65924718249E+02  0.65924718249E+02  0.00000000000E+00 0. -1.
         21    1    1    2  503  502  0.46278832602E+02 -0.14901934772E+02  0.14244749813E+02  0.50662717103E+02  0.00000000000E+00 0.  1.
         21    1    1    2  504  501  0.20073948735E+02  0.56119442327E+02 -0.25410463214E+02  0.64792336473E+02  0.00000000000E+00 0. -1.
         21    1    1    2  505  503 -0.10267228900E+03 -0.44711388137E+02  0.17896211157E+04  0.17931214251E+04  0.00000000000E+00 0.  1.
          1    1    1    2  501    0  0.36319507661E+02  0.34938805819E+01  0.38427366555E+03  0.38600202574E+03  0.00000000000E+00 0.  1.
<scales pt_clust_3="49.20932" pt_clust_4="77.77520" pt_clust_5="14000.00000" pt_clust_6="36.48717"></scales>
<clustering>
<clus scale="   36.487">  1  6  2 -1</clus>
<clus scale="   49.209">  2  3  1 -1</clus>
<clus scale="   77.775">  2  4  1 -1</clus>
<clus scale="   49.209">  2  3  1 -1</clus>
</clustering>
</event>
<event>
 6    0  0.3584505E+002  0.6926210E+02  0.7546771E-02  0.1362620E+00
         21   -1    0    0  505  502  0.00000000000E+00  0.00000000000E+00  0.22928878610E+04  0.22928878610E+04  0.00000000000E+00 0. -1.
          1   -1    0    0  503    0 -0.00000000000E+00 -0.00000000000E+00 -0.34477254769E+03  0.34477254769E+03  0.00000000000E+00 0.  1.
         21    1    1    2  503  504 -0.96349624266E+02  0.41041071013E+02 -0.17436678530E+03  0.20339959543E+03  0.00000000000E+00 0.  1.
         21    1    1    2  504  502 -0.60673490309E+02  0.27198419600E+02  0.19324775674E+04  0.19336211043E+04  0.00000000000E+00 0. -1.
         21    1    1    2  505  501  0.11032234280E+03 -0.60910258585E+02  0.32980586328E+03  0.35306229815E+03  0.00000000000E+00 0. -1.
          1    1    1    2  501    0  0.46700771774E+02 -0.73292320285E+01 -0.13980133208E+03  0.14757741080E+03  0.00000000000E+00 0.  1.
<scales pt_clust_3="62.61832" pt_clust_4="69.26210" pt_clust_5="14000.00000" pt_clust_6="47.27240"></scales>
<clustering>
<clus scale="   47.272">  2  6  1 -1</clus>
<clus scale="   62.618">  2  3  1 -1</clus>
<clus scale="   69.262">  1  4  2 -1</clus>
<clus scale="   69.262">  1  3  2 -1</clus>
</clustering>
</event>
<event>
 6    0  0.3584505E+002  0.7755109E+02  0.7546771E-02  0.1336148E+00
         21   -1    0    0  505  502  0.00000000000E+00  0.00000000000E+00  0.10244668953E+04  0.10244668953E+04  0.00000000000E+00 0.  1.
          1   -1    0    0  503    0 -0.00000000000E+00 -0.00000000000E+00 -0.10470611841E+04  0.10470611841E+04  0.00000000000E+00 0.  1.
         21    1    1    2  503  502 -0.74138971368E+02  0.14244980799E+02  0.55012870350E+02  0.93412646134E+02  0.00000000000E+00 0. -1.
         21    1    1    2  504  501  0.95185460512E+02  0.84902734822E+01 -0.14173181153E+02  0.96608673009E+02  0.00000000000E+00 0.  1.
         21    1    1    2  505  504 -0.75691379293E+02 -0.14314119797E+02  0.90661580503E+03  0.90988257312E+03  0.00000000000E+00 0.  1.
          1    1    1    2  501    0  0.54644890150E+02 -0.84211344836E+01 -0.97004978304E+03  0.97162418717E+03  0.00000000000E+00 0.  1.
<scales pt_clust_3="61.57989" pt_clust_4="14000.00000" pt_clust_5="77.55109" pt_clust_6="55.28996"></scales>
<clustering>
<clus scale="   55.290">  2  6  1 -1</clus>
<clus scale="   61.580">  2  3  1 -1</clus>
<clus scale="   77.551">  1  5  2 -1</clus>
<clus scale="   77.551">  1  3  2 -1</clus>
</clustering>
</event>
<event>
 6    0  0.3584505E+002  0.1907867E+03  0.7546771E-02  0.1157754E+00
          1   -1    0    0  503    0 -0.00000000000E+00  0.00000000000E+00  0.15283683319E+04  0.15283683319E+04  0.00000000000E+00 0. -1.
         21   -1    0    0  504  502  0.00000000000E+00 -0.00000000000E+00 -0.51064639216E+03  0.51064639216E+03  0.00000000000E+00 0.  1.
         21    1    1    2  503  505  0.17296289771E+03 -0.58643830430E+02  0.92584729626E+03  0.94368876162E+03  0.00000000000E+00 0. -1.
         21    1    1    2  504  501  0.33464652808E+02  0.73869373161E+02  0.94535555087E+02  0.12455335585E+03  0.00000000000E+00 0. -1.
         21    1    1    2  505  502 -0.18470961412E+03 -0.50828188482E+02 -0.46689437280E+03  0.50466969559E+03  0.00000000000E+00 0.  1.
          1    1    1    2  501    0 -0.21717936396E+02  0.35602645751E+02  0.46423346117E+03  0.46610291098E+03  0.00000000000E+00 0. -1.
<scales pt_clust_3="14000.00000" pt_clust_4="83.58951" pt_clust_5="190.78666" pt_clust_6="41.70392"></scales>
<clustering>
<clus scale="   41.704">  1  6  2 -1</clus>
<clus scale="   83.590">  1  4  2 -1</clus>
<clus scale="  190.787">  2  5  1 -1</clus>
<clus scale="  190.787">  2  3  1 -1</clus>
</clustering>
</event>
<event>
 6    0  0.3584505E+002  0.1028299E+03  0.7546771E-02  0.1274455E+00
          2   -1    0    0  504    0 -0.00000000000E+00  0.00000000000E+00  0.13962894536E+03  0.13962894536E+03  0.00000000000E+00 0.  1.
         21   -1    0    0  505  502  0.00000000000E+00 -0.00000000000E+00 -0.13262970021E+04  0.13262970021E+04  0.00000000000E+00 0.  1.
         21    1    1    2  503  501  0.32284170778E+02  0.62983608555E+02 -0.17592386472E+02  0.72929381536E+02  0.00000000000E+00 0.  1.
         21    1    1    2  504  502 -0.94132876149E+02 -0.51365411993E+02 -0.88872940998E+02  0.13927599780E+03  0.00000000000E+00 0.  1.
         21    1    1    2  505  503  0.10247466079E+03 -0.20960373611E+02 -0.11594604306E+04  0.11641687522E+04  0.00000000000E+00 0.  1.
          2    1    1    2  501    0 -0.40625955418E+02  0.93421770486E+01  0.79257701325E+02  0.89551815978E+02  0.00000000000E+00 0.  1.
<scales pt_clust_3="68.70784" pt_clust_4="102.82992" pt_clust_5="14000.00000" pt_clust_6="41.68626"></scales>
<clustering>
<clus scale="   41.686">  1  6  2 -1</clus>
<clus scale="   68.708">  1  3  2 -1</clus>
<clus scale="  102.830">  1  4  2 -1</clus>
<clus scale="  102.830">  2  3  1 -1</clus>
</clustering>
</event>
<event>
 6    0  0.3584505E+002  0.1077626E+03  0.7546771E-02  0.1264770E+00
         21   -1    0    0  505  502  0.00000000000E+00  0.00000000000E+00  0.18083868012E+03  0.18083868012E+03  0.00000000000E+00 0. -1.
          1   -1    0    0  503    0 -0.00000000000E+00 -0.00000000000E+00 -0.17658313375E+04  0.17658313375E+04  0.00000000000E+00 0.  1.
         21    1    1    2  503  504  0.93568268705E+02  0.20285613740E+02 -0.35622095338E+03  0.36886297545E+03  0.00000000000E+00 0.  1.
         21    1    1    2  504  502 -0.55723453312E+02 -0.39540671083E+02  0.15556805956E+03  0.16991170964E+03  0.00000000000E+00 0. -1.
         21    1    1    2  505  501 -0.29557710801E+02 -0.36720707857E+02 -0.38490719177E+02  0.60857243744E+02  0.00000000000E+00 0. -1.
          1    1    1    2  501    0 -0.82871045923E+01  0.55975765200E+02 -0.13458490444E+04  0.13470380888E+04  0.00000000000E+00 0.  1.
<scales pt_clust_3="14000.00000" pt_clust_4="107.76258" pt_clust_5="47.13882" pt_clust_6="56.47389"></scales>
<clustering>
<clus scale="   47.139">  1  5  2 -1</clus>
<clus scale="   56.474">  2  6  1 -1</clus>
<clus scale="  107.763">  1  4  2 -1</clus>
<clus scale="   47.139">  1  3  2 -1</clus>
</clustering>
</event>
<event>
 6    0  0.3584505E+002  0.9664797E+02  0.7546771E-02  0.1287507E+00
         -1   -1    0    0    0  501 -0.00000000000E+00  0.00000000000E+00  0.11199224669E+04  0.11199224669E+04  0.00000000000E+00 0. -1.
         21   -1    0    0  504  502  0.00000000000E+00 -0.00000000000E+00 -0.26093196397E+03  0.26093196397E+03  0.00000000000E+00 0. -1.
         21    1    1    2  503  501 -0.76233573188E+02  0.92892450268E+02  0.11309107974E+03  0.16501562748E+03  0.00000000000E+00 0.  1.
         21    1    1    2  504  503  0.89962773856E+02 -0.22303250689E+02 -0.23537776432E+01  0.92716103997E+02  0.00000000000E+00 0. -1.
         21    1    1    2  505  502 -0.46559056659E+02  0.18570177983E+02 -0.18161890833E+03  0.18840919598E+03  0.00000000000E+00 0. -1.
         -1    1    1    2    0  505  0.32829855991E+02 -0.89159377562E+02  0.92987210920E+03  0.93471350344E+03  0.00000000000E+00 0. -1.
<scales pt_clust_3="96.64797" pt_clust_4="61.74047" pt_clust_5="50.12581" pt_clust_6="14000.00000"></scales>
<clustering>
<clus scale="   50.126">  2  5  1 -1</clus>
<clus scale="   61.740">  2  4  1 -1</clus>
<clus scale="   96.648">  2  3  1 -1</clus>
<clus scale="   50.126">  2  3  1 -1</clus>
</clustering>
</event>
<event>
 6    0  0.3584505E+002  0.1044025E+03  0.7546771E-02  0.1271301E+00
          2   -1    0    0  505    0 -0.00000000000E+00  0.00000000000E+00  0.10422818813E+04  0.10422818813E+04  0.00000000000E+00 0.  1.
         21   -1    0    0  503  502  0.00000000000E+00 -0.00000000000E+00 -0.31076285958E+03  0.31076285958E+03  0.00000000000E+00 0.  1.
         21    1    1    2  503  504  0.47970323048E+02 -0.60976157630E+02  0.13561920742E+01  0.77595637439E+02  0.00000000000E+00 0.  1.
         21    1    1    2  504  501  0.25431906117E+02  0.33023719572E+02  0.22100827023E+02  0.47178326149E+02  0.00000000000E+00 0.  1.
         21    1    1    2  505  502 -0.10052239738E+03  0.55116184700E+02 -0.24706815458E+03  0.27236963708E+03  0.00000000000E+00 0.  1.
          2    1    1    2  501    0  0.27120168219E+02 -0.27163746643E+02  0.95513015720E+03  0.95590114020E+03  0.00000000000E+00 0.  1.
<scales pt_clust_3="14000.00000" pt_clust_4="42.50453" pt_clust_5="104.40249" pt_clust_6="38.38454"></scales>
<clustering>
<clus scale="   38.385">  1  6  2 -1</clus>
<clus scale="   42.505">  1  4  2 -1</clus>
<clus scale="  104.402">  2  5  1 -1</clus>
<clus scale="  104.402">  2  3  1 -1</clus>
</clustering>
</event>
<event>
 6    0  0.3584505E+002  0.3423714E+03  0.7546771E-02  0.1065790E+00
          2   -1    0    0  505    0 -0.00000000000E+00  0.00000000000E+00  0.25480688309E+04  0.25480688309E+04  0.00000000000E+00 0.  1.
         21   -1    0    0  504  502  0.00000000000E+00 -0.00000000000E+00 -0.80537435198E+03  0.80537435198E+03  0.00000000000E+00 0.  1.
         21    1    1    2  503  501 -0.10789448286E+03  0.10986697246E+03 -0.31792112801E+03  0.35325035698E+03  0.00000000000E+00 0.  1.
         21    1    1    2  504  503  0.19094392649E+02  0.48376986589E+02 -0.37269526561E+03  0.37630664314E+03  0.00000000000E+00 0.  1.
         21    1    1    2  505  502 -0.25913339098E+03 -0.63316707793E+02  0.13785601642E+03  0.30027221162E+03  0.00000000000E+00 0.  1.
          2    1    1    2  501    0  0.34793348119E+03 -0.94927251258E+02  0.22954548561E+04  0.23236139711E+04  0.00000000000E+00 0.  1.
<scales pt_clust_3="174.42157" pt_clust_4="52.00893" pt_clust_5="14000.00000" pt_clust_6="342.37138"></scales>
<clustering>
<clus scale="   52.009">  2  4  1 -1</clus>
<clus scale="  174.422">  2  3  1 -1</clus>
<clus scale="  342.371">  1  6  2 -1</clus>
<clus scale="   52.009">  2  3  1 -1</clus>
</clustering>
</event>
<event>
 6    0  0.3584505E+002  0.1043660E+03  0.7546771E-02  0.1271374E+00
         21   -1    0    0  505  502  0.00000000000E+00  0.00000000000E+00  0.51310712466E+03  0.51310712466E+03  0.00000000000E+00 0.  1.
          2   -1    0    0  504    0 -0.00000000000E+00 -0.00000000000E+00 -0.60036729813E+03  0.60036729813E+03  0.00000000000E+00 0.  1.
         21    1    1    2  503  501 -0.41241842010E+02  0.71260704677E+02 -0.16869845037E+03  0.18771825889E+03  0.00000000000E+00 0.  1.
         21    1    1    2  504  502 -0.41543336540E+02 -0.14384275522E+03  0.46358366521E+03  0.48716157657E+03  0.00000000000E+00 0.  1.
         21    1    1    2  505  503  0.40715590606E+02  0.34342233213E+02 -0.10430749313E+01  0.53275100242E+02  0.00000000000E+00 0.  1.
          2    1    1    2  501    0  0.42069587944E+02  0.38239817333E+02 -0.38110231338E+03  0.38531948708E+03  0.00000000000E+00 0.  1.
<scales pt_clust_3="14000.00000" pt_clust_4="104.36605" pt_clust_5="53.26489" pt_clust_6="57.08233"></scales>
<clustering>
<clus scale="   53.265">  1  5  2 -1</clus>
<clus scale="   57.082">  2  6  1 -1</clus>
<clus scale="  104.366">  1  4  2 -1</clus>
<clus scale="   53.265">  1  3  2 -1</clus>
</clustering>
</event>
<event>
 6    0  0.3584505E+002  0.1275415E+03  0.7546771E-02  0.1231150E+00
         21   -1    0    0  505  502  0.00000000000E+00  0.00000000000E+00  0.47936106290E+02  0.47936106290E+02  0.00000000000E+00 0.  1.
          2   -1    0    0  503    0 -0.00000000000E+00 -0.00000000000E+00 -0.29702958572E+04  0.29702958572E+04  0.00000000000E+00 0.  1.
         21    1    1    2  503  502  0.75477029210E+02 -0.44223045230E+02 -0.29002280988E+03  0.30292852278E+03  0.00000000000E+00 0.  1.
         21    1    1    2  504  501 -0.19213331398E+03  0.58007517923E+01 -0.44463867990E+03  0.48440934624E+03  0.00000000000E+00 0.  1.
         21    1    1    2  505  504  0.35675233845E+02  0.21320243372E+01  0.52750021463E+01  0.36126077635E+02  0.00000000000E+00 0. -1.
          2    1    1    2  501    0  0.80981050923E+02  0.36290269101E+02 -0.21929732632E+04  0.21947680168E+04  0.00000000000E+00 0.  1.
<scales pt_clust_3="127.54153" pt_clust_4="14000.00000" pt_clust_5="35.73888" pt_clust_6="89.84308"></scales>
<clustering>
<clus scale="   35.739">  1  5  2 -1</clus>
<clus scale="   89.843">  2  6  1 -1</clus>
<clus scale="  127.542">  2  3  1 -1</clus>
<clus scale="   35.739">  1  3  2 -1</clus>
</clustering>
</event>
<event>
 6    0  0.3584505E+002  0.1207941E+03  0.7546771E-02  0.1241793E+00
         21   -1    0    0  505  502  0.00000000000E+00  0.00000000000E+00  0.17586177889E+03  0.17586177889E+03  0.00000000000E+00 0. -1.
          2   -1    0    0  504    0 -0.00000000000E+00 -0.00000000000E+00 -0.30358907082E+04  0.30358907082E+04  0.00000000000E+00 0. -1.
         21    1    1    2  503  502  0.36428743490E+02  0.16367835277E+02  0.44502347745E+02  0.59794801937E+02  0.00000000000E+00 0. -1.
         21    1    1    2  504  503 -0.46219658441E+02  0.10763146589E+03  0.70941716467E+02  0.13694347889E+03  0.00000000000E+00 0. -1.
         21    1    1    2  505  501  0.61300705118E+02 -0.10650660100E+03 -0.17403657334E+03  0.21304966877E+03  0.00000000000E+00 0. -1.
          2    1    1    2  501    0 -0.51509790168E+02 -0.17492700172E+02 -0.28014364202E+04  0.28019645375E+04  0.00000000000E+00 0. -1.
<scales pt_clust_3="39.93694" pt_clust_4="120.79412" pt_clust_5="14000.00000" pt_clust_6="54.31416"></scales>
<clustering>
<clus scale="   39.937">  1  3  2 -1</clus>
<clus scale="   54.314">  2  6  1 -1</clus>
<clus scale="  120.794">  1  4  2 -1</clus>
<clus scale="   39.937">  1  3  2 -1</clus>
</clustering>
</event>
<event>
 6    0  0.3816432E+002  0.1236579E+03  0.7546771E-02  0.1237182E+00
         21   -1    0    0  503  502  0.00000000000E+00  0.00000000000E+00  0.20682543385E+04  0.20682543385E+04  0.00000000000E+00 0.  1.
          2   -1    0    0  502    0 -0.00000000000E+00 -0.00000000000E+00 -0.66610352675E+03  0.66610352675E+03  0.00000000000E+00 0. -1.
         21    1    1    2  503  505 -0.41435249769E+02  0.16277995852E+02  0.12733635218E+04  0.12741414803E+04  0.00000000000E+00 0.  1.
         21    1    1    2  504  501  0.10376515741E+03 -0.66130712260E+02 -0.21787306241E+02  0.12496065665E+03  0.00000000000E+00 0. -1.
         21    1    1    2  505  504 -0.86360160391E+02 -0.78335294336E+01  0.73872385262E+03  0.74379592088E+03  0.00000000000E+00 0. -1.
          2    1    1    2  501    0  0.24030252745E+02  0.57686245842E+02 -0.58814925643E+03  0.59145980747E+03  0.00000000000E+00 0. -1.
<scales pt_clust_3="44.51801" pt_clust_4="14000.00000" pt_clust_5="123.65788" pt_clust_6="62.48943"></scales>
<clustering>
<clus scale="   44.518">  1  3  2 -1</clus>
<clus scale="   62.489">  2  6  1 -1</clus>
<clus scale="  123.658">  1  5  2 -1</clus>
<clus scale="   44.518">  1  3  2 -1</clus>
</clustering>
</event>
<event>
 6    0  0.3584505E+002  0.1288457E+03  0.7546771E-02  0.1229179E+00
          2   -1    0    0  505    0 -0.00000000000E+00  0.00000000000E+00  0.11555412148E+04  0.11555412148E+04  0.00000000000E+00 0. -1.
         21   -1    0    0  504  502  0.00000000000E+00 -0.00000000000E+00 -0.64431014263E+02  0.64431014263E+02  0.00000000000E+00 0. -1.
         21    1    1    2  503  502 -0.46549443831E+02  0.35073585772E+02  0.61015291171E+02  0.84379339276E+02  0.00000000000E+00 0. -1.
         21    1    1    2  504  501  0.14089469427E+02 -0.15075984100E+03  0.10747516795E+03  0.18568240232E+03  0.00000000000E+00 0. -1.
         21    1    1    2  505  503 -0.70826282189E+02  0.40515992964E+01  0.37028428917E+03  0.37701887554E+03  0.00000000000E+00 0. -1.
          2    1    1    2  501    0  0.10328625659E+03  0.11163465593E+03  0.55233545227E+03  0.57289161195E+03  0.00000000000E+00 0. -1.
<scales pt_clust_3="58.28385" pt_clust_4="14000.00000" pt_clust_5="74.06544" pt_clust_6="128.84572"></scales>
<clustering>
<clus scale="   58.284">  2  3  1 -1</clus>
<clus scale="   74.065">  1  5  2 -1</clus>
<clus scale="  128.846">  1  6  2 -1</clus>
<clus scale="   58.284">  2  3  1 -1</clus>
</clustering>
</event>
<event>
 6    0  0.3584505E+002  0.7964401E+02  0.7546771E-02  0.1330065E+00
         21   -1    0    0  503  502  0.00000000000E+00  0.00000000000E+00  0.36136320479E+04  0.36136320479E+04  0.00000000000E+00 0. -1.
          2   -1    0    0  504    0 -0.00000000000E+00 -0.00000000000E+00 -0.33806670734E+02  0.33806670734E+02  0.00000000000E+00 0. -1.
         21    1    1    2  503  501  0.80450835487E+02  0.45092835244E+02  0.23992195453E+03  0.25703743888E+03  0.00000000000E+00 0. -1.
         21    1    1    2  504  505 -0.68207988882E+02 -0.41718104438E+02  0.22746278165E+04  0.22760326082E+04  0.00000000000E+00 0. -1.
         21    1    1    2  505  502  0.32628676463E+02 -0.30969985627E+02  0.10605232157E+04  0.10614769247E+04  0.00000000000E+00 0. -1.
          2    1    1    2  501    0 -0.44871523068E+02  0.27595254822E+02  0.47523903932E+01  0.52891746857E+02  0.00000000000E+00 0. -1.
<scales pt_clust_3="79.64401" pt_clust_4="14000.00000" pt_clust_5="44.98634" pt_clust_6="52.18091"></scales>
<clustering>
<clus scale="   44.986">  1  5  2 -1</clus>
<clus scale="   52.181">  2  6  1 -1</clus>
<clus scale="   79.644">  2  3  1 -1</clus>
<clus scale="   44.986">  1  3  2 -1</clus>
</clustering>
</event>
<event>
 6    0  0.3584505E+002  0.1127853E+03  0.7546771E-02  0.1255497E+00
         21   -1    0    0  503  502  0.00000000000E+00  0.00000000000E+00  0.22830090786E+03  0.22830090786E+03  0.00000000000E+00 0.  1.
          2   -1    0    0  504    0 -0.00000000000E+00 -0.00000000000E+00 -0.18567349397E+03  0.18567349397E+03  0.00000000000E+00 0.  1.
         21    1    1    2  503  501  0.11594555925E+03  0.84398667670E+02  0.29077437133E+02  0.14632841543E+03  0.00000000000E+00 0.  1.
         21    1    1    2  504  505 -0.82696714372E+02 -0.48046825429E+02  0.13214408302E+02  0.96549803669E+02  0.00000000000E+00 0. -1.
         21    1    1    2  505  502 -0.29616915916E+01  0.39838395180E+02  0.58309067552E+02  0.70681091576E+02  0.00000000000E+00 0.  1.
          2    1    1    2  501    0 -0.30287153282E+02 -0.76190237421E+02 -0.57973499101E+02  0.10041509115E+03  0.00000000000E+00 0.  1.
<scales pt_clust_3="14000.00000" pt_clust_4="112.78534" pt_clust_5="39.94833" pt_clust_6="77.36829"></scales>
<clustering>
<clus scale="   39.948">  1  5  2 -1</clus>
<clus scale="   77.368">  2  6  1 -1</clus>
<clus scale="  112.785">  1  4  2 -1</clus>
<clus scale="   39.948">  1  3  2 -1</clus>
</clustering>
</event>
<event>
 6    0  0.3584505E+002  0.8619315E+02  0.7546771E-02  0.1312341E+00
          1   -1    0    0  505    0 -0.00000000000E+00  0.00000000000E+00  0.60878179577E+03  0.60878179577E+03  0.00000000000E+00 0.  1.
         21   -1    0    0  503  502  0.00000000000E+00 -0.00000000000E+00 -0.36581737029E+02  0.36581737029E+02  0.00000000000E+00 0.  1.
         21    1    1    2  503  504  0.36369263533E+02 -0.70418991223E+02  0.78046771966E+02  0.11123334154E+03  0.00000000000E+00 0.  1.
         21    1    1    2  504  501  0.35304729354E+02  0.10246580302E+02  0.71901774101E+02  0.80754451528E+02  0.00000000000E+00 0.  1.
         21    1    1    2  505  502 -0.10387279063E+03  0.55167671179E+02  0.22942731966E+03  0.25781761689E+03  0.00000000000E+00 0.  1.
          1    1    1    2  501    0  0.32198797743E+02  0.50047397422E+01  0.19282419302E+03  0.19555812285E+03  0.00000000000E+00 0.  1.
<scales pt_clust_3="86.19315" pt_clust_4="42.71835" pt_clust_5="14000.00000" pt_clust_6="32.58543"></scales>
<clustering>
<clus scale="   32.585">  1  6  2 -1</clus>
<clus scale="   42.718">  1  4  2 -1</clus>
<clus scale="   86.193">  2  3  1 -1</clus>
<clus scale="   86.193">  2  3  1 -1</clus>
</clustering>
</event>
<event>
 6    0  0.3584505E+002  0.1310691E+03  0.7546771E-02  0.1225878E+00
         21   -1    0    0  503  502  0.00000000000E+00  0.00000000000E+00  0.28710204953E+02  0.28710204953E+02  0.00000000000E+00 0. -1.
          2   -1    0    0  504    0 -0.00000000000E+00 -0.00000000000E+00 -0.19209050843E+04  0.19209050843E+04  0.00000000000E+00 0.  1.
         21    1    1    2  503  505 -0.57851067698E+02 -0.21377243565E+02 -0.99269776234E+02  0.11686839200E+03  0.00000000000E+00 0. -1.
         21    1    1    2  504  502  0.10155470674E+03  0.11698283619E+03 -0.94647608954E+03  0.95907003420E+03  0.00000000000E+00 0.  1.
         21    1    1    2  505  501 -0.11037031123E+02 -0.10491665669E+03 -0.19810421790E+03  0.22444287036E+03  0.00000000000E+00 0. -1.
          2    1    1    2  501    0 -0.32666607915E+02  0.93110640703E+01 -0.64834479565E+03  0.64923399266E+03  0.00000000000E+00 0.  1.
<scales pt_clust_3="64.02598" pt_clust_4="131.06910" pt_clust_5="14000.00000" pt_clust_6="33.96768"></scales>
<clustering>
<clus scale="   33.968">  2  6  1 -1</clus>
<clus scale="   64.026">  1  3  2 -1</clus>
<clus scale="  131.069">  2  4  1 -1</clus>
<clus scale="   64.026">  1  3  2 -1</clus>
</clustering>
</event>
<event>
 6    0  0.3584505E+002  0.1697575E+03  0.7546771E-02  0.1178101E+00
         21   -1    0    0  504  502  0.00000000000E+00  0.00000000000E+00  0.94195100362E+02  0.94195100362E+02  0.00000000000E+00 0. -1.
          2   -1    0    0  505    0 -0.00000000000E+00 -0.00000000000E+00 -0.17244672235E+04  0.17244672235E+04  0.00000000000E+00 0. -1.
         21    1    1    2  503  502  0.43274424379E+02 -0.12015632360E+02  0.35771842536E+02  0.57416686989E+02  0.00000000000E+00 0. -1.
         21    1    1    2  504  501 -0.21707016428E+03 -0.88502099250E+02 -0.78568059582E+03  0.81990613880E+03  0.00000000000E+00 0. -1.
         21    1    1    2  505  503  0.11623773469E+03  0.65377424110E+02 -0.12440387470E+03  0.18237802112E+03  0.00000000000E+00 0. -1.
          2    1    1    2  501    0  0.57558005207E+02  0.35140307500E+02 -0.75595949512E+03  0.75896147691E+03  0.00000000000E+00 0. -1.
<scales pt_clust_3="44.91159" pt_clust_4="169.75752" pt_clust_5="14000.00000" pt_clust_6="68.41218"></scales>
<clustering>
<clus scale="   44.912">  1  3  2 -1</clus>
<clus scale="   68.412">  2  6  1 -1</clus>
<clus scale="  169.758">  2  4  1 -1</clus>
<clus scale="   44.912">  1  3  2 -1</clus>
</clustering>
</event>
<event>
 6    0  0.3584505E+002  0.7576241E+02  0.7546771E-02  0.1341526E+00
         21   -1    0    0  505  502  0.00000000000E+00  0.00000000000E+00  0.29829442982E+03  0.29829442982E+03  0.00000000000E+00 0.  1.
          2   -1    0    0  504    0 -0.00000000000E+00 -0.00000000000E+00 -0.79990206017E+03  0.79990206017E+03  0.00000000000E+00 0. -1.
         21    1    1    2  503  502 -0.13490390448E+02  0.31744584927E+02  0.22552967166E+03  0.22815201534E+03  0.00000000000E+00 0.  1.
         21    1    1    2  504  503 -0.28541639713E+02  0.97871557378E+02 -0.44681425353E+03  0.45829733155E+03  0.00000000000E+00 0.  1.
         21    1    1    2  505  501 -0.17592695485E+01 -0.82578214144E+02  0.35171429494E+02  0.89773525792E+02  0.00000000000E+00 0. -1.
          2    1    1    2  501    0  0.43791299709E+02 -0.47037928161E+02 -0.31549447797E+03  0.32197361731E+03  0.00000000000E+00 0. -1.
<scales pt_clust_3="34.49216" pt_clust_4="75.76241" pt_clust_5="56.47428" pt_clust_6="14000.00000"></scales>
<clustering>
<clus scale="   34.492">  1  3  2 -1</clus>
<clus scale="   56.474">  1  5  2 -1</clus>
<clus scale="   75.762">  1  4  2 -1</clus>
<clus scale="   34.492">  1  3  2 -1</clus>
</clustering>
</event>
<event>
 6    0  0.3584505E+002  0.1120128E+03  0.7546771E-02  0.1256887E+00
          3   -1    0    0  504    0 -0.00000000000E+00  0.00000000000E+00  0.41217764140E+03  0.41217764140E+03  0.00000000000E+00 0. -1.
         21   -1    0    0  503  502  0.00000000000E+00 -0.00000000000E+00 -0.39142350525E+03  0.39142350525E+03  0.00000000000E+00 0. -1.
         21    1    1    2  503  501  0.11006768287E+03 -0.81641469026E+01  0.68060149466E+01  0.11057969952E+03  0.00000000000E+00 0. -1.
         21    1    1    2  504  505 -0.42362063864E+02  0.12491116522E+03  0.94539621057E+02  0.16228087873E+03  0.00000000000E+00 0.  1.
         21    1    1    2  505  502 -0.10312075489E+03 -0.50283323580E+02 -0.28803875446E+03  0.31004616881E+03  0.00000000000E+00 0. -1.
          3    1    1    2  501    0  0.35415135890E+02 -0.66463694739E+02  0.20744725460E+03  0.22069439959E+03  0.00000000000E+00 0. -1.
<scales pt_clust_3="112.01276" pt_clust_4="84.09995" pt_clust_5="14000.00000" pt_clust_6="75.31039"></scales>
<clustering>
<clus scale="   75.310">  1  6  2 -1</clus>
<clus scale="   84.100">  1  4  2 -1</clus>
<clus scale="  112.013">  1  3  2 -1</clus>
<clus scale="  112.013">  2  3  1 -1</clus>
</clustering>
</event>
<event>
 6    0  0.3584505E+002  0.9179390E+02  0.7546771E-02  0.1298565E+00
         21   -1    0    0  505  502  0.00000000000E+00  0.00000000000E+00  0.12299290071E+03  0.12299290071E+03  0.00000000000E+00 0.  1.
          4   -1    0    0  503    0 -0.00000000000E+00 -0.00000000000E+00 -0.74241996167E+03  0.74241996167E+03  0.00000000000E+00 0.  1.
         21    1    1    2  503  504  0.71878617158E+02  0.12892048921E+02 -0.10337050614E+03  0.12656303595E+03  0.00000000000E+00 0. -1.
         21    1    1    2  504  502  0.70030085565E+01  0.96438175312E+02  0.64466359700E+02  0.11621219953E+03  0.00000000000E+00 0.  1.
         21    1    1    2  505  501  0.44877484214E+02 -0.67070911181E+02 -0.12560144597E+03  0.14929239413E+03  0.00000000000E+00 0.  1.
          4    1    1    2  501    0 -0.12375910993E+03 -0.42259313053E+02 -0.45492146856E+03  0.47334523277E+03  0.00000000000E+00 0.  1.
<scales pt_clust_3="73.02562" pt_clust_4="14000.00000" pt_clust_5="91.79390" pt_clust_6="77.80558"></scales>
<clustering>
<clus scale="   73.026">  2  3  1 -1</clus>
<clus scale="   77.806">  2  6  1 -1</clus>
<clus scale="   91.794">  2  5  1 -1</clus>
<clus scale="   91.794">  1  3  2 -1</clus>
</clustering>
</event>
<event>
 6    0  0.3584505E+002  0.1320198E+03  0.7546771E-02  0.1224489E+00
          2   -1    0    0  504    0 -0.00000000000E+00  0.00000000000E+00  0.39646292106E+03  0.39646292106E+03  0.00000000000E+00 0. -1.
         21   -1    0    0  501  502  0.00000000000E+00 -0.00000000000E+00 -0.15958238513E+04  0.15958238513E+04  0.00000000000E+00 0. -1.
         21    1    1    2  503  502  0.11695243739E+02 -0.29302003796E+02 -0.11554503743E+04  0.11558810291E+04  0.00000000000E+00 0. -1.
         21    1    1    2  504  505 -0.44674095339E+01  0.32475161686E+02  0.25067464262E+02  0.41267076938E+02  0.00000000000E+00 0.  1.
         21    1    1    2  505  503 -0.83251595925E+02 -0.83360296141E+02 -0.41526296527E+03  0.43165159275E+03  0.00000000000E+00 0. -1.
          2    1    1    2  501    0  0.76023761721E+02  0.80187138252E+02  0.34628494501E+03  0.36348707354E+03  0.00000000000E+00 0. -1.
<scales pt_clust_3="31.54974" pt_clust_4="32.21779" pt_clust_5="132.01981" pt_clust_6="14000.00000"></scales>
<clustering>
<clus scale="   31.550">  2  3  1 -1</clus>
<clus scale="   32.218">  1  4  2 -1</clus>
<clus scale="  132.020">  2  5  1 -1</clus>
<clus scale="   31.550">  2  3  1 -1</clus>
</clustering>
</event>
<event>
 6    0  0.3584505E+002  0.8944055E+02  0.7546771E-02  0.1304212E+00
         -3   -1    0    0    0  501 -0.00000000000E+00  0.00000000000E+00  0.49898136567E+02  0.49898136567E+02  0.00000000000E+00 0.  1.
         21   -1    0    0  503  502  0.00000000000E+00 -0.00000000000E+00 -0.43349427782E+03  0.43349427782E+03  0.00000000000E+00 0. -1.
         21    1    1    2  503  505 -0.17125038833E+02 -0.93541330371E+02 -0.17130962546E+03  0.19593426249E+03  0.00000000000E+00 0. -1.
         21    1    1    2  504  502  0.44944447923E+02  0.73848862265E+02 -0.12684226546E+03  0.15350119922E+03  0.00000000000E+00 0. -1.
         21    1    1    2  505  501 -0.46089725845E+02 -0.17584217685E+02 -0.77227655916E+02  0.91638301918E+02  0.00000000000E+00 0. -1.
         -3    1    1    2    0  504  0.18270316754E+02  0.37276685790E+02 -0.82165944196E+01  0.42318650754E+02  0.00000000000E+00 0.  1.
<scales pt_clust_3="89.44055" pt_clust_4="14000.00000" pt_clust_5="43.12061" pt_clust_6="41.51332"></scales>
<clustering>
<clus scale="   41.513">  1  6  2 -1</clus>
<clus scale="   43.121">  1  5  2 -1</clus>
<clus scale="   89.441">  2  3  1 -1</clus>
<clus scale="   89.441">  2  3  1 -1</clus>
</clustering>
</event>
<event>
 6    0  0.3584505E+002  0.2348774E+03  0.7546771E-02  0.1123253E+00
         21   -1    0    0  505  502  0.00000000000E+00  0.00000000000E+00  0.29373762447E+03  0.29373762447E+03  0.00000000000E+00 0.  1.
          1   -1    0    0  503    0 -0.00000000000E+00 -0.00000000000E+00 -0.70247642714E+03  0.70247642714E+03  0.00000000000E+00 0. -1.
         21    1    1    2  503  504  0.20717941947E+03  0.40458577323E+02 -0.19903790556E+03  0.29013151532E+03  0.00000000000E+00 0. -1.
         21    1    1    2  504  502 -0.20527753758E+03 -0.82760647950E+02  0.67731996687E+02  0.23146450195E+03  0.00000000000E+00 0.  1.
         21    1    1    2  505  501 -0.41681407325E+02 -0.53394238061E+01  0.91401207779E+02  0.10059835956E+03  0.00000000000E+00 0. -1.
          1    1    1    2  501    0  0.39779525437E+02  0.47641494433E+02 -0.36883410158E+03  0.37401967478E+03  0.00000000000E+00 0. -1.
<scales pt_clust_3="14000.00000" pt_clust_4="234.87742" pt_clust_5="42.02201" pt_clust_6="61.66258"></scales>
<clustering>
<clus scale="   42.022">  1  5  2 -1</clus>
<clus scale="   61.663">  2  6  1 -1</clus>
<clus scale="  234.877">  1  4  2 -1</clus>
<clus scale="   42.022">  1  3  2 -1</clus>
</clustering>
</event>
<event>
 6    0  0.4216189E+002  0.1082037E+03  0.7546771E-02  0.1263933E+00
          2   -1    0    0  504    0 -0.00000000000E+00  0.00000000000E+00  0.35399656915E+04  0.35399656915E+04  0.00000000000E+00 0. -1.
         21   -1    0    0  503  502  0.00000000000E+00 -0.00000000000E+00 -0.72987623518E+03  0.72987623518E+03  0.00000000000E+00 0. -1.
         21    1    1    2  503  501 -0.72117821572E+02  0.12673806450E+02 -0.94361476594E+02  0.11943907997E+03  0.00000000000E+00 0. -1.
         21    1    1    2  504  505  0.65699489472E+02 -0.86956400652E+02  0.61449179694E+03  0.62408173106E+03  0.00000000000E+00 0.  1.
         21    1    1    2  505  502 -0.35889024896E+02  0.14065869761E+02 -0.61711394932E+03  0.61831666422E+03  0.00000000000E+00 0. -1.
          2    1    1    2  501    0  0.42307356996E+02  0.60216724441E+02  0.29070730853E+04  0.29080044514E+04  0.00000000000E+00 0. -1.
<scales pt_clust_3="108.20371" pt_clust_4="14000.00000" pt_clust_5="38.54699" pt_clust_6="73.55554"></scales>
<clustering>
<clus scale="   38.547">  2  5  1 -1</clus>
<clus scale="   73.556">  1  6  2 -1</clus>
<clus scale="  108.204">  2  3  1 -1</clus>
<clus scale="   38.547">  2  3  1 -1</clus>
</clustering>
</event>
<event>
 6    0  0.3584505E+002  0.9213421E+02  0.7546771E-02  0.1297764E+00
         21   -1    0    0  503  502  0.00000000000E+00  0.00000000000E+00  0.36327123667E+02  0.36327123667E+02  0.00000000000E+00 0. -1.
          2   -1    0    0  504    0 -0.00000000000E+00 -0.00000000000E+00 -0.26272037241E+04  0.26272037241E+04  0.00000000000E+00 0.  1.
         21    1    1    2  503  501 -0.88130984129E+02 -0.18393705142E+02 -0.69901984276E+02  0.11398107807E+03  0.00000000000E+00 0. -1.
         21    1    1    2  504  505  0.23535270636E+02 -0.67686229037E+02 -0.54755497010E+03  0.55222439265E+03  0.00000000000E+00 0. -1.
         21    1    1    2  505  502  0.86105414732E+02  0.53406260410E+02 -0.20695162157E+03  0.23042427122E+03  0.00000000000E+00 0. -1.
          2    1    1    2  501    0 -0.21509701238E+02  0.32673673769E+02 -0.17664680245E+04  0.17669011058E+04  0.00000000000E+00 0.  1.
<scales pt_clust_3="92.13421" pt_clust_4="47.81996" pt_clust_5="14000.00000" pt_clust_6="39.11823"></scales>
<clustering>
<clus scale="   39.118">  2  6  1 -1</clus>
<clus scale="   47.820">  2  4  1 -1</clus>
<clus scale="   92.134">  1  3  2 -1</clus>
<clus scale="   92.134">  1  3  2 -1</clus>
</clustering>
</event>
<event>
 6    0  0.3584505E+002  0.1370173E+03  0.7546771E-02  0.1217400E+00
          2   -1    0    0  504    0 -0.00000000000E+00  0.00000000000E+00  0.54051084399E+03  0.54051084399E+03  0.00000000000E+00 0.  1.
         21   -1    0    0  503  502  0.00000000000E+00 -0.00000000000E+00 -0.32890460923E+03  0.32890460923E+03  0.00000000000E+00 0.  1.
         21    1    1    2  503  501  0.48914512287E+02 -0.13627967956E+03 -0.26096529479E+03  0.29844206415E+03  0.00000000000E+00 0.  1.
         21    1    1    2  504  505  0.50828737874E+02 -0.14460374119E+02  0.49131137283E+02  0.72156300239E+02  0.00000000000E+00 0.  1.
         21    1    1    2  505  502 -0.59380985397E+02  0.87492586932E+02  0.48303935534E+02  0.11625112637E+03  0.00000000000E+00 0. -1.
          2    1    1    2  501    0 -0.40362264765E+02  0.63247466744E+02  0.37513645672E+03  0.38256596245E+03  0.00000000000E+00 0.  1.
<scales pt_clust_3="137.01728" pt_clust_4="52.84565" pt_clust_5="14000.00000" pt_clust_6="51.83164"></scales>
<clustering>
<clus scale="   52.846">  1  4  2 -1</clus>
<clus scale="   51.832">  1  6  2 -1</clus>
<clus scale="  137.017">  2  3  1 -1</clus>
<clus scale="  137.017">  2  3  1 -1</clus>
</clustering>
</event>
<event>
 6    0  0.3584505E+002  0.1018197E+03  0.7546771E-02  0.1276515E+00
         21   -1    0    0  505  502  0.00000000000E+00  0.00000000000E+00  0.97560859649E+03  0.97560859649E+03  0.00000000000E+00 0.  1.
          2   -1    0    0  503    0 -0.00000000000E+00 -0.00000000000E+00 -0.20920875677E+03  0.20920875677E+03  0.00000000000E+00 0. -1.
         21    1    1    2  503  502  0.15709557132E+02 -0.34531673727E+02  0.28906715839E+03  0.29154596333E+03  0.00000000000E+00 0.  1.
         21    1    1    2  504  501 -0.69035273854E+02  0.11065414901E+03  0.22412676173E+03  0.25931258175E+03  0.00000000000E+00 0.  1.
         21    1    1    2  505  504  0.34728458269E+02  0.22843004513E+02  0.42919188727E+03  0.43120012149E+03  0.00000000000E+00 0.  1.
          2    1    1    2  501    0  0.18597258453E+02 -0.98965479796E+02 -0.17598596767E+03  0.20275868670E+03  0.00000000000E+00 0. -1.
<scales pt_clust_3="37.93714" pt_clust_4="14000.00000" pt_clust_5="44.60532" pt_clust_6="101.81968"></scales>
<clustering>
<clus scale="   37.937">  1  3  2 -1</clus>
<clus scale="   44.605">  1  5  2 -1</clus>
<clus scale="  101.820">  2  6  1 -1</clus>
<clus scale="   37.937">  1  3  2 -1</clus>
</clustering>
</event>
<event>
 6    0  0.3584505E+002  0.1086976E+03  0.7546771E-02  0.1263001E+00
          1   -1    0    0  504    0 -0.00000000000E+00  0.00000000000E+00  0.14769914951E+04  0.14769914951E+04  0.00000000000E+00 0.  1.
         21   -1    0    0  505  502  0.00000000000E+00 -0.00000000000E+00 -0.64656281483E+03  0.64656281483E+03  0.00000000000E+00 0.  1.
         21    1    1    2  503  502 -0.96637324653E+02  0.51643322811E+02 -0.61392831933E+03  0.62362952670E+03  0.00000000000E+00 0.  1.
         21    1    1    2  504  503 -0.57040543327E+02 -0.33156844719E+02  0.56346325168E+02  0.86763519377E+02  0.00000000000E+00 0. -1.
         21    1    1    2  505  501  0.87411074945E+02 -0.38636478996E+01  0.15272437505E+03  0.17601238176E+03  0.00000000000E+00 0. -1.
          1    1    1    2  501    0  0.66266793035E+02 -0.14622830193E+02  0.12352862994E+04  0.12371488821E+04  0.00000000000E+00 0.  1.
<scales pt_clust_3="14000.00000" pt_clust_4="65.97727" pt_clust_5="108.69764" pt_clust_6="46.65152"></scales>
<clustering>
<clus scale="   65.977">  1  4  2 -1</clus>
<clus scale="   46.652">  1  6  2 -1</clus>
<clus scale="  108.698">  1  5  2 -1</clus>
<clus scale="  108.698">  2  3  1 -1</clus>
</clustering>
</event>
<event>
 6    0  0.3584505E+002  0.1176153E+03  0.7546771E-02  0.1247084E+00
         21   -1    0    0  504  502  0.00000000000E+00  0.00000000000E+00  0.17741885791E+03  0.17741885791E+03  0.00000000000E+00 0. -1.
          1   -1    0    0  505    0 -0.00000000000E+00 -0.00000000000E+00 -0.33140486965E+04  0.33140486965E+04  0.00000000000E+00 0.  1.
         21    1    1    2  503  501 -0.85713316533E+02 -0.10266573863E+03 -0.28788948861E+03  0.31743878807E+03  0.00000000000E+00 0.  1.
         21    1    1    2  504  503 -0.39531254728E+02  0.34972225914E+02  0.15045229470E+03  0.15944174380E+03  0.00000000000E+00 0. -1.
         21    1    1    2  505  502  0.87702039852E+02  0.52358176169E+02 -0.33825688398E+03  0.35334225046E+03  0.00000000000E+00 0.  1.
          1    1    1    2  501    0  0.37542531410E+02  0.15335336546E+02 -0.26609357607E+04  0.26612447721E+04  0.00000000000E+00 0.  1.
<scales pt_clust_3="117.61525" pt_clust_4="52.65744" pt_clust_5="14000.00000" pt_clust_6="40.55384"></scales>
<clustering>
<clus scale="   40.554">  2  6  1 -1</clus>
<clus scale="   52.657">  1  4  2 -1</clus>
<clus scale="  117.615">  1  3  2 -1</clus>
<clus scale="   52.657">  1  3  2 -1</clus>
</clustering>
</event>
<event>
 6    0  0.3584505E+002  0.1842888E+03  0.7546771E-02  0.1163716E+00
         21   -1    0    0  504  502  0.00000000000E+00  0.00000000000E+00  0.13084732723E+04  0.13084732723E+04  0.00000000000E+00 0.  1.
          4   -1    0    0  505    0 -0.00000000000E+00 -0.00000000000E+00 -0.59114681453E+02  0.59114681453E+02  0.00000000000E+00 0. -1.
         21    1    1    2  503  501 -0.17620550113E+03 -0.48389678400E+02  0.38585505702E+03  0.42693566802E+03  0.00000000000E+00 0.  1.
         21    1    1    2  504  503  0.17748290803E+03  0.69832129595E+02  0.39364973426E+03  0.43742064680E+03  0.00000000000E+00 0.  1.
         21    1    1    2  505  502 -0.36738196402E+02 -0.40414598510E+01  0.46134794130E+03  0.46282604876E+03  0.00000000000E+00 0.  1.
          4    1    1    2  501    0  0.35460789501E+02 -0.17400991344E+02  0.85058582737E+01  0.40405590168E+02  0.00000000000E+00 0. -1.
<scales pt_clust_3="14000.00000" pt_clust_4="184.28880" pt_clust_5="36.95982" pt_clust_6="38.60287"></scales>
<clustering>
<clus scale="   36.960">  1  5  2 -1</clus>
<clus scale="   38.603">  2  6  1 -1</clus>
<clus scale="  184.289">  1  4  2 -1</clus>
<clus scale="   36.960">  1  3  2 -1</clus>
</clustering>
</event>
<event>
 6    0  0.3584505E+002  0.7837102E+02  0.7546771E-02  0.1333739E+00
         21   -1    0    0  505  502  0.00000000000E+00  0.00000000000E+00  0.44216480229E+03  0.44216480229E+03  0.00000000000E+00 0. -1.
          1   -1    0    0  504    0 -0.00000000000E+00 -0.00000000000E+00 -0.20240862944E+03  0.20240862944E+03  0.00000000000E+00 0. -1.
         21    1    1    2  503  502  0.34392386214E+02 -0.37478575754E+02  0.82284798226E+02  0.96738140819E+02  0.00000000000E+00 0. -1.
         21    1    1    2  504  503  0.14501768497E+02  0.67465137673E+02  0.76779769626E+02  0.10323264559E+03  0.00000000000E+00 0.  1.
         21    1    1    2  505  501 -0.97679049433E+02 -0.39163498642E+02  0.24836208344E+03  0.26973820793E+03  0.00000000000E+00 0. -1.
          1    1    1    2  501    0  0.48784894721E+02  0.91769367235E+01 -0.16767047845E+03  0.17486443739E+03  0.00000000000E+00 0. -1.
<scales pt_clust_3="57.78644" pt_clust_4="14000.00000" pt_clust_5="78.37102" pt_clust_6="49.64053"></scales>
<clustering>
<clus scale="   49.641">  2  6  1 -1</clus>
<clus scale="   57.786">  1  3  2 -1</clus>
<clus scale="   78.371">  1  5  2 -1</clus>
<clus scale="   57.786">  1  3  2 -1</clus>
</clustering>
</event>
<event>
 6    0  0.3584505E+002  0.8151054E+02  0.7546771E-02  0.1324819E+00
          1   -1    0    0  504    0 -0.00000000000E+00  0.00000000000E+00  0.29438210282E+04  0.29438210282E+04  0.00000000000E+00 0.  1.
         21   -1    0    0  505  502  0.00000000000E+00 -0.00000000000E+00 -0.73640010235E+02  0.73640010235E+02  0.00000000000E+00 0.  1.
         21    1    1    2  503  502  0.46449074936E+02 -0.23022433815E+02 -0.50691611209E+02  0.72506471905E+02  0.00000000000E+00 0.  1.
         21    1    1    2  504  503  0.51608623639E+02  0.10719039563E+02  0.10376686463E+03  0.11638689805E+03  0.00000000000E+00 0. -1.
         21    1    1    2  505  501 -0.40756902012E+02 -0.54457127446E+02  0.22709225123E+03  0.23706031798E+03  0.00000000000E+00 0.  1.
          1    1    1    2  501    0 -0.57300796563E+02  0.66760521697E+02  0.25900135133E+04  0.25915073505E+04  0.00000000000E+00 0.  1.
<scales pt_clust_3="51.84158" pt_clust_4="81.51054" pt_clust_5="67.51189" pt_clust_6="14000.00000"></scales>
<clustering>
<clus scale="   51.842">  2  3  1 -1</clus>
<clus scale="   67.512">  2  5  1 -1</clus>
<clus scale="   81.511">  2  4  1 -1</clus>
<clus scale="   51.842">  2  3  1 -1</clus>
</clustering>
</event>
<event>
 6    0  0.3584505E+002  0.8038451E+02  0.7546771E-02  0.1327964E+00
         21   -1    0    0  504  502  0.00000000000E+00  0.00000000000E+00  0.27682516893E+03  0.27682516893E+03  0.00000000000E+00 0. -1.
          1   -1    0    0  503    0 -0.00000000000E+00 -0.00000000000E+00 -0.12983073344E+04  0.12983073344E+04  0.00000000000E+00 0.  1.
         21    1    1    2  503  505 -0.38910351333E+02 -0.74827798305E+02 -0.83057143798E+03  0.83484257703E+03  0.00000000000E+00 0.  1.
         21    1    1    2  504  501 -0.62306392038E+02  0.12498952299E+02  0.26098870644E+02  0.68698335833E+02  0.00000000000E+00 0. -1.
         21    1    1    2  505  502  0.25343830719E+02  0.61179202266E+02  0.21912110201E+03  0.22890885062E+03  0.00000000000E+00 0. -1.
          1    1    1    2  501    0  0.75872912652E+02  0.11496437405E+01 -0.43613070016E+03  0.44268273987E+03  0.00000000000E+00 0.  1.
<scales pt_clust_3="80.38451" pt_clust_4="63.54770" pt_clust_5="14000.00000" pt_clust_6="74.99499"></scales>
<clustering>
<clus scale="   63.548">  1  4  2 -1</clus>
<clus scale="   74.995">  2  6  1 -1</clus>
<clus scale="   80.385">  2  3  1 -1</clus>
<clus scale="   63.548">  1  3  2 -1</clus>
</clustering>
</event>
<event>
 6    0  0.3584505E+002  0.1008636E+03  0.7546771E-02  0.1278490E+00
         21   -1    0    0  503  502  0.00000000000E+00  0.00000000000E+00  0.34562606657E+03  0.34562606657E+03  0.00000000000E+00 0. -1.
         -3   -1    0    0    0  501 -0.00000000000E+00 -0.00000000000E+00 -0.24166083060E+03  0.24166083060E+03  0.00000000000E+00 0. -1.
         21    1    1    2  503  501 -0.28945110858E+02 -0.27260584523E+02  0.10466218933E+03  0.11196040723E+03  0.00000000000E+00 0.  1.
         21    1    1    2  504  505 -0.64014732285E+02  0.11369643022E+03  0.18329272745E+03  0.22499108456E+03  0.00000000000E+00 0. -1.
         21    1    1    2  505  502  0.11837046773E+02 -0.28331935204E+02  0.99113345891E+01  0.32265287571E+02  0.00000000000E+00 0.  1.
         -3    1    1    2    0  504  0.81122796370E+02 -0.58103910497E+02 -0.19390101541E+03  0.21807011781E+03  0.00000000000E+00 0. -1.
<scales pt_clust_3="44.41624" pt_clust_4="14000.00000" pt_clust_5="30.70528" pt_clust_6="100.86360"></scales>
<clustering>
<clus scale="   30.705">  1  5  2 -1</clus>
<clus scale="   44.416">  1  3  2 -1</clus>
<clus scale="  100.864">  2  6  1 -1</clus>
<clus scale="   30.705">  1  3  2 -1</clus>
</clustering>
</event>
<event>
 6    0  0.3584505E+002  0.1094556E+03  0.7546771E-02  0.1261581E+00
         -2   -1    0    0    0  501 -0.00000000000E+00  0.00000000000E+00  0.27214088544E+04  0.27214088544E+04  0.00000000000E+00 0.  1.
         21   -1    0    0  504  502  0.00000000000E+00 -0.00000000000E+00 -0.88249141856E+03  0.88249141856E+03  0.00000000000E+00 0. -1.
         21    1    1    2  503  501  0.32902463975E+02  0.17635142809E+02  0.24580796271E+02  0.44696598784E+02  0.00000000000E+00 0. -1.
         21    1    1    2  504  503  0.10327145558E+03 -0.34901792090E+02 -0.85084773769E+03  0.85780242560E+03  0.00000000000E+00 0. -1.
         21    1    1    2  505  502 -0.17964581370E+03 -0.84562161895E+01  0.43587957077E+03  0.47152425833E+03  0.00000000000E+00 0. -1.
         -2    1    1    2    0  505  0.43471894140E+02  0.25722865470E+02  0.22293048065E+04  0.22298769903E+04  0.00000000000E+00 0.  1.
<scales pt_clust_3="37.33056" pt_clust_4="14000.00000" pt_clust_5="109.45564" pt_clust_6="81.47333"></scales>
<clustering>
<clus scale="   37.331">  1  3  2 -1</clus>
<clus scale="   81.473">  1  6  2 -1</clus>
<clus scale="  109.456">  1  5  2 -1</clus>
<clus scale="  109.456">  2  3  1 -1</clus>
</clustering>
</event>
<event>
 6    0  0.3584505E+002  0.6836835E+02  0.7546771E-02  0.1365731E+00
         -1   -1    0    0    0  501 -0.00000000000E+00  0.00000000000E+00  0.17080398109E+04  0.17080398109E+04  0.00000000000E+00 0. -1.
         21   -1    0    0  505  502  0.00000000000E+00 -0.00000000000E+00 -0.26824002420E+03  0.26824002420E+03  0.00000000000E+00 0.  1.
         21    1    1    2  503  501  0.23318637373E+02 -0.95048089027E+02  0.16988766966E+03  0.19606049673E+03  0.00000000000E+00 0.  1.
         21    1    1    2  504  502 -0.59252682138E+02  0.10240246258E+02 -0.11934311425E+03  0.13363578077E+03  0.00000000000E+00 0.  1.
         21    1    1    2  505  503  0.28629427100E+02  0.18197808107E+02 -0.12567451648E+03  0.13017253323E+03  0.00000000000E+00 0.  1.
         -1    1    1    2    0  504  0.73046176642E+01  0.66610034662E+02  0.15149297477E+04  0.15164110243E+04  0.00000000000E+00 0. -1.
<scales pt_clust_3="14000.00000" pt_clust_4="42.76070" pt_clust_5="33.92351" pt_clust_6="68.36835"></scales>
<clustering>
<clus scale="   33.924">  2  5  1 -1</clus>
<clus scale="   42.761">  2  4  1 -1</clus>
<clus scale="   68.368">  1  6  2 -1</clus>
<clus scale="   33.924">  2  3  1 -1</clus>
</clustering>
</event>
<event>
 6    0  0.3584505E+002  0.8801183E+02  0.7546771E-02  0.1307739E+00
          2   -1    0    0  502    0 -0.00000000000E+00  0.00000000000E+00  0.58649450455E+03  0.58649450455E+03  0.00000000000E+00 0.  1.
         21   -1    0    0  503  502  0.00000000000E+00 -0.00000000000E+00 -0.74348720424E+03  0.74348720424E+03  0.00000000000E+00 0. -1.
         21    1    1    2  503  504 -0.37925060883E+02  0.11745464471E+02 -0.40609856568E+03  0.40803469365E+03  0.00000000000E+00 0. -1.
         21    1    1    2  504  505 -0.48054466146E+02  0.29307524848E+02 -0.54420834324E+02  0.78292975022E+02  0.00000000000E+00 0. -1.
         21    1    1    2  505  501  0.23499651006E+01 -0.71115965721E+02 -0.26184484218E+03  0.27134060568E+03  0.00000000000E+00 0. -1.
          2    1    1    2  501    0  0.83629561928E+02  0.30062976402E+02  0.56537154249E+03  0.57231343443E+03  0.00000000000E+00 0.  1.
<scales pt_clust_3="39.70222" pt_clust_4="63.90793" pt_clust_5="88.01183" pt_clust_6="14000.00000"></scales>
<clustering>
<clus scale="   39.702">  2  3  1 -1</clus>
<clus scale="   63.908">  2  4  1 -1</clus>
<clus scale="   88.012">  2  5  1 -1</clus>
<clus scale="   39.702">  2  3  1 -1</clus>
</clustering>
</event>
<event>
 6    0  0.3584505E+002  0.1397818E+03  0.7546771E-02  0.1213623E+00
         21   -1    0    0  504  502  0.00000000000E+00  0.00000000000E+00  0.22178939271E+03  0.22178939271E+03  0.00000000000E+00 0. -1.
          2   -1    0    0  503    0 -0.00000000000E+00 -0.00000000000E+00 -0.86115169976E+03  0.86115169976E+03  0.00000000000E+00 0.  1.
         21    1    1    2  503  505 -0.81674315512E+02 -0.48464271068E+02 -0.20747809700E+02  0.97210858405E+02  0.00000000000E+00 0. -1.
         21    1    1    2  504  501  0.42953113981E+02 -0.50370005125E+02  0.72384002106E+02  0.98089505951E+02  0.00000000000E+00 0. -1.
         21    1    1    2  505  502 -0.21049141276E+02 -0.40388019538E+02  0.85298969837E+02  0.96696291169E+02  0.00000000000E+00 0. -1.
          2    1    1    2  501    0  0.59770342807E+02  0.13922229573E+03 -0.77629746929E+03  0.79094443695E+03  0.00000000000E+00 0.  1.
<scales pt_clust_3="14000.00000" pt_clust_4="82.07429" pt_clust_5="45.54403" pt_clust_6="139.78179"></scales>
<clustering>
<clus scale="   45.544">  1  5  2 -1</clus>
<clus scale="   82.074">  1  4  2 -1</clus>
<clus scale="  139.782">  2  6  1 -1</clus>
<clus scale="   45.544">  1  3  2 -1</clus>
</clustering>
</event>
<event>
 6    0  0.3584505E+002  0.1294218E+03  0.7546771E-02  0.1228316E+00
          2   -1    0    0  503    0 -0.00000000000E+00  0.00000000000E+00  0.27347234559E+04  0.27347234559E+04  0.00000000000E+00 0.  1.
         21   -1    0    0  505  502  0.00000000000E+00 -0.00000000000E+00 -0.26419926450E+03  0.26419926450E+03  0.00000000000E+00 0.  1.
         21    1    1    2  503  504 -0.68318309029E+02 -0.21007492042E+02  0.72809958721E+02  0.10202938870E+03  0.00000000000E+00 0. -1.
         21    1    1    2  504  502 -0.24595653847E+02 -0.18258981519E+02 -0.14196562888E+02  0.33762094012E+02  0.00000000000E+00 0.  1.
         21    1    1    2  505  501 -0.15513114760E+02  0.11065682137E+03 -0.21006976643E+03  0.23793884847E+03  0.00000000000E+00 0.  1.
          2    1    1    2  501    0  0.10842707764E+03 -0.71390347807E+02  0.26219805620E+04  0.26251923893E+04  0.00000000000E+00 0.  1.
<scales pt_clust_3="73.23403" pt_clust_4="30.63228" pt_clust_5="129.42185" pt_clust_6="14000.00000"></scales>
<clustering>
<clus scale="   30.632">  2  4  1 -1</clus>
<clus scale="   73.234">  2  3  1 -1</clus>
<clus scale="  129.422">  2  5  1 -1</clus>
<clus scale="   30.632">  2  3  1 -1</clus>
</clustering>
</event>
<event>
 6    0  0.3584505E+002  0.1261322E+03  0.7546771E-02  0.1233310E+00
          2   -1    0    0  505    0 -0.00000000000E+00  0.00000000000E+00  0.77422440354E+03  0.77422440354E+03  0.00000000000E+00 0. -1.
         21   -1    0    0  504  502  0.00000000000E+00 -0.00000000000E+00 -0.24080114015E+03  0.24080114015E+03  0.00000000000E+00 0. -1.
         21    1    1    2  503  501  0.19441591000E+02  0.97604968519E+02  0.29202313494E+03  0.30851615303E+03  0.00000000000E+00 0. -1.
         21    1    1    2  504  503  0.88237696170E+02  0.57467377008E+02  0.28902816411E+02  0.10919598547E+03  0.00000000000E+00 0.  1.
         21    1    1    2  505  502 -0.57116592225E+02 -0.12622784572E+03 -0.16494266058E+03  0.21541089903E+03  0.00000000000E+00 0. -1.
          2    1    1    2  501    0 -0.50562694945E+02 -0.28844499810E+02  0.37743997261E+03  0.38190250617E+03  0.00000000000E+00 0. -1.
<scales pt_clust_3="78.01202" pt_clust_4="126.13222" pt_clust_5="14000.00000" pt_clust_6="58.21161"></scales>
<clustering>
<clus scale="   58.212">  1  6  2 -1</clus>
<clus scale="   78.012">  1  3  2 -1</clus>
<clus scale="  126.132">  1  4  2 -1</clus>
<clus scale="  126.132">  2  3  1 -1</clus>
</clustering>
</event>
<event>
 6    0  0.3584505E+002  0.1062835E+03  0.7546771E-02  0.1267611E+00
          2   -1    0    0  505    0 -0.00000000000E+00  0.00000000000E+00  0.69840067258E+02  0.69840067258E+02  0.00000000000E+00 0.  1.
         21   -1    0    0  503  502  0.00000000000E+00 -0.00000000000E+00 -0.17144302937E+04  0.17144302937E+04  0.00000000000E+00 0.  1.
         21    1    1    2  503  501 -0.64119935927E+01 -0.29561795243E+02 -0.33704683499E+03  0.33840151060E+03  0.00000000000E+00 0.  1.
         21    1    1    2  504  502 -0.97260288728E+02  0.59579975394E+02 -0.12757311456E+04  0.12808197738E+04  0.00000000000E+00 0.  1.
         21    1    1    2  505  504  0.83779184549E+01 -0.60974582598E+02 -0.80313987512E+01  0.62069256533E+02  0.00000000000E+00 0.  1.
          2    1    1    2  501    0  0.95294363866E+02  0.30956402447E+02 -0.23780847126E+02  0.10297982000E+03  0.00000000000E+00 0.  1.
<scales pt_clust_3="30.24919" pt_clust_4="14000.00000" pt_clust_5="62.27142" pt_clust_6="106.28353"></scales>
<clustering>
<clus scale="   30.249">  2  3  1 -1</clus>
<clus scale="   62.271">  1  5  2 -1</clus>
<clus scale="  106.284">  1  6  2 -1</clus>
<clus scale="   30.249">  2  3  1 -1</clus>
</clustering>
</event>
<event>
 6    0  0.3584505E+002  0.1830146E+03  0.7546771E-02  0.1164917E+00
          1   -1    0    0  503    0 -0.00000000000E+00  0.00000000000E+00  0.18012613085E+04  0.18012613085E+04  0.00000000000E+00 0.  1.
         21   -1    0    0  505  502  0.00000000000E+00 -0.00000000000E+00 -0.73620194827E+02  0.73620194827E+02  0.00000000000E+00 0. -1.
         21    1    1    2  503  502  0.36171047984E+02 -0.25152454601E+02  0.95368980629E+02  0.10505347758E+03  0.00000000000E+00 0. -1.
         21    1    1    2  504  501  0.75432763027E+02 -0.53452139972E+02  0.36275730026E+02  0.99313451226E+02  0.00000000000E+00 0. -1.
         21    1    1    2  505  504  0.44710272128E+02  0.16542959597E+02 -0.15604689683E+02  0.50161581774E+02  0.00000000000E+00 0. -1.
          1    1    1    2  501    0 -0.15631408314E+03  0.62061634976E+02  0.16116010927E+04  0.16203529927E+04  0.00000000000E+00 0.  1.
<scales pt_clust_3="44.05668" pt_clust_4="58.11285" pt_clust_5="58.11285" pt_clust_6="165.45541"></scales>
<clustering>
<clus scale="   44.057">  2  3  1 -1</clus>
<clus scale="   58.113">  4  5 -1 -1</clus>
<clus scale="  165.455">  1  6  2 -1</clus>
<clus scale="   44.057">  2  3  1 -1</clus>
</clustering>
</event>
<event>
 6    0  0.3584505E+002  0.9576768E+02  0.7546771E-02  0.1289456E+00
         21   -1    0    0  501  502  0.00000000000E+00  0.00000000000E+00  0.20731528394E+02  0.20731528394E+02  0.00000000000E+00 0. -1.
          1   -1    0    0  504    0 -0.00000000000E+00 -0.00000000000E+00 -0.19003807529E+04  0.19003807529E+04  0.00000000000E+00 0. -1.
         21    1    1    2  503  505 -0.90169008218E+02 -0.35411489601E+02 -0.18940704847E+03  0.21274269352E+03  0.00000000000E+00 0. -1.
         21    1    1    2  504  503  0.91227112459E+02 -0.39228597523E+02 -0.14188182130E+04  0.14222891374E+04  0.00000000000E+00 0. -1.
         21    1    1    2  505  502 -0.19617310035E+02  0.23438139006E+02 -0.55134965572E+02  0.63040063782E+02  0.00000000000E+00 0. -1.
          1    1    1    2  501    0  0.18559205794E+02  0.51201948117E+02 -0.21628899750E+03  0.22304038659E+03  0.00000000000E+00 0. -1.
<scales pt_clust_3="14000.00000" pt_clust_4="95.76768" pt_clust_5="30.56444" pt_clust_6="57.79513"></scales>
<clustering>
<clus scale="   30.564">  1  5  2 -1</clus>
<clus scale="   57.795">  1  6  2 -1</clus>
<clus scale="   95.768">  2  4  1 -1</clus>
<clus scale="   30.564">  1  3  2 -1</clus>
</clustering>
</event>
<event>
 6    0  0.3584505E+002  0.8983851E+02  0.7546771E-02  0.1303243E+00
         21   -1    0    0  504  502  0.00000000000E+00  0.00000000000E+00  0.28952151445E+04  0.28952151445E+04  0.00000000000E+00 0. -1.
          1   -1    0    0  505    0 -0.00000000000E+00 -0.00000000000E+00 -0.45193504949E+02  0.45193504949E+02  0.00000000000E+00 0. -1.
         21    1    1    2  503  501  0.53333071798E+02  0.82087379234E+01  0.35550759007E+03  0.35957954131E+03  0.00000000000E+00 0.  1.
         21    1    1    2  504  503 -0.14014096865E+02 -0.31415841913E+02  0.19119157867E+04  0.19122252288E+04  0.00000000000E+00 0.  1.
         21    1    1    2  505  502 -0.12212204825E+03 -0.44293489399E+01  0.56688587601E+03  0.57990776009E+03  0.00000000000E+00 0. -1.
          1    1    1    2  501    0  0.82803073319E+02  0.27636452929E+02  0.15712386775E+02  0.88696119305E+02  0.00000000000E+00 0. -1.
<scales pt_clust_3="48.34363" pt_clust_4="34.39986" pt_clust_5="89.83851" pt_clust_6="14000.00000"></scales>
<clustering>
<clus scale="   34.400">  1  4  2 -1</clus>
<clus scale="   48.344">  1  3  2 -1</clus>
<clus scale="   89.839">  1  5  2 -1</clus>
<clus scale="   34.400">  1  3  2 -1</clus>
</clustering>
</event>
<event>
 6    0  0.3584505E+002  0.1034799E+03  0.7546771E-02  0.1273144E+00
         21   -1    0    0  503  502  0.00000000000E+00  0.00000000000E+00  0.68221188842E+03  0.68221188842E+03  0.00000000000E+00 0.  1.
          2   -1    0    0  504    0 -0.00000000000E+00 -0.00000000000E+00 -0.10467933586E+04  0.10467933586E+04  0.00000000000E+00 0.  1.
         21    1    1    2  503  501 -0.64412752947E+02 -0.83160291227E+02  0.49421208962E+03  0.50528232337E+03  0.00000000000E+00 0.  1.
         21    1    1    2  504  505 -0.50064685336E+00  0.58141039392E+02  0.23461757848E+02  0.62698366726E+02  0.00000000000E+00 0.  1.
         21    1    1    2  505  502  0.77532096743E+02  0.63080161823E+02  0.12101384611E+03  0.15695440035E+03  0.00000000000E+00 0.  1.
          2    1    1    2  501    0 -0.12618696943E+02 -0.38060909987E+02 -0.10032691637E+04  0.10040701566E+04  0.00000000000E+00 0.  1.
<scales pt_clust_3="103.47985" pt_clust_4="41.30027" pt_clust_5="14000.00000" pt_clust_6="40.09818"></scales>
<clustering>
<clus scale="   40.098">  2  6  1 -1</clus>
<clus scale="   41.300">  2  4  1 -1</clus>
<clus scale="  103.480">  1  3  2 -1</clus>
<clus scale="  103.480">  1  3  2 -1</clus>
</clustering>
</event>
<event>
 6    0  0.3829311E+002  0.1053822E+03  0.7546771E-02  0.1269368E+00
          2   -1    0    0  505    0 -0.00000000000E+00  0.00000000000E+00  0.72302283583E+03  0.72302283583E+03  0.00000000000E+00 0. -1.
         21   -1    0    0  504  502  0.00000000000E+00 -0.00000000000E+00 -0.31383538794E+04  0.31383538794E+04  0.00000000000E+00 0.  1.
         21    1    1    2  503  502  0.46680403637E+02  0.11631796278E-01 -0.19116193731E+04  0.19121892395E+04  0.00000000000E+00 0.  1.
         21    1    1    2  504  501  0.57679981415E+02  0.50695236055E+01  0.13518620869E+03  0.14706458223E+03  0.00000000000E+00 0. -1.
         21    1    1    2  505  503 -0.15279829496E+03  0.16983576081E+01 -0.12146866510E+04  0.12242605374E+04  0.00000000000E+00 0.  1.
          2    1    1    2  501    0  0.48437909906E+02 -0.67795130099E+01  0.57578877177E+03  0.57786235611E+03  0.00000000000E+00 0. -1.
<scales pt_clust_3="46.68041" pt_clust_4="14000.00000" pt_clust_5="105.38223" pt_clust_6="48.94913"></scales>
<clustering>
<clus scale="   46.680">  2  3  1 -1</clus>
<clus scale="   48.949">  1  6  2 -1</clus>
<clus scale="  105.382">  2  5  1 -1</clus>
<clus scale="   46.680">  2  3  1 -1</clus>
</clustering>
</event>
<event>
 6    0  0.3584505E+002  0.1095442E+03  0.7546771E-02  0.1261416E+00
         21   -1    0    0  501  502  0.00000000000E+00  0.00000000000E+00  0.16355077619E+03  0.16355077619E+03  0.00000000000E+00 0.  1.
         -3   -1    0    0    0  501 -0.00000000000E+00 -0.00000000000E+00 -0.13665328632E+04  0.13665328632E+04  0.00000000000E+00 0.  1.
         21    1    1    2  503  505 -0.13987746477E+03 -0.91308067288E+02 -0.58589221206E+02  0.17701854463E+03  0.00000000000E+00 0.  1.
         21    1    1    2  504  502  0.18806166543E+02  0.28033601906E+02  0.80785527722E+02  0.87554875507E+02  0.00000000000E+00 0.  1.
         21    1    1    2  505  504  0.13066414352E+02  0.58973639797E+02 -0.33758635542E+02  0.69197303767E+02  0.00000000000E+00 0.  1.
         -3    1    1    2    0  503  0.10800488387E+03  0.43008255852E+01 -0.11914197580E+04  0.11963129155E+04  0.00000000000E+00 0.  1.
<scales pt_clust_3="109.54423" pt_clust_4="33.75729" pt_clust_5="67.47725" pt_clust_6="14000.00000"></scales>
<clustering>
<clus scale="   33.757">  1  4  2 -1</clus>
<clus scale="   67.477">  1  5  2 -1</clus>
<clus scale="  109.544">  1  3  2 -1</clus>
<clus scale="   33.757">  1  3  2 -1</clus>
</clustering>
</event>
<event>
 6    0  0.3584505E+002  0.1375384E+03  0.7546771E-02  0.1216680E+00
         21   -1    0    0  501  502  0.00000000000E+00  0.00000000000E+00  0.69459914903E+03  0.69459914903E+03  0.00000000000E+00 0.  1.
          2   -1    0    0  505    0 -0.00000000000E+00 -0.00000000000E+00 -0.38768365914E+03  0.38768365914E+03  0.00000000000E+00 0. -1.
         21    1    1    2  503  504 -0.21854680440E+00  0.42637001011E+02  0.12291404160E+03  0.13009928225E+03  0.00000000000E+00 0. -1.
         21    1    1    2  504  502  0.15560748240E+01  0.88214849244E+02  0.52577298751E+03  0.53312429638E+03  0.00000000000E+00 0.  1.
         21    1    1    2  505  503 -0.55340784181E+02 -0.28392951406E+02 -0.43930959469E+01  0.62354321224E+02  0.00000000000E+00 0.  1.
          2    1    1    2  501    0  0.54003256161E+02 -0.10245889885E+03 -0.33737844328E+03  0.35670490832E+03  0.00000000000E+00 0. -1.
<scales pt_clust_3="30.67159" pt_clust_4="30.67159" pt_clust_5="62.19937" pt_clust_6="130.26956"></scales>
<clustering>
<clus scale="   30.672">  3  4 -1 -1</clus>
<clus scale="   62.199">  2  5  1 -1</clus>
<clus scale="  130.270">  2  6  1 -1</clus>
<clus scale="  137.538">  1  3  2 -1</clus>
</clustering>
</event>
<event>
 6    0  0.3584505E+002  0.1203910E+03  0.7546771E-02  0.1242453E+00
         21   -1    0    0  505  502  0.00000000000E+00  0.00000000000E+00  0.50279059415E+03  0.50279059415E+03  0.00000000000E+00 0.  1.
          2   -1    0    0  503    0 -0.00000000000E+00 -0.00000000000E+00 -0.21442165013E+03  0.21442165013E+03  0.00000000000E+00 0. -1.
         21    1    1    2  503  504 -0.76957071683E+02  0.99066351220E+02  0.25957577455E+02  0.12810280502E+03  0.00000000000E+00 0. -1.
         21    1    1    2  504  502 -0.47474365242E+02  0.27056810404E+02  0.21606558080E+03  0.22286817079E+03  0.00000000000E+00 0.  1.
         21    1    1    2  505  501  0.11879776760E+03 -0.14820909811E+01  0.15876558838E+03  0.19829679330E+03  0.00000000000E+00 0.  1.
          2    1    1    2  501    0  0.56336693256E+01 -0.12464107064E+03 -0.11241980262E+03  0.16794447517E+03  0.00000000000E+00 0. -1.
<scales pt_clust_3="120.39098" pt_clust_4="54.64326" pt_clust_5="90.23563" pt_clust_6="14000.00000"></scales>
<clustering>
<clus scale="   54.643">  1  4  2 -1</clus>
<clus scale="   90.236">  1  5  2 -1</clus>
<clus scale="  120.391">  1  3  2 -1</clus>
<clus scale="   54.643">  1  3  2 -1</clus>
</clustering>
</event>
<event>
 6    0  0.3584505E+002  0.5176031E+02  0.7546771E-02  0.1436072E+00
         21   -1    0    0  505  502  0.00000000000E+00  0.00000000000E+00  0.27767545505E+03  0.27767545505E+03  0.00000000000E+00 0.  1.
          4   -1    0    0  503    0 -0.00000000000E+00 -0.00000000000E+00 -0.99837056613E+03  0.99837056613E+03  0.00000000000E+00 0.  1.
         21    1    1    2  503  504  0.39903032805E+01  0.48384172448E+02 -0.45460156230E+03  0.45718653864E+03  0.00000000000E+00 0. -1.
         21    1    1    2  504  502 -0.92797885654E+02 -0.66137866490E+02 -0.27230012245E+03  0.29518303077E+03  0.00000000000E+00 0.  1.
         21    1    1    2  505  501  0.41710258984E+02  0.29715877359E+02  0.26014117318E+03  0.26513432266E+03  0.00000000000E+00 0.  1.
          4    1    1    2  501    0  0.47097323389E+02 -0.11962183317E+02 -0.25393459951E+03  0.25854212912E+03  0.00000000000E+00 0.  1.
<scales pt_clust_3="48.54844" pt_clust_4="51.76031" pt_clust_5="14000.00000" pt_clust_6="50.17855"></scales>
<clustering>
<clus scale="   48.548">  2  3  1 -1</clus>
<clus scale="   50.179">  2  6  1 -1</clus>
<clus scale="   51.760">  2  4  1 -1</clus>
<clus scale="   51.760">  1  3  2 -1</clus>
</clustering>
</event>
<event>
 6    0  0.3584505E+002  0.1487799E+03  0.7546771E-02  0.1201980E+00
         21   -1    0    0  505  502  0.00000000000E+00  0.00000000000E+00  0.26543426080E+04  0.26543426080E+04  0.00000000000E+00 0. -1.
         -3   -1    0    0    0  501 -0.00000000000E+00 -0.00000000000E+00 -0.68270968452E+03  0.68270968452E+03  0.00000000000E+00 0.  1.
         21    1    1    2  503  501 -0.10879687071E+03  0.43375383495E+02 -0.20315436558E+03  0.23449920943E+03  0.00000000000E+00 0. -1.
         21    1    1    2  504  502 -0.38734940648E+02  0.26109634616E+02  0.85512183618E+03  0.85639679084E+03  0.00000000000E+00 0. -1.
         21    1    1    2  505  503 -0.10417895025E+02  0.35962242829E+02  0.17632393541E+04  0.17636368207E+04  0.00000000000E+00 0. -1.
         -3    1    1    2    0  504  0.15794970638E+03 -0.10544726094E+03 -0.44357390122E+03  0.48251947156E+03  0.00000000000E+00 0.  1.
<scales pt_clust_3="14000.00000" pt_clust_4="77.81118" pt_clust_5="37.44083" pt_clust_6="148.77993"></scales>
<clustering>
<clus scale="   37.441">  1  5  2 -1</clus>
<clus scale="   77.811">  1  4  2 -1</clus>
<clus scale="  148.780">  1  6  2 -1</clus>
<clus scale="   37.441">  1  3  2 -1</clus>
</clustering>
</event>
<event>
 6    0  0.3584505E+002  0.1292326E+03  0.7546771E-02  0.1228599E+00
         21   -1    0    0  505  502  0.00000000000E+00  0.00000000000E+00  0.31851698877E+03  0.31851698877E+03  0.00000000000E+00 0.  1.
          3   -1    0    0  503    0 -0.00000000000E+00 -0.00000000000E+00 -0.22461644443E+04  0.22461644443E+04  0.00000000000E+00 0.  1.
         21    1    1    2  503  504  0.99542297239E+02  0.12395966869E+03 -0.53690640104E+03  0.55994924045E+03  0.00000000000E+00 0. -1.
         21    1    1    2  504  502  0.54860358087E+02 -0.11065877411E+03 -0.30618393644E+03  0.33015697193E+03  0.00000000000E+00 0. -1.
         21    1    1    2  505  501 -0.30547183624E+02  0.18523142870E+02  0.29095077367E+03  0.29313578756E+03  0.00000000000E+00 0.  1.
          3    1    1    2  501    0 -0.12385547170E+03 -0.31824037446E+02 -0.13755078918E+04  0.13814394332E+04  0.00000000000E+00 0.  1.
<scales pt_clust_3="14000.00000" pt_clust_4="110.19523" pt_clust_5="35.72446" pt_clust_6="129.23259"></scales>
<clustering>
<clus scale="   35.724">  1  5  2 -1</clus>
<clus scale="  110.195">  1  4  2 -1</clus>
<clus scale="  129.233">  2  6  1 -1</clus>
<clus scale="   35.724">  1  3  2 -1</clus>
</clustering>
</event>
<event>
 6    0  0.3584505E+002  0.1434521E+03  0.7546771E-02  0.1208758E+00
          2   -1    0    0  502    0 -0.00000000000E+00  0.00000000000E+00  0.12478337624E+04  0.12478337624E+04  0.00000000000E+00 0.  1.
         21   -1    0    0  505  502  0.00000000000E+00 -0.00000000000E+00 -0.15597215819E+03  0.15597215819E+03  0.00000000000E+00 0.  1.
         21    1    1    2  503  504 -0.11587032049E+03 -0.38423662916E+02 -0.27359076970E+02  0.12510326988E+03  0.00000000000E+00 0.  1.
         21    1    1    2  504  501  0.13192055710E+03  0.59074919207E+02  0.70917380908E+03  0.72375435815E+03  0.00000000000E+00 0. -1.
         21    1    1    2  505  503 -0.28204205809E+02  0.12781956889E+02 -0.68451360262E+02  0.75129517295E+02  0.00000000000E+00 0.  1.
          2    1    1    2  501    0  0.12153969207E+02 -0.33433213180E+02  0.47849823234E+03  0.47981877523E+03  0.00000000000E+00 0.  1.
<scales pt_clust_3="14000.00000" pt_clust_4="143.45211" pt_clust_5="30.96539" pt_clust_6="35.40447"></scales>
<clustering>
<clus scale="   30.965">  2  5  1 -1</clus>
<clus scale="   35.404">  1  6  2 -1</clus>
<clus scale="  143.452">  1  4  2 -1</clus>
<clus scale="   30.965">  2  3  1 -1</clus>
</clustering>
</event>
<event>
 6    0  0.3584505E+002  0.7863506E+02  0.7546771E-02  0.1332970E+00
         21   -1    0    0  504  502  0.00000000000E+00  0.00000000000E+00  0.10332285172E+04  0.10332285172E+04  0.00000000000E+00 0. -1.
          1   -1    0    0  505    0 -0.00000000000E+00 -0.00000000000E+00 -0.42945312163E+03  0.42945312163E+03  0.00000000000E+00 0. -1.
         21    1    1    2  503  502  0.19908706874E+02 -0.32369714540E+02  0.80812359043E+03  0.80901662062E+03  0.00000000000E+00 0. -1.
         21    1    1    2  504  501  0.62387840170E+02  0.56215363224E+02  0.27874801815E+02  0.88483977305E+02  0.00000000000E+00 0.  1.
         21    1    1    2  505  503 -0.14230961742E+02 -0.64406575973E+02  0.15578075279E+03  0.16916964929E+03  0.00000000000E+00 0. -1.
          1    1    1    2  501    0 -0.68065585302E+02  0.40560927290E+02 -0.38800374945E+03  0.39601139164E+03  0.00000000000E+00 0. -1.
<scales pt_clust_3="38.00204" pt_clust_4="14000.00000" pt_clust_5="78.36396" pt_clust_6="78.63506"></scales>
<clustering>
<clus scale="   38.002">  1  3  2 -1</clus>
<clus scale="   78.635">  2  6  1 -1</clus>
<clus scale="   78.364">  1  5  2 -1</clus>
<clus scale="   38.002">  1  3  2 -1</clus>
</clustering>
</event>
<event>
 6    0  0.3584505E+002  0.1809501E+03  0.7546771E-02  0.1166887E+00
         -4   -1    0    0    0  501 -0.00000000000E+00  0.00000000000E+00  0.35321389526E+03  0.35321389526E+03  0.00000000000E+00 0.  1.
         21   -1    0    0  505  502  0.00000000000E+00 -0.00000000000E+00 -0.36739709653E+03  0.36739709653E+03  0.00000000000E+00 0.  1.
         21    1    1    2  503  502  0.18976207201E+03 -0.67828346158E+02 -0.87371644334E+02  0.21964547058E+03  0.00000000000E+00 0.  1.
         21    1    1    2  504  501  0.17429192904E+02  0.41674713903E+02  0.10179369715E+02  0.46305270887E+02  0.00000000000E+00 0. -1.
         21    1    1    2  505  504 -0.16401823987E+03  0.43266178110E+02 -0.15619661831E+03  0.23058909070E+03  0.00000000000E+00 0.  1.
         -4    1    1    2    0  503 -0.43173025039E+02 -0.17112545854E+02  0.21920569167E+03  0.22407115962E+03  0.00000000000E+00 0.  1.
<scales pt_clust_3="14000.00000" pt_clust_4="45.17254" pt_clust_5="180.95009" pt_clust_6="33.26766"></scales>
<clustering>
<clus scale="   45.173">  1  4  2 -1</clus>
<clus scale="   33.268">  1  6  2 -1</clus>
<clus scale="  180.950">  2  5  1 -1</clus>
<clus scale="  180.950">  2  3  1 -1</clus>
</clustering>
</event>
<event>
 6    0  0.3584505E+002  0.1325178E+03  0.7546771E-02  0.1223767E+00
         21   -1    0    0  505  502  0.00000000000E+00  0.00000000000E+00  0.74067073384E+03  0.74067073384E+03  0.00000000000E+00 0.  1.
          2   -1    0    0  504    0 -0.00000000000E+00 -0.00000000000E+00 -0.36090975590E+03  0.36090975590E+03  0.00000000000E+00 0.  1.
         21    1    1    2  503  501  0.98624728602E+02  0.11490622742E+03 -0.14523855268E+03  0.20982019774E+03  0.00000000000E+00 0.  1.
         21    1    1    2  504  502  0.58520181833E+01 -0.39708168562E+02  0.76057003540E+02  0.85997979947E+02  0.00000000000E+00 0.  1.
         21    1    1    2  505  503 -0.27298556559E+02  0.17428856977E+02  0.60650175691E+03  0.60736591721E+03  0.00000000000E+00 0.  1.
          2    1    1    2  501    0 -0.77178190226E+02 -0.92626915839E+02 -0.15755922984E+03  0.19839639485E+03  0.00000000000E+00 0.  1.
<scales pt_clust_3="132.51777" pt_clust_4="31.04604" pt_clust_5="32.38790" pt_clust_6="14000.00000"></scales>
<clustering>
<clus scale="   32.388">  1  5  2 -1</clus>
<clus scale="   31.046">  1  4  2 -1</clus>
<clus scale="  132.518">  1  3  2 -1</clus>
<clus scale="   32.388">  1  3  2 -1</clus>
</clustering>
</event>
<event>
 6    0  0.3584505E+002  0.8771961E+02  0.7546771E-02  0.1308470E+00
          2   -1    0    0  505    0 -0.00000000000E+00  0.00000000000E+00  0.41425456740E+04  0.41425456740E+04  0.00000000000E+00 0. -1.
         21   -1    0    0  504  502  0.00000000000E+00 -0.00000000000E+00 -0.30652001813E+03  0.30652001813E+03  0.00000000000E+00 0.  1.
         21    1    1    2  503  501  0.12570234348E+03 -0.42888938972E+02  0.72895691532E+02  0.15150683841E+03  0.00000000000E+00 0. -1.
         21    1    1    2  504  503 -0.39685791270E+02  0.21335748236E+02 -0.25694338681E+03  0.26086410294E+03  0.00000000000E+00 0.  1.
         21    1    1    2  505  502 -0.15457565451E+02 -0.29758009854E+02  0.28049942010E+02  0.43718128127E+02  0.00000000000E+00 0.  1.
          2    1    1    2  501    0 -0.70558986756E+02  0.51311200590E+02  0.39920234091E+04  0.39929766226E+04  0.00000000000E+00 0. -1.
<scales pt_clust_3="87.71961" pt_clust_4="53.27148" pt_clust_5="33.53320" pt_clust_6="14000.00000"></scales>
<clustering>
<clus scale="   33.533">  2  5  1 -1</clus>
<clus scale="   53.271">  2  4  1 -1</clus>
<clus scale="   87.720">  2  3  1 -1</clus>
<clus scale="   33.533">  2  3  1 -1</clus>
</clustering>
</event>
<event>
 6    0  0.3584505E+002  0.1108803E+03  0.7546771E-02  0.1258948E+00
         -1   -1    0    0    0  501 -0.00000000000E+00  0.00000000000E+00  0.11960437283E+04  0.11960437283E+04  0.00000000000E+00 0. -1.
         21   -1    0    0  505  502  0.00000000000E+00 -0.00000000000E+00 -0.12072258609E+04  0.12072258609E+04  0.00000000000E+00 0.  1.
         21    1    1    2  503  502 -0.25800894955E+02  0.95607980051E+02 -0.11683248887E+04  0.11725142292E+04  0.00000000000E+00 0.  1.
         21    1    1    2  504  503  0.11337695372E+03  0.35860665182E+02  0.33109731117E+03  0.35180356793E+03  0.00000000000E+00 0. -1.
         21    1    1    2  505  501 -0.25839569788E+02 -0.63256493661E+02  0.25184914560E+02  0.72824084467E+02  0.00000000000E+00 0. -1.
         -1    1    1    2    0  504 -0.61736488979E+02 -0.68212151573E+02  0.80086053047E+03  0.80612770760E+03  0.00000000000E+00 0. -1.
<scales pt_clust_3="98.92893" pt_clust_4="14000.00000" pt_clust_5="68.33057" pt_clust_6="110.88028"></scales>
<clustering>
<clus scale="   68.331">  1  5  2 -1</clus>
<clus scale="   98.929">  2  3  1 -1</clus>
<clus scale="  110.880">  1  6  2 -1</clus>
<clus scale="   98.929">  2  3  1 -1</clus>
</clustering>
</event>
<event>
 6    0  0.3584505E+002  0.1040036E+03  0.7546771E-02  0.1272095E+00
          1   -1    0    0  504    0 -0.00000000000E+00  0.00000000000E+00  0.43446485635E+03  0.43446485635E+03  0.00000000000E+00 0.  1.
         21   -1    0    0  505  502  0.00000000000E+00 -0.00000000000E+00 -0.74459880202E+03  0.74459880202E+03  0.00000000000E+00 0.  1.
         21    1    1    2  503  501 -0.30756104084E+01 -0.10482411503E+03  0.12072366179E+03  0.15991171623E+03  0.00000000000E+00 0.  1.
         21    1    1    2  504  502 -0.38144543855E+01  0.60803718933E+02 -0.94988165448E+02  0.11284677166E+03  0.00000000000E+00 0.  1.
         21    1    1    2  505  503 -0.61676169907E+02  0.25469508068E+02 -0.61483145770E+03  0.61844188665E+03  0.00000000000E+00 0.  1.
          1    1    1    2  501    0  0.68566234700E+02  0.18550888028E+02  0.27896201569E+03  0.28786328385E+03  0.00000000000E+00 0.  1.
<scales pt_clust_3="14000.00000" pt_clust_4="60.92325" pt_clust_5="104.00365" pt_clust_6="71.11737"></scales>
<clustering>
<clus scale="   60.923">  2  4  1 -1</clus>
<clus scale="   71.117">  1  6  2 -1</clus>
<clus scale="  104.004">  2  5  1 -1</clus>
<clus scale="   60.923">  2  3  1 -1</clus>
</clustering>
</event>
<event>
 6    0  0.3584505E+002  0.8844206E+02  0.7546771E-02  0.1306669E+00
          2   -1    0    0  503    0 -0.00000000000E+00  0.00000000000E+00  0.12265012788E+04  0.12265012788E+04  0.00000000000E+00 0.  1.
         21   -1    0    0  505  502  0.00000000000E+00 -0.00000000000E+00 -0.23830307790E+03  0.23830307790E+03  0.00000000000E+00 0.  1.
         21    1    1    2  503  504  0.99391141924E+02  0.68113248164E+02  0.36253176648E+02  0.12582649358E+03  0.00000000000E+00 0. -1.
         21    1    1    2  504  502 -0.14316717956E+02 -0.40672574165E+02 -0.18865369903E+03  0.19351859048E+03  0.00000000000E+00 0.  1.
         21    1    1    2  505  501 -0.67067040187E+02  0.33046965063E+00  0.57604633155E+03  0.57993747351E+03  0.00000000000E+00 0.  1.
          2    1    1    2  501    0 -0.18007383781E+02 -0.27771143650E+02  0.56455239170E+03  0.56552179911E+03  0.00000000000E+00 0.  1.
<scales pt_clust_3="14000.00000" pt_clust_4="43.23708" pt_clust_5="88.44206" pt_clust_6="33.09837"></scales>
<clustering>
<clus scale="   33.098">  1  6  2 -1</clus>
<clus scale="   43.237">  2  4  1 -1</clus>
<clus scale="   88.442">  1  5  2 -1</clus>
<clus scale="   43.237">  2  3  1 -1</clus>
</clustering>
</event>
<event>
 6    0  0.3584505E+002  0.1193121E+03  0.7546771E-02  0.1244236E+00
          2   -1    0    0  504    0 -0.00000000000E+00  0.00000000000E+00  0.28189709109E+04  0.28189709109E+04  0.00000000000E+00 0.  1.
         21   -1    0    0  503  502  0.00000000000E+00 -0.00000000000E+00 -0.20050548957E+03  0.20050548957E+03  0.00000000000E+00 0. -1.
         21    1    1    2  503  505 -0.21377458899E+01  0.11954724751E+03 -0.73129078805E+02  0.14015697097E+03  0.00000000000E+00 0. -1.
         21    1    1    2  504  502 -0.36799641253E+02 -0.23199135131E+01  0.94917640902E+01  0.38074784052E+02  0.00000000000E+00 0. -1.
         21    1    1    2  505  501 -0.15040553557E+01 -0.11941283416E+03 -0.34526774159E+02  0.12431325463E+03  0.00000000000E+00 0. -1.
          2    1    1    2  501    0  0.40441442498E+02  0.21855001647E+01  0.27166295102E+04  0.27169313908E+04  0.00000000000E+00 0.  1.
<scales pt_clust_3="119.31213" pt_clust_4="36.87269" pt_clust_5="14000.00000" pt_clust_6="40.47057"></scales>
<clustering>
<clus scale="   36.873">  2  4  1 -1</clus>
<clus scale="   40.471">  1  6  2 -1</clus>
<clus scale="  119.312">  2  3  1 -1</clus>
<clus scale="   36.873">  2  3  1 -1</clus>
</clustering>
</event>
<event>
 6    0  0.3584505E+002  0.1017772E+03  0.7546771E-02  0.1276603E+00
          2   -1    0    0  503    0 -0.00000000000E+00  0.00000000000E+00  0.25093873915E+03  0.25093873915E+03  0.00000000000E+00 0. -1.
         21   -1    0    0  505  502  0.00000000000E+00 -0.00000000000E+00 -0.19382552759E+04  0.19382552759E+04  0.00000000000E+00 0. -1.
         21    1    1    2  503  504  0.16295349050E+02  0.66314074961E+02  0.11823848798E+03  0.13654096447E+03  0.00000000000E+00 0. -1.
         21    1    1    2  504  502  0.23492725537E+02 -0.12564857265E+03 -0.70897523249E+03  0.72040637993E+03  0.00000000000E+00 0. -1.
         21    1    1    2  505  501 -0.80512876900E+02  0.60709963053E+02 -0.12087271597E+04  0.12129259539E+04  0.00000000000E+00 0. -1.
          2    1    1    2  501    0  0.40724802313E+02 -0.13754653664E+01  0.11214736746E+03  0.11932071680E+03  0.00000000000E+00 0. -1.
<scales pt_clust_3="84.94557" pt_clust_4="14000.00000" pt_clust_5="101.77718" pt_clust_6="40.74802"></scales>
<clustering>
<clus scale="   40.748">  1  6  2 -1</clus>
<clus scale="   84.946">  1  3  2 -1</clus>
<clus scale="  101.777">  2  5  1 -1</clus>
<clus scale="  101.777">  2  3  1 -1</clus>
</clustering>
</event>
<event>
 6    0  0.3584505E+002  0.1863546E+03  0.7546771E-02  0.1161791E+00
         21   -1    0    0  504  502  0.00000000000E+00  0.00000000000E+00  0.24935073273E+03  0.24935073273E+03  0.00000000000E+00 0. -1.
          2   -1    0    0  503    0 -0.00000000000E+00 -0.00000000000E+00 -0.12505800662E+04  0.12505800662E+04  0.00000000000E+00 0. -1.
         21    1    1    2  503  502  0.11918030142E+03 -0.75443224383E+02 -0.19790587107E+03  0.24302748436E+03  0.00000000000E+00 0. -1.
         21    1    1    2  504  505  0.75573863949E+02  0.66648246937E+02  0.20458064788E+03  0.22804964200E+03  0.00000000000E+00 0. -1.
         21    1    1    2  505  501 -0.87613503866E+02  0.12396769098E+02 -0.29664003703E+03  0.30955632365E+03  0.00000000000E+00 0.  1.
          2    1    1    2  501    0 -0.10714066150E+03 -0.36017916513E+01 -0.71126407322E+03  0.71929734888E+03  0.00000000000E+00 0. -1.
<scales pt_clust_3="173.39378" pt_clust_4="100.76407" pt_clust_5="62.03749" pt_clust_6="62.03749"></scales>
<clustering>
<clus scale="   62.037">  5  6 -1 -1</clus>
<clus scale="  100.764">  1  4  2 -1</clus>
<clus scale="  173.394">  1  3  2 -1</clus>
<clus scale="  100.764">  1  3  2 -1</clus>
</clustering>
</event>
<event>
 6    0  0.3584505E+002  0.6558512E+02  0.7546771E-02  0.1375784E+00
          2   -1    0    0  505    0 -0.00000000000E+00  0.00000000000E+00  0.21318431215E+04  0.21318431215E+04  0.00000000000E+00 0. -1.
         21   -1    0    0  503  502  0.00000000000E+00 -0.00000000000E+00 -0.19062866714E+03  0.19062866714E+03  0.00000000000E+00 0.  1.
         21    1    1    2  503  501  0.36990668233E+02 -0.93888249584E+02 -0.14921101023E+03  0.18013117032E+03  0.00000000000E+00 0.  1.
         21    1    1    2  504  502  0.12774389441E+02  0.52301784127E+02  0.88627355105E+01  0.54563813368E+02  0.00000000000E+00 0.  1.
         21    1    1    2  505  504 -0.76149263761E+02  0.15662234179E+02  0.52031606930E+03  0.52609203370E+03  0.00000000000E+00 0. -1.
          2    1    1    2  501    0  0.26384206087E+02  0.25924231279E+02  0.15612466598E+04  0.15616847713E+04  0.00000000000E+00 0. -1.
<scales pt_clust_3="14000.00000" pt_clust_4="55.59808" pt_clust_5="65.58512" pt_clust_6="36.98908"></scales>
<clustering>
<clus scale="   36.989">  1  6  2 -1</clus>
<clus scale="   55.598">  2  4  1 -1</clus>
<clus scale="   65.585">  1  5  2 -1</clus>
<clus scale="   55.598">  2  3  1 -1</clus>
</clustering>
</event>
<event>
 6    0  0.3584505E+002  0.8702034E+02  0.7546771E-02  0.1310232E+00
         21   -1    0    0  505  502  0.00000000000E+00  0.00000000000E+00  0.57818335630E+03  0.57818335630E+03  0.00000000000E+00 0.  1.
          3   -1    0    0  504    0 -0.00000000000E+00 -0.00000000000E+00 -0.76256672223E+02  0.76256672223E+02  0.00000000000E+00 0.  1.
         21    1    1    2  503  501  0.23023913306E+02 -0.13463609158E+03  0.14089828805E+03  0.19623787941E+03  0.00000000000E+00 0.  1.
         21    1    1    2  504  502 -0.74694021810E+01  0.57118022239E+02  0.13882251989E+03  0.15029954246E+03  0.00000000000E+00 0.  1.
         21    1    1    2  505  503 -0.19290825505E+02  0.29072320768E+02  0.24966478598E+03  0.25209093824E+03  0.00000000000E+00 0.  1.
          3    1    1    2  501    0  0.37363143800E+01  0.48445748577E+02 -0.27458909852E+02  0.55811668409E+02  0.00000000000E+00 0.  1.
<scales pt_clust_3="14000.00000" pt_clust_4="87.02034" pt_clust_5="34.89034" pt_clust_6="49.78951"></scales>
<clustering>
<clus scale="   34.890">  1  5  2 -1</clus>
<clus scale="   49.790">  2  6  1 -1</clus>
<clus scale="   87.020">  1  4  2 -1</clus>
<clus scale="   34.890">  1  3  2 -1</clus>
</clustering>
</event>
<event>
 6    0  0.3584505E+002  0.1158270E+03  0.7546771E-02  0.1250144E+00
          2   -1    0    0  504    0 -0.00000000000E+00  0.00000000000E+00  0.84115458095E+03  0.84115458095E+03  0.00000000000E+00 0. -1.
         21   -1    0    0  503  502  0.00000000000E+00 -0.00000000000E+00 -0.13431199611E+03  0.13431199611E+03  0.00000000000E+00 0.  1.
         21    1    1    2  503  505  0.34113035035E+02 -0.18021788926E+02 -0.25417726207E+02  0.46201134628E+02  0.00000000000E+00 0.  1.
         21    1    1    2  504  502  0.43898649543E+02  0.94771190619E+02  0.82094546914E+02  0.13284647017E+03  0.00000000000E+00 0.  1.
         21    1    1    2  505  501 -0.18554609832E+03 -0.46602802797E+02  0.67071293939E+02  0.20272576132E+03  0.00000000000E+00 0.  1.
          2    1    1    2  501    0  0.10753441374E+03 -0.30146598896E+02  0.58309447019E+03  0.59369321095E+03  0.00000000000E+00 0. -1.
<scales pt_clust_3="38.58088" pt_clust_4="104.39844" pt_clust_5="115.82696" pt_clust_6="14000.00000"></scales>
<clustering>
<clus scale="   38.581">  2  3  1 -1</clus>
<clus scale="  104.398">  2  4  1 -1</clus>
<clus scale="  115.827">  2  5  1 -1</clus>
<clus scale="   38.581">  2  3  1 -1</clus>
</clustering>
</event>
<event>
 6    0  0.3584505E+002  0.1122460E+03  0.7546771E-02  0.1256466E+00
         21   -1    0    0  505  502  0.00000000000E+00  0.00000000000E+00  0.42429341347E+03  0.42429341347E+03  0.00000000000E+00 0.  1.
         -1   -1    0    0    0  501 -0.00000000000E+00 -0.00000000000E+00 -0.11286780078E+03  0.11286780078E+03  0.00000000000E+00 0.  1.
         21    1    1    2  503  502 -0.27027995351E+02  0.24583905133E+02  0.20864737750E+03  0.21182211656E+03  0.00000000000E+00 0.  1.
         21    1    1    2  504  503 -0.96997607655E+02 -0.79580949764E+01  0.14502864910E+03  0.17465731083E+03  0.00000000000E+00 0.  1.
         21    1    1    2  505  501  0.25500717046E+02 -0.22240177928E+02  0.14534058164E+02  0.36825954582E+02  0.00000000000E+00 0. -1.
         -1    1    1    2    0  504  0.98524885960E+02  0.56143677713E+01 -0.56784472072E+02  0.11385583229E+03  0.00000000000E+00 0.  1.
<scales pt_clust_3="36.00812" pt_clust_4="112.24602" pt_clust_5="33.83655" pt_clust_6="14000.00000"></scales>
<clustering>
<clus scale="   33.837">  2  5  1 -1</clus>
<clus scale="   36.008">  1  3  2 -1</clus>
<clus scale="  112.246">  1  4  2 -1</clus>
<clus scale="   36.008">  1  3  2 -1</clus>
</clustering>
</event>
<event>
 6    0  0.3584505E+002  0.1028584E+03  0.7546771E-02  0.1274397E+00
         21   -1    0    0  505  502  0.00000000000E+00  0.00000000000E+00  0.29827117766E+03  0.29827117766E+03  0.00000000000E+00 0. -1.
          2   -1    0    0  504    0 -0.00000000000E+00 -0.00000000000E+00 -0.68071238780E+03  0.68071238780E+03  0.00000000000E+00 0.  1.
         21    1    1    2  503  502  0.22205512902E+02  0.83362839928E+02  0.24501118370E+03  0.25975551587E+03  0.00000000000E+00 0. -1.
         21    1    1    2  504  503  0.24643388394E+02 -0.13143175841E+03 -0.26106194739E+03  0.29331713910E+03  0.00000000000E+00 0.  1.
         21    1    1    2  505  501 -0.11498826982E+02 -0.37627149400E+02  0.80551475005E+01  0.40161060683E+02  0.00000000000E+00 0.  1.
          2    1    1    2  501    0 -0.35350074314E+02  0.85696067883E+02 -0.37444559395E+03  0.38574984982E+03  0.00000000000E+00 0.  1.
<scales pt_clust_3="50.09128" pt_clust_4="14000.00000" pt_clust_5="39.34495" pt_clust_6="102.85841"></scales>
<clustering>
<clus scale="   39.345">  1  5  2 -1</clus>
<clus scale="   50.091">  1  3  2 -1</clus>
<clus scale="  102.858">  2  6  1 -1</clus>
<clus scale="   39.345">  1  3  2 -1</clus>
</clustering>
</event>
<event>
 6    0  0.3584505E+002  0.1144210E+03  0.7546771E-02  0.1252595E+00
         21   -1    0    0  505  502  0.00000000000E+00  0.00000000000E+00  0.13662516872E+03  0.13662516872E+03  0.00000000000E+00 0. -1.
          2   -1    0    0  504    0 -0.00000000000E+00 -0.00000000000E+00 -0.14662582096E+04  0.14662582096E+04  0.00000000000E+00 0. -1.
         21    1    1    2  503  502  0.12887229682E+03 -0.15972392003E+02  0.69974642370E+02  0.14751148013E+03  0.00000000000E+00 0. -1.
         21    1    1    2  504  503  0.24811224452E+02 -0.18074441148E+02 -0.48968719596E+03  0.49064837936E+03  0.00000000000E+00 0. -1.
         21    1    1    2  505  501 -0.25642229766E+02 -0.28192499473E+02  0.53177058388E+01  0.38478811952E+02  0.00000000000E+00 0. -1.
          2    1    1    2  501    0 -0.12804129151E+03  0.62239332624E+02 -0.91523819310E+03  0.92624470685E+03  0.00000000000E+00 0. -1.
<scales pt_clust_3="114.42095" pt_clust_4="30.69662" pt_clust_5="38.05667" pt_clust_6="14000.00000"></scales>
<clustering>
<clus scale="   30.697">  2  4  1 -1</clus>
<clus scale="   38.057">  1  5  2 -1</clus>
<clus scale="  114.421">  1  3  2 -1</clus>
<clus scale="   38.057">  1  3  2 -1</clus>
</clustering>
</event>
<event>
 6    0  0.3584505E+002  0.9696276E+02  0.7546771E-02  0.1286816E+00
         21   -1    0    0  505  502  0.00000000000E+00  0.00000000000E+00  0.35900834042E+02  0.35900834042E+02  0.00000000000E+00 0.  1.
          1   -1    0    0  504    0 -0.00000000000E+00 -0.00000000000E+00 -0.17791670637E+04  0.17791670637E+04  0.00000000000E+00 0.  1.
         21    1    1    2  503  502 -0.35066229601E+02 -0.89219814907E+01 -0.19340796878E+02  0.41028144438E+02  0.00000000000E+00 0.  1.
         21    1    1    2  504  503 -0.63690505328E+02  0.10267889868E+03 -0.19090154666E+03  0.22592661910E+03  0.00000000000E+00 0.  1.
         21    1    1    2  505  501  0.45087161108E+02 -0.15548120105E+02 -0.88964884033E+02  0.10094229404E+03  0.00000000000E+00 0.  1.
          1    1    1    2  501    0  0.53669573822E+02 -0.78208797082E+02 -0.14440590021E+04  0.14471708402E+04  0.00000000000E+00 0.  1.
<scales pt_clust_3="36.18345" pt_clust_4="14000.00000" pt_clust_5="40.74248" pt_clust_6="96.96276"></scales>
<clustering>
<clus scale="   36.183">  1  3  2 -1</clus>
<clus scale="   40.742">  1  5  2 -1</clus>
<clus scale="   96.963">  2  6  1 -1</clus>
<clus scale="   36.183">  1  3  2 -1</clus>
</clustering>
</event>
<event>
 6    0  0.3584505E+002  0.7471363E+02  0.7546771E-02  0.1344760E+00
          2   -1    0    0  502    0 -0.00000000000E+00  0.00000000000E+00  0.10386852315E+04  0.10386852315E+04  0.00000000000E+00 0.  1.
         21   -1    0    0  503  502  0.00000000000E+00 -0.00000000000E+00 -0.21940317945E+03  0.21940317945E+03  0.00000000000E+00 0. -1.
         21    1    1    2  503  504  0.71591369642E+01 -0.72656411972E+02 -0.15177866745E+03  0.16842497242E+03  0.00000000000E+00 0. -1.
         21    1    1    2  504  505  0.54777492797E+02  0.85856738829E+02 -0.10283876672E+02  0.10236069284E+03  0.00000000000E+00 0. -1.
         21    1    1    2  505  501 -0.32128736543E+02 -0.35950346213E+02  0.22882312457E+03  0.23384761158E+03  0.00000000000E+00 0.  1.
          2    1    1    2  501    0 -0.29807893219E+02  0.22750019357E+02  0.75252147161E+03  0.75345513411E+03  0.00000000000E+00 0.  1.
<scales pt_clust_3="14000.00000" pt_clust_4="74.71363" pt_clust_5="58.93222" pt_clust_6="37.49765"></scales>
<clustering>
<clus scale="   37.498">  1  6  2 -1</clus>
<clus scale="   58.932">  1  5  2 -1</clus>
<clus scale="   74.714">  1  4  2 -1</clus>
<clus scale="   74.714">  2  3  1 -1</clus>
</clustering>
</event>
<event>
 6    0  0.3584505E+002  0.8963243E+02  0.7546771E-02  0.1303744E+00
         -3   -1    0    0    0  501 -0.00000000000E+00  0.00000000000E+00  0.11784243177E+03  0.11784243177E+03  0.00000000000E+00 0. -1.
         21   -1    0    0  504  502  0.00000000000E+00 -0.00000000000E+00 -0.18094176742E+04  0.18094176742E+04  0.00000000000E+00 0. -1.
         21    1    1    2  503  502  0.10661565045E+02  0.68806678807E+02 -0.39244510664E+03  0.39857394513E+03  0.00000000000E+00 0.  1.
         21    1    1    2  504  501 -0.10192551794E+03 -0.10760710134E+03 -0.13405403310E+04  0.13487091898E+04  0.00000000000E+00 0. -1.
         21    1    1    2  505  503  0.45524403689E+02  0.35921762436E+02 -0.50743091794E+02  0.77056509865E+02  0.00000000000E+00 0.  1.
         -3    1    1    2    0  505  0.45739549206E+02  0.28786600956E+01  0.92153286971E+02  0.10292046126E+03  0.00000000000E+00 0. -1.
<scales pt_clust_3="71.43416" pt_clust_4="14000.00000" pt_clust_5="89.63243" pt_clust_6="45.83005"></scales>
<clustering>
<clus scale="   45.830">  1  6  2 -1</clus>
<clus scale="   71.434">  2  3  1 -1</clus>
<clus scale="   89.632">  1  5  2 -1</clus>
<clus scale="   71.434">  2  3  1 -1</clus>
</clustering>
</event>
<event>
 6    0  0.3584505E+002  0.8580241E+02  0.7546771E-02  0.1313347E+00
         21   -1    0    0  503  502  0.00000000000E+00  0.00000000000E+00  0.29225585037E+02  0.29225585037E+02  0.00000000000E+00 0. -1.
          2   -1    0    0  505    0 -0.00000000000E+00 -0.00000000000E+00 -0.55618768985E+04  0.55618768985E+04  0.00000000000E+00 0.  1.
         21    1    1    2  503  504  0.24246271093E+02  0.36217946094E+02 -0.24530953742E+03  0.24915134042E+03  0.00000000000E+00 0. -1.
         21    1    1    2  504  501 -0.48211560988E+02  0.10603068985E+03 -0.14064524060E+03  0.18261419853E+03  0.00000000000E+00 0. -1.
         21    1    1    2  505  502 -0.23978432369E+02 -0.71709043200E+02 -0.23426535566E+03  0.24616540975E+03  0.00000000000E+00 0. -1.
          2    1    1    2  501    0  0.47943722264E+02 -0.70539592742E+02 -0.49124311798E+04  0.49131715349E+04  0.00000000000E+00 0.  1.
<scales pt_clust_3="43.58465" pt_clust_4="14000.00000" pt_clust_5="66.49865" pt_clust_6="85.80241"></scales>
<clustering>
<clus scale="   43.585">  1  3  2 -1</clus>
<clus scale="   66.499">  1  5  2 -1</clus>
<clus scale="   85.802">  2  6  1 -1</clus>
<clus scale="   43.585">  1  3  2 -1</clus>
</clustering>
</event>
<event>
 6    0  0.3584505E+002  0.9057740E+02  0.7546771E-02  0.1301459E+00
         21   -1    0    0  505  502  0.00000000000E+00  0.00000000000E+00  0.21130450113E+03  0.21130450113E+03  0.00000000000E+00 0. -1.
          2   -1    0    0  504    0 -0.00000000000E+00 -0.00000000000E+00 -0.30832944015E+03  0.30832944015E+03  0.00000000000E+00 0. -1.
         21    1    1    2  503  502  0.20986919532E+02  0.44449361604E+02  0.78803746104E+02  0.92877483485E+02  0.00000000000E+00 0. -1.
         21    1    1    2  504  503 -0.26677235156E+02 -0.10100364062E+03  0.29014897786E+02  0.10842174407E+03  0.00000000000E+00 0. -1.
         21    1    1    2  505  501  0.71138119627E+02 -0.15038058458E+02  0.18336565863E+02  0.74986698246E+02  0.00000000000E+00 0. -1.
          2    1    1    2  501    0 -0.65447804003E+02  0.71592337475E+02 -0.22318014877E+03  0.24334801548E+03  0.00000000000E+00 0. -1.
<scales pt_clust_3="49.15482" pt_clust_4="78.14711" pt_clust_5="90.57740" pt_clust_6="14000.00000"></scales>
<clustering>
<clus scale="   49.155">  1  3  2 -1</clus>
<clus scale="   78.147">  1  4  2 -1</clus>
<clus scale="   90.577">  1  5  2 -1</clus>
<clus scale="   49.155">  1  3  2 -1</clus>
</clustering>
</event>
<event>
 6    0  0.3584505E+002  0.9383931E+02  0.7546771E-02  0.1293812E+00
         21   -1    0    0  503  502  0.00000000000E+00  0.00000000000E+00  0.68144441211E+02  0.68144441211E+02  0.00000000000E+00 0.  1.
          2   -1    0    0  504    0 -0.00000000000E+00 -0.00000000000E+00 -0.90102311595E+03  0.90102311595E+03  0.00000000000E+00 0.  1.
         21    1    1    2  503  505  0.42119367380E+02 -0.39366165552E+01  0.10962139510E+02  0.43700189485E+02  0.00000000000E+00 0. -1.
         21    1    1    2  504  502 -0.14383365124E+03 -0.64962923112E+01 -0.15070498673E+03  0.20842819883E+03  0.00000000000E+00 0.  1.
         21    1    1    2  505  501  0.56135911269E+02  0.32591577389E+02 -0.85775217259E+02  0.10756783602E+03  0.00000000000E+00 0. -1.
          2    1    1    2  501    0  0.45578372591E+02 -0.22158668522E+02 -0.60736061026E+03  0.60947133282E+03  0.00000000000E+00 0.  1.
<scales pt_clust_3="42.30293" pt_clust_4="14000.00000" pt_clust_5="93.83931" pt_clust_6="51.70478"></scales>
<clustering>
<clus scale="   42.303">  1  3  2 -1</clus>
<clus scale="   51.705">  2  6  1 -1</clus>
<clus scale="   93.839">  2  5  1 -1</clus>
<clus scale="   42.303">  1  3  2 -1</clus>
</clustering>
</event>
<event>
 6    0  0.3584505E+002  0.7605998E+02  0.7546771E-02  0.1340620E+00
         21   -1    0    0  503  502  0.00000000000E+00  0.00000000000E+00  0.40235968449E+03  0.40235968449E+03  0.00000000000E+00 0.  1.
          2   -1    0    0  504    0 -0.00000000000E+00 -0.00000000000E+00 -0.18585981170E+04  0.18585981170E+04  0.00000000000E+00 0. -1.
         21    1    1    2  503  501 -0.54486843161E+02 -0.76863533685E+02  0.21157227239E+03  0.23160234310E+03  0.00000000000E+00 0.  1.
         21    1    1    2  504  505 -0.34706558890E+02  0.16117724871E+01 -0.16555903757E+03  0.16916541597E+03  0.00000000000E+00 0. -1.
         21    1    1    2  505  502  0.41159063407E+02  0.21368045969E+01  0.17544153309E+03  0.18021755177E+03  0.00000000000E+00 0.  1.
          2    1    1    2  501    0  0.48034338644E+02  0.73114956601E+02 -0.16776932004E+04  0.16799724906E+04  0.00000000000E+00 0. -1.
<scales pt_clust_3="14000.00000" pt_clust_4="34.74396" pt_clust_5="41.16567" pt_clust_6="76.05998"></scales>
<clustering>
<clus scale="   34.744">  2  4  1 -1</clus>
<clus scale="   41.166">  1  5  2 -1</clus>
<clus scale="   76.060">  2  6  1 -1</clus>
<clus scale="   41.166">  1  3  2 -1</clus>
</clustering>
</event>
<event>
 6    0  0.3584505E+002  0.1590001E+03  0.7546771E-02  0.1189830E+00
         21   -1    0    0  503  502  0.00000000000E+00  0.00000000000E+00  0.40073639669E+03  0.40073639669E+03  0.00000000000E+00 0. -1.
          2   -1    0    0  505    0 -0.00000000000E+00 -0.00000000000E+00 -0.20399984724E+04  0.20399984724E+04  0.00000000000E+00 0. -1.
         21    1    1    2  503  501 -0.35664543600E+02 -0.91450338398E+02  0.23897768966E+03  0.25835142774E+03  0.00000000000E+00 0. -1.
         21    1    1    2  504  502  0.16039884996E+03 -0.12741484043E+02  0.10246983188E+03  0.19076216325E+03  0.00000000000E+00 0. -1.
         21    1    1    2  505  504 -0.40331273025E+02  0.52164951994E+02 -0.26611590261E+03  0.27416321311E+03  0.00000000000E+00 0.  1.
          2    1    1    2  501    0 -0.84403033336E+02  0.52026870448E+02 -0.17145936946E+04  0.17174580650E+04  0.00000000000E+00 0. -1.
<scales pt_clust_3="97.97336" pt_clust_4="159.00006" pt_clust_5="65.93780" pt_clust_6="14000.00000"></scales>
<clustering>
<clus scale="   65.938">  2  5  1 -1</clus>
<clus scale="   97.973">  1  3  2 -1</clus>
<clus scale="  159.000">  1  4  2 -1</clus>
<clus scale="   97.973">  1  3  2 -1</clus>
</clustering>
</event>
<event>
 6    0  0.3584505E+002  0.1242418E+03  0.7546771E-02  0.1236259E+00
         21   -1    0    0  504  502  0.00000000000E+00  0.00000000000E+00  0.16191943752E+03  0.16191943752E+03  0.00000000000E+00 0.  1.
          2   -1    0    0  505    0 -0.00000000000E+00 -0.00000000000E+00 -0.14763116483E+04  0.14763116483E+04  0.00000000000E+00 0. -1.
         21    1    1    2  503  501 -0.56479117345E+02 -0.74806031085E+02 -0.74561532758E+02  0.11977167925E+03  0.00000000000E+00 0.  1.
         21    1    1    2  504  503 -0.23886731770E+02 -0.21423219168E+02  0.14813138864E+02  0.35340619083E+02  0.00000000000E+00 0. -1.
         21    1    1    2  505  502  0.92887112517E+02  0.13202018313E+03  0.56801840338E+02  0.17112508142E+03  0.00000000000E+00 0.  1.
          2    1    1    2  501    0 -0.12521263402E+02 -0.35790932877E+02 -0.13114456572E+04  0.13119937061E+04  0.00000000000E+00 0. -1.
<scales pt_clust_3="124.24179" pt_clust_4="32.08629" pt_clust_5="14000.00000" pt_clust_6="37.97428"></scales>
<clustering>
<clus scale="   32.086">  1  4  2 -1</clus>
<clus scale="   37.974">  2  6  1 -1</clus>
<clus scale="  124.242">  2  3  1 -1</clus>
<clus scale="   32.086">  1  3  2 -1</clus>
</clustering>
</event>
<event>
 6    0  0.3584505E+002  0.1889236E+03  0.7546771E-02  0.1159436E+00
          1   -1    0    0  505    0 -0.00000000000E+00  0.00000000000E+00  0.12635375931E+04  0.12635375931E+04  0.00000000000E+00 0. -1.
         21   -1    0    0  503  502  0.00000000000E+00 -0.00000000000E+00 -0.10342551419E+04  0.10342551419E+04  0.00000000000E+00 0. -1.
         21    1    1    2  503  504 -0.70597125978E+02 -0.31552197616E+01 -0.63497633593E+03  0.63889659320E+03  0.00000000000E+00 0. -1.
         21    1    1    2  504  501 -0.30911609624E+02 -0.16366349406E+03  0.12364257915E+03  0.20743373467E+03  0.00000000000E+00 0. -1.
         21    1    1    2  505  502  0.38655626235E+02  0.19561000423E+03 -0.32625106153E+03  0.38235753732E+03  0.00000000000E+00 0. -1.
          1    1    1    2  501    0  0.62853109367E+02 -0.28791290405E+02  0.10668672696E+04  0.10691048698E+04  0.00000000000E+00 0. -1.
<scales pt_clust_3="70.05181" pt_clust_4="188.92363" pt_clust_5="14000.00000" pt_clust_6="69.13358"></scales>
<clustering>
<clus scale="   69.134">  1  6  2 -1</clus>
<clus scale="   70.052">  2  3  1 -1</clus>
<clus scale="  188.924">  1  4  2 -1</clus>
<clus scale="   70.052">  2  3  1 -1</clus>
</clustering>
</event>
<event>
 6    0  0.3584505E+002  0.8204857E+02  0.7546771E-02  0.1323336E+00
         -2   -1    0    0    0  501 -0.00000000000E+00  0.00000000000E+00  0.55345260540E+03  0.55345260540E+03  0.00000000000E+00 0.  1.
         21   -1    0    0  504  502  0.00000000000E+00 -0.00000000000E+00 -0.94501295347E+03  0.94501295347E+03  0.00000000000E+00 0.  1.
         21    1    1    2  503  502 -0.21179279812E+02 -0.49099833246E+02 -0.70847550076E+03  0.71049059860E+03  0.00000000000E+00 0.  1.
         21    1    1    2  504  501  0.31224021258E+02 -0.98997980423E+02 -0.17853788254E+03  0.20652194831E+03  0.00000000000E+00 0.  1.
         21    1    1    2  505  503  0.15634569468E+02  0.70563714941E+02 -0.68074710191E+01  0.72594898515E+02  0.00000000000E+00 0.  1.
         -2    1    1    2    0  505 -0.25679310913E+02  0.77534098727E+02  0.50226050625E+03  0.50885811344E+03  0.00000000000E+00 0.  1.
<scales pt_clust_3="53.47294" pt_clust_4="82.04857" pt_clust_5="63.44504" pt_clust_6="14000.00000"></scales>
<clustering>
<clus scale="   53.473">  2  3  1 -1</clus>
<clus scale="   63.445">  2  5  1 -1</clus>
<clus scale="   82.049">  2  4  1 -1</clus>
<clus scale="   53.473">  2  3  1 -1</clus>
</clustering>
</event>
<event>
 6    0  0.3584505E+002  0.9803212E+02  0.7546771E-02  0.1284489E+00
         -1   -1    0    0    0  501 -0.00000000000E+00  0.00000000000E+00  0.39242941836E+03  0.39242941836E+03  0.00000000000E+00 0.  1.
         21   -1    0    0  504  502  0.00000000000E+00 -0.00000000000E+00 -0.37573817140E+03  0.37573817140E+03  0.00000000000E+00 0. -1.
         21    1    1    2  503  502 -0.20314914104E+02 -0.36613666324E+02 -0.16743827153E+03  0.17259441205E+03  0.00000000000E+00 0. -1.
         21    1    1    2  504  505  0.38851078078E+02 -0.21568427132E+02 -0.17000976903E+03  0.17572115662E+03  0.00000000000E+00 0. -1.
         21    1    1    2  505  501  0.82401774778E+02  0.63064075725E+02  0.91145486124E+02  0.13811093286E+03  0.00000000000E+00 0. -1.
         -1    1    1    2    0  503 -0.10093793875E+03 -0.48819822677E+01  0.26299380139E+03  0.28174108824E+03  0.00000000000E+00 0.  1.
<scales pt_clust_3="41.87190" pt_clust_4="56.68591" pt_clust_5="98.03212" pt_clust_6="14000.00000"></scales>
<clustering>
<clus scale="   41.872">  2  3  1 -1</clus>
<clus scale="   56.686">  2  4  1 -1</clus>
<clus scale="   98.032">  2  5  1 -1</clus>
<clus scale="   41.872">  2  3  1 -1</clus>
</clustering>
</event>
<event>
 6    0  0.3584505E+002  0.9474435E+02  0.7546771E-02  0.1291753E+00
          2   -1    0    0  504    0 -0.00000000000E+00  0.00000000000E+00  0.15060097381E+04  0.15060097381E+04  0.00000000000E+00 0.  1.
         21   -1    0    0  505  502  0.00000000000E+00 -0.00000000000E+00 -0.46843273052E+02  0.46843273052E+02  0.00000000000E+00 0.  1.
         21    1    1    2  503  501  0.50422146135E+02  0.74082902500E+02  0.13962714898E+03  0.16591084954E+03  0.00000000000E+00 0.  1.
         21    1    1    2  504  502 -0.11163738475E+03 -0.38659154089E+02  0.16570635921E+03  0.20350929549E+03  0.00000000000E+00 0.  1.
         21    1    1    2  505  503  0.34410645405E+02  0.17782291754E+02  0.12724552216E+02  0.40770291222E+02  0.00000000000E+00 0.  1.
          2    1    1    2  501    0  0.26804593210E+02 -0.53206040165E+02  0.11411084046E+04  0.11426625748E+04  0.00000000000E+00 0.  1.
<scales pt_clust_3="94.74435" pt_clust_4="14000.00000" pt_clust_5="38.73374" pt_clust_6="59.57420"></scales>
<clustering>
<clus scale="   38.734">  2  5  1 -1</clus>
<clus scale="   59.574">  1  6  2 -1</clus>
<clus scale="   94.744">  1  3  2 -1</clus>
<clus scale="   38.734">  2  3  1 -1</clus>
</clustering>
</event>
<event>
 6    0  0.3584505E+002  0.1609632E+03  0.7546771E-02  0.1187614E+00
          1   -1    0    0  502    0 -0.00000000000E+00  0.00000000000E+00  0.33943935655E+03  0.33943935655E+03  0.00000000000E+00 0. -1.
         21   -1    0    0  503  502  0.00000000000E+00 -0.00000000000E+00 -0.14827251705E+03  0.14827251705E+03  0.00000000000E+00 0.  1.
         21    1    1    2  503  504 -0.20003691718E+02  0.73018135726E+02 -0.66494200186E+02  0.10076345809E+03  0.00000000000E+00 0.  1.
         21    1    1    2  504  505  0.26642541137E+02  0.71719721073E+02 -0.90377372106E+01  0.77040405521E+02  0.00000000000E+00 0.  1.
         21    1    1    2  505  501 -0.25790216439E+02 -0.59925579943E+02  0.74946777823E+02  0.99364127840E+02  0.00000000000E+00 0. -1.
          1    1    1    2  501    0  0.19151367020E+02 -0.84812276856E+02  0.19175199908E+03  0.21054388216E+03  0.00000000000E+00 0. -1.
<scales pt_clust_3="69.74687" pt_clust_4="69.74687" pt_clust_5="54.24495" pt_clust_6="157.84403"></scales>
<clustering>
<clus scale="   54.245">  5  6 -1 -1</clus>
<clus scale="   69.747">  3  4 -1 -1</clus>
<clus scale="  157.844">  1  5  2 -1</clus>
<clus scale="  160.963">  2  3  1 -1</clus>
</clustering>
</event>
<event>
 6    0  0.3584505E+002  0.1781450E+03  0.7546771E-02  0.1169611E+00
          1   -1    0    0  505    0 -0.00000000000E+00  0.00000000000E+00  0.14050378588E+04  0.14050378588E+04  0.00000000000E+00 0.  1.
         21   -1    0    0  501  502  0.00000000000E+00 -0.00000000000E+00 -0.20215898820E+03  0.20215898820E+03  0.00000000000E+00 0. -1.
         21    1    1    2  503  504 -0.14011195347E+03 -0.40076711944E+01 -0.55201858185E+02  0.15064748946E+03  0.00000000000E+00 0. -1.
         21    1    1    2  504  502 -0.19771473526E+02  0.11160643303E+03 -0.17825888597E+01  0.11335821401E+03  0.00000000000E+00 0.  1.
         21    1    1    2  505  503  0.21586019476E+03 -0.19130385712E+02  0.26270290335E+03  0.34055015896E+03  0.00000000000E+00 0.  1.
          1    1    1    2  501    0 -0.55976767763E+02 -0.88468376127E+02  0.99716041429E+03  0.10026409846E+04  0.00000000000E+00 0.  1.
<scales pt_clust_3="178.14497" pt_clust_4="103.15185" pt_clust_5="14000.00000" pt_clust_6="104.69027"></scales>
<clustering>
<clus scale="  104.690">  1  6  2 -1</clus>
<clus scale="  103.152">  2  4  1 -1</clus>
<clus scale="  178.145">  2  3  1 -1</clus>
<clus scale="  103.152">  2  3  1 -1</clus>
</clustering>
</event>
<event>
 6    0  0.3584505E+002  0.1510661E+03  0.7546771E-02  0.1199169E+00
          2   -1    0    0  503    0 -0.00000000000E+00  0.00000000000E+00  0.13989823440E+04  0.13989823440E+04  0.00000000000E+00 0.  1.
         21   -1    0    0  505  502  0.00000000000E+00 -0.00000000000E+00 -0.10205581638E+04  0.10205581638E+04  0.00000000000E+00 0. -1.
         21    1    1    2  503  502  0.17764142381E+03  0.22900684360E+01  0.43061778814E+03  0.46582550309E+03  0.00000000000E+00 0. -1.
         21    1    1    2  504  501 -0.10635945767E+03  0.48303206961E+02 -0.54488439704E+03  0.55726523324E+03  0.00000000000E+00 0. -1.
         21    1    1    2  505  504 -0.44636850576E+02 -0.34504108033E+02 -0.44986062286E+03  0.45338456293E+03  0.00000000000E+00 0. -1.
          2    1    1    2  501    0 -0.26645115567E+02 -0.16089167364E+02  0.94255141191E+03  0.94306520856E+03  0.00000000000E+00 0.  1.
<scales pt_clust_3="151.06609" pt_clust_4="14000.00000" pt_clust_5="56.53736" pt_clust_6="31.12593"></scales>
<clustering>
<clus scale="   31.126">  1  6  2 -1</clus>
<clus scale="   56.537">  2  5  1 -1</clus>
<clus scale="  151.066">  1  3  2 -1</clus>
<clus scale="   56.537">  2  3  1 -1</clus>
</clustering>
</event>
<event>
 6    0  0.3584505E+002  0.1063526E+03  0.7546771E-02  0.1267477E+00
         21   -1    0    0  503  502  0.00000000000E+00  0.00000000000E+00  0.10707118322E+03  0.10707118322E+03  0.00000000000E+00 0. -1.
          1   -1    0    0  505    0 -0.00000000000E+00 -0.00000000000E+00 -0.48816954762E+03  0.48816954762E+03  0.00000000000E+00 0.  1.
         21    1    1    2  503  504  0.10005930624E+02  0.41881280110E+02  0.58484917994E+02  0.72626757494E+02  0.00000000000E+00 0. -1.
         21    1    1    2  504  501  0.18960863395E+02 -0.11596568645E+03 -0.14063772892E+03  0.18326626959E+03  0.00000000000E+00 0.  1.
         21    1    1    2  505  502 -0.78132128549E+01  0.10593471806E+03 -0.13925317901E+03  0.17514182439E+03  0.00000000000E+00 0. -1.
          1    1    1    2  501    0 -0.21153581164E+02 -0.31850311725E+02 -0.15969237446E+03  0.16420587935E+03  0.00000000000E+00 0.  1.
<scales pt_clust_3="42.28291" pt_clust_4="106.35259" pt_clust_5="14000.00000" pt_clust_6="38.23501"></scales>
<clustering>
<clus scale="   38.235">  2  6  1 -1</clus>
<clus scale="   42.283">  1  3  2 -1</clus>
<clus scale="  106.353">  1  4  2 -1</clus>
<clus scale="   42.283">  1  3  2 -1</clus>
</clustering>
</event>
<event>
 6    0  0.3584505E+002  0.7673374E+02  0.7546771E-02  0.1338585E+00
          2   -1    0    0  503    0 -0.00000000000E+00  0.00000000000E+00  0.24551008055E+04  0.24551008055E+04  0.00000000000E+00 0.  1.
         21   -1    0    0  501  502  0.00000000000E+00 -0.00000000000E+00 -0.48355130987E+02  0.48355130987E+02  0.00000000000E+00 0. -1.
         21    1    1    2  503  505 -0.57980368728E+02  0.14806598319E+02  0.51484367172E+03  0.51830971901E+03  0.00000000000E+00 0. -1.
         21    1    1    2  504  502 -0.52120101698E+02 -0.52921819100E+02 -0.24654150669E+01  0.74318922283E+02  0.00000000000E+00 0. -1.
         21    1    1    2  505  504  0.80477944054E+02  0.57281768953E+02  0.29555911251E+03  0.31162973145E+03  0.00000000000E+00 0. -1.
          2    1    1    2  501    0  0.29622526372E+02 -0.19166548171E+02  0.15988083054E+04  0.15991975638E+04  0.00000000000E+00 0.  1.
<scales pt_clust_3="40.23665" pt_clust_4="76.73374" pt_clust_5="14000.00000" pt_clust_6="35.28244"></scales>
<clustering>
<clus scale="   35.282">  1  6  2 -1</clus>
<clus scale="   40.237">  1  3  2 -1</clus>
<clus scale="   76.734">  2  4  1 -1</clus>
<clus scale="   76.734">  2  3  1 -1</clus>
</clustering>
</event>
<event>
 6    0  0.3584505E+002  0.9327080E+02  0.7546771E-02  0.1295119E+00
          1   -1    0    0  505    0 -0.00000000000E+00  0.00000000000E+00  0.80467110959E+03  0.80467110959E+03  0.00000000000E+00 0. -1.
         21   -1    0    0  501  502  0.00000000000E+00 -0.00000000000E+00 -0.54922229590E+03  0.54922229590E+03  0.00000000000E+00 0.  1.
         21    1    1    2  503  504 -0.47026316892E+02 -0.14830975763E+02 -0.82546947547E+02  0.96153163608E+02  0.00000000000E+00 0.  1.
         21    1    1    2  504  502  0.61916995322E+02  0.43110252241E+02 -0.38072250190E+03  0.38812605119E+03  0.00000000000E+00 0.  1.
         21    1    1    2  505  503 -0.73226055621E+02 -0.36069115279E+02 -0.51914400466E+02  0.96737486398E+02  0.00000000000E+00 0.  1.
          1    1    1    2  501    0  0.58335377191E+02  0.77898388012E+01  0.77063266360E+03  0.77287670429E+03  0.00000000000E+00 0. -1.
<scales pt_clust_3="35.40858" pt_clust_4="81.38763" pt_clust_5="35.40858" pt_clust_6="58.85319"></scales>
<clustering>
<clus scale="   35.409">  3  5 -1 -1</clus>
<clus scale="   58.853">  1  6  2 -1</clus>
<clus scale="   81.388">  2  4  1 -1</clus>
<clus scale="   81.388">  2  3  1 -1</clus>
</clustering>
</event>
<event>
 6    0  0.3584505E+002  0.1062265E+03  0.7546771E-02  0.1267722E+00
          2   -1    0    0  502    0 -0.00000000000E+00  0.00000000000E+00  0.16262397999E+03  0.16262397999E+03  0.00000000000E+00 0. -1.
         21   -1    0    0  504  502  0.00000000000E+00 -0.00000000000E+00 -0.89855953734E+03  0.89855953734E+03  0.00000000000E+00 0. -1.
         21    1    1    2  503  505 -0.10275924478E+03  0.62082193671E+02 -0.66369318255E+03  0.67446445550E+03  0.00000000000E+00 0. -1.
         21    1    1    2  504  503  0.30270899642E+01 -0.29935027173E+02 -0.17792643768E+03  0.18045244900E+03  0.00000000000E+00 0. -1.
         21    1    1    2  505  501  0.96067749769E+02 -0.67821277281E+02  0.28264758698E+02  0.12094475922E+03  0.00000000000E+00 0. -1.
          2    1    1    2  501    0  0.36644050432E+01  0.35674110783E+02  0.77419304186E+02  0.85321853620E+02  0.00000000000E+00 0. -1.
<scales pt_clust_3="14000.00000" pt_clust_4="30.08769" pt_clust_5="106.22652" pt_clust_6="35.69997"></scales>
<clustering>
<clus scale="   30.088">  2  4  1 -1</clus>
<clus scale="   35.700">  1  6  2 -1</clus>
<clus scale="  106.227">  1  5  2 -1</clus>
<clus scale="   30.088">  2  3  1 -1</clus>
</clustering>
</event>
<event>
 6    0  0.3584505E+002  0.1915686E+03  0.7546771E-02  0.1157054E+00
          2   -1    0    0  505    0 -0.00000000000E+00  0.00000000000E+00  0.13978586367E+04  0.13978586367E+04  0.00000000000E+00 0. -1.
         21   -1    0    0  501  502  0.00000000000E+00 -0.00000000000E+00 -0.24769684638E+03  0.24769684638E+03  0.00000000000E+00 0. -1.
         21    1    1    2  503  502  0.50013576084E+02  0.18668950562E+02 -0.84172792065E+02  0.99674201435E+02  0.00000000000E+00 0.  1.
         21    1    1    2  504  503  0.76745877941E+01  0.80165453279E+02 -0.53439096341E+02  0.96649553620E+02  0.00000000000E+00 0. -1.
         21    1    1    2  505  504  0.11775965805E+03 -0.11752873233E+01 -0.25667710228E+02  0.12053028546E+03  0.00000000000E+00 0. -1.
          2    1    1    2  501    0 -0.17544782193E+03 -0.97659116517E+02  0.13134413890E+04  0.13287014426E+04  0.00000000000E+00 0. -1.
<scales pt_clust_3="53.38434" pt_clust_4="94.65006" pt_clust_5="191.56855" pt_clust_6="14000.00000"></scales>
<clustering>
<clus scale="   53.384">  2  3  1 -1</clus>
<clus scale="   94.650">  2  4  1 -1</clus>
<clus scale="  191.569">  2  5  1 -1</clus>
<clus scale="   53.384">  2  3  1 -1</clus>
</clustering>
</event>
<event>
 6    0  0.3584505E+002  0.2219214E+03  0.7546771E-02  0.1132459E+00
          2   -1    0    0  505    0 -0.00000000000E+00  0.00000000000E+00  0.47116769284E+04  0.47116769284E+04  0.00000000000E+00 0.  1.
         21   -1    0    0  504  502  0.00000000000E+00 -0.00000000000E+00 -0.30627364924E+03  0.30627364924E+03  0.00000000000E+00 0. -1.
         21    1    1    2  503  502  0.12666325902E+02  0.87394474038E+02 -0.24711357363E+02  0.91699951401E+02  0.00000000000E+00 0. -1.
         21    1    1    2  504  501 -0.18970480252E+03 -0.18473883911E+03 -0.12083592958E+03  0.29106300461E+03  0.00000000000E+00 0. -1.
         21    1    1    2  505  503  0.24688615113E+03  0.10616808959E+03  0.38992922217E+03  0.47357072668E+03  0.00000000000E+00 0. -1.
          2    1    1    2  501    0 -0.69847674515E+02 -0.88237245110E+01  0.41610213439E+04  0.41616168949E+04  0.00000000000E+00 0.  1.
<scales pt_clust_3="87.26420" pt_clust_4="14000.00000" pt_clust_5="221.92145" pt_clust_6="70.40281"></scales>
<clustering>
<clus scale="   70.403">  1  6  2 -1</clus>
<clus scale="   87.264">  2  3  1 -1</clus>
<clus scale="  221.921">  1  5  2 -1</clus>
<clus scale="   87.264">  2  3  1 -1</clus>
</clustering>
</event>
<event>
 6    0  0.3584505E+002  0.1671301E+03  0.7546771E-02  0.1180874E+00
          2   -1    0    0  503    0 -0.00000000000E+00  0.00000000000E+00  0.98573430310E+03  0.98573430310E+03  0.00000000000E+00 0.  1.
         21   -1    0    0  504  502  0.00000000000E+00 -0.00000000000E+00 -0.11724973666E+04  0.11724973666E+04  0.00000000000E+00 0. -1.
         21    1    1    2  503  502  0.10808379205E+03  0.10385221170E+02  0.20391574163E+03  0.23102291793E+03  0.00000000000E+00 0. -1.
         21    1    1    2  504  505  0.84769893244E+02  0.11105536813E+03 -0.53003860672E+03  0.54814245795E+03  0.00000000000E+00 0. -1.
         21    1    1    2  505  501 -0.22068646062E+03 -0.21715908334E+03 -0.57752568572E+03  0.65528352569E+03  0.00000000000E+00 0. -1.
          2    1    1    2  501    0  0.27832775325E+02  0.95718494044E+02  0.71688548732E+03  0.72378276811E+03  0.00000000000E+00 0.  1.
<scales pt_clust_3="167.13013" pt_clust_4="142.88752" pt_clust_5="14000.00000" pt_clust_6="99.68296"></scales>
<clustering>
<clus scale="   99.683">  1  6  2 -1</clus>
<clus scale="  142.888">  2  4  1 -1</clus>
<clus scale="  167.130">  1  3  2 -1</clus>
<clus scale="  142.888">  2  3  1 -1</clus>
</clustering>
</event>
<event>
 6    0  0.3584505E+002  0.8292949E+02  0.7546771E-02  0.1320938E+00
          2   -1    0    0  504    0 -0.00000000000E+00  0.00000000000E+00  0.18283597073E+04  0.18283597073E+04  0.00000000000E+00 0.  1.
         21   -1    0    0  505  502  0.00000000000E+00 -0.00000000000E+00 -0.20937661967E+03  0.20937661967E+03  0.00000000000E+00 0.  1.
         21    1    1    2  503  501 -0.59158682271E+02 -0.77567944198E+02  0.14937178330E+03  0.17840533989E+03  0.00000000000E+00 0. -1.
         21    1    1    2  504  502  0.62704281848E+02 -0.13263510913E+02 -0.15566194098E+03  0.16834009491E+03  0.00000000000E+00 0.  1.
         21    1    1    2  505  503  0.99549601479E+01  0.57021140639E+02 -0.70056852013E+01  0.58306014583E+02  0.00000000000E+00 0.  1.
          2    1    1    2  501    0 -0.13500559725E+02  0.33810314472E+02  0.16322789305E+04  0.16326848775E+04  0.00000000000E+00 0.  1.
<scales pt_clust_3="14000.00000" pt_clust_4="82.92949" pt_clust_5="61.99160" pt_clust_6="36.40608"></scales>
<clustering>
<clus scale="   36.406">  1  6  2 -1</clus>
<clus scale="   61.992">  2  5  1 -1</clus>
<clus scale="   82.929">  2  4  1 -1</clus>
<clus scale="   61.992">  2  3  1 -1</clus>
</clustering>
</event>
<event>
 6    0  0.3584505E+002  0.1119176E+03  0.7546771E-02  0.1257059E+00
          2   -1    0    0  504    0 -0.00000000000E+00  0.00000000000E+00  0.15274233132E+04  0.15274233132E+04  0.00000000000E+00 0.  1.
         21   -1    0    0  503  502  0.00000000000E+00 -0.00000000000E+00 -0.18060967315E+04  0.18060967315E+04  0.00000000000E+00 0.  1.
         21    1    1    2  503  505  0.18923333498E+02 -0.53754339318E+02 -0.17259102653E+04  0.17268508521E+04  0.00000000000E+00 0.  1.
         21    1    1    2  504  502 -0.35442485251E+02 -0.72032478097E+02 -0.40704684066E+02  0.90009549307E+02  0.00000000000E+00 0. -1.
         21    1    1    2  505  501  0.44427133773E+02  0.96285941376E+02  0.18615009177E+03  0.21423493970E+03  0.00000000000E+00 0. -1.
          2    1    1    2  501    0 -0.27907982020E+02  0.29500876039E+02  0.13017914393E+04  0.13024247036E+04  0.00000000000E+00 0.  1.
<scales pt_clust_3="56.91049" pt_clust_4="14000.00000" pt_clust_5="111.91763" pt_clust_6="40.60982"></scales>
<clustering>
<clus scale="   40.610">  1  6  2 -1</clus>
<clus scale="   56.910">  2  3  1 -1</clus>
<clus scale="  111.918">  1  5  2 -1</clus>
<clus scale="   56.910">  2  3  1 -1</clus>
</clustering>
</event>
<event>
 6    0  0.3584505E+002  0.1249508E+03  0.7546771E-02  0.1235146E+00
          2   -1    0    0  504    0 -0.00000000000E+00  0.00000000000E+00  0.62978678332E+03  0.62978678332E+03  0.00000000000E+00 0.  1.
         21   -1    0    0  503  502  0.00000000000E+00 -0.00000000000E+00 -0.79874612935E+03  0.79874612935E+03  0.00000000000E+00 0.  1.
         21    1    1    2  503  505 -0.31554942951E+02  0.73819946254E+01 -0.11299004534E+03  0.11754555974E+03  0.00000000000E+00 0.  1.
         21    1    1    2  504  502 -0.55067865028E+02 -0.19035686329E+02 -0.49723869027E+02  0.76598239300E+02  0.00000000000E+00 0. -1.
         21    1    1    2  505  501 -0.19191465309E+02  0.79399910898E+02 -0.61114435499E+03  0.61657933863E+03  0.00000000000E+00 0.  1.
          2    1    1    2  501    0  0.10581427329E+03 -0.67746219194E+02  0.60489892333E+03  0.61780977500E+03  0.00000000000E+00 0.  1.
<scales pt_clust_3="32.40692" pt_clust_4="60.81927" pt_clust_5="124.95078" pt_clust_6="14000.00000"></scales>
<clustering>
<clus scale="   32.407">  2  3  1 -1</clus>
<clus scale="   60.819">  2  4  1 -1</clus>
<clus scale="  124.951">  2  5  1 -1</clus>
<clus scale="   32.407">  2  3  1 -1</clus>
</clustering>
</event>
<event>
 6    0  0.3584505E+002  0.8150398E+02  0.7546771E-02  0.1324837E+00
          2   -1    0    0  504    0 -0.00000000000E+00  0.00000000000E+00  0.24844286682E+04  0.24844286682E+04  0.00000000000E+00 0. -1.
         21   -1    0    0  503  502  0.00000000000E+00 -0.00000000000E+00 -0.36668913428E+02  0.36668913428E+02  0.00000000000E+00 0.  1.
         21    1    1    2  503  501  0.42587028152E+02  0.54943173144E+02  0.21686617577E+03  0.22773525295E+03  0.00000000000E+00 0.  1.
         21    1    1    2  504  505 -0.50605805509E+02  0.38574705900E+02  0.21115407738E+03  0.22053344390E+03  0.00000000000E+00 0. -1.
         21    1    1    2  505  502  0.39747885619E+02 -0.15990458844E+02 -0.78098694566E+01  0.43549778945E+02  0.00000000000E+00 0.  1.
          2    1    1    2  501    0 -0.31729108262E+02 -0.77527420199E+02  0.20275493711E+04  0.20292791059E+04  0.00000000000E+00 0. -1.
<scales pt_clust_3="81.50398" pt_clust_4="46.25970" pt_clust_5="42.84378" pt_clust_6="14000.00000"></scales>
<clustering>
<clus scale="   42.844">  2  5  1 -1</clus>
<clus scale="   46.260">  2  4  1 -1</clus>
<clus scale="   81.504">  2  3  1 -1</clus>
<clus scale="   42.844">  2  3  1 -1</clus>
</clustering>
</event>
<event>
 6    0  0.3584505E+002  0.1285575E+03  0.7546771E-02  0.1229612E+00
         21   -1    0    0  501  502  0.00000000000E+00  0.00000000000E+00  0.27571491940E+03  0.27571491940E+03  0.00000000000E+00 0.  1.
          1   -1    0    0  505    0 -0.00000000000E+00 -0.00000000000E+00 -0.62355894600E+03  0.62355894600E+03  0.00000000000E+00 0.  1.
         21    1    1    2  503  504 -0.58653504030E+01  0.52979823166E+02  0.86632972548E+02  0.10171792335E+03  0.00000000000E+00 0.  1.
         21    1    1    2  504  502  0.33972823433E+02  0.64737353329E+02  0.14857054115E+03  0.16558467123E+03  0.00000000000E+00 0.  1.
         21    1    1    2  505  503 -0.46711196233E+02  0.50925637912E+02 -0.23199464930E+03  0.24206791145E+03  0.00000000000E+00 0. -1.
          1    1    1    2  501    0  0.18603723203E+02 -0.16864281441E+03 -0.35105289099E+03  0.38990335936E+03  0.00000000000E+00 0.  1.
<scales pt_clust_3="32.87792" pt_clust_4="32.87792" pt_clust_5="69.10395" pt_clust_6="122.65563"></scales>
<clustering>
<clus scale="   32.878">  3  4 -1 -1</clus>
<clus scale="   69.104">  2  5  1 -1</clus>
<clus scale="  122.656">  2  6  1 -1</clus>
<clus scale="  128.557">  1  3  2 -1</clus>
</clustering>
</event>
<event>
 6    0  0.3584505E+002  0.1077371E+03  0.7546771E-02  0.1264819E+00
          2   -1    0    0  502    0 -0.00000000000E+00  0.00000000000E+00  0.27765480201E+04  0.27765480201E+04  0.00000000000E+00 0. -1.
         21   -1    0    0  504  502  0.00000000000E+00 -0.00000000000E+00 -0.46148110522E+02  0.46148110522E+02  0.00000000000E+00 0. -1.
         21    1    1    2  503  505  0.83143732796E+01 -0.12635080053E+03  0.48702877778E+03  0.50322031356E+03  0.00000000000E+00 0. -1.
         21    1    1    2  504  503 -0.57590717339E+02  0.45930482098E+02  0.97358532929E+01  0.74304015697E+02  0.00000000000E+00 0. -1.
         21    1    1    2  505  501  0.10340240578E+03  0.77737385547E+02  0.79016783595E+03  0.80068743440E+03  0.00000000000E+00 0. -1.
          2    1    1    2  501    0 -0.54126061716E+02  0.26829328842E+01  0.14434674426E+04  0.14444843670E+04  0.00000000000E+00 0. -1.
<scales pt_clust_3="14000.00000" pt_clust_4="75.05717" pt_clust_5="107.73709" pt_clust_6="54.19252"></scales>
<clustering>
<clus scale="   54.193">  1  6  2 -1</clus>
<clus scale="   75.057">  2  4  1 -1</clus>
<clus scale="  107.737">  1  5  2 -1</clus>
<clus scale="   75.057">  2  3  1 -1</clus>
</clustering>
</event>
<event>
 6    0  0.3584505E+002  0.2106630E+03  0.7546771E-02  0.1141042E+00
         -1   -1    0    0    0  501 -0.00000000000E+00  0.00000000000E+00  0.90920216213E+03  0.90920216213E+03  0.00000000000E+00 0. -1.
         21   -1    0    0  505  502  0.00000000000E+00 -0.00000000000E+00 -0.28448386445E+03  0.28448386445E+03  0.00000000000E+00 0. -1.
         21    1    1    2  503  502  0.11418289556E+02 -0.15548807108E+03 -0.15936884902E+03  0.22294696145E+03  0.00000000000E+00 0. -1.
         21    1    1    2  504  503  0.53523852988E+02 -0.33126218717E+02 -0.42175060091E+02  0.75768627406E+02  0.00000000000E+00 0. -1.
         21    1    1    2  505  501  0.24123132138E+02  0.15663000114E+03  0.17191477893E+03  0.23381525608E+03  0.00000000000E+00 0. -1.
         -1    1    1    2    0  504 -0.89065274682E+02  0.31984288656E+02  0.65434742786E+03  0.66115518165E+03  0.00000000000E+00 0. -1.
<scales pt_clust_3="59.66790" pt_clust_4="59.66790" pt_clust_5="188.57535" pt_clust_6="94.63413"></scales>
<clustering>
<clus scale="   59.668">  3  4 -1 -1</clus>
<clus scale="   94.634">  1  6  2 -1</clus>
<clus scale="  188.575">  1  5  2 -1</clus>
<clus scale="  210.663">  2  3  1 -1</clus>
</clustering>
</event>
<event>
 6    0  0.3584505E+002  0.1403076E+03  0.7546771E-02  0.1212916E+00
          2   -1    0    0  505    0 -0.00000000000E+00  0.00000000000E+00  0.39457837461E+04  0.39457837461E+04  0.00000000000E+00 0. -1.
         21   -1    0    0  504  502  0.00000000000E+00 -0.00000000000E+00 -0.18369605682E+02  0.18369605682E+02  0.00000000000E+00 0.  1.
         21    1    1    2  503  502  0.48851470014E+02  0.96666052233E+01  0.37972444288E+02  0.62624403425E+02  0.00000000000E+00 0.  1.
         21    1    1    2  504  501 -0.79249333660E+02 -0.38820333555E+02  0.14502120648E+04  0.14528945276E+04  0.00000000000E+00 0. -1.
         21    1    1    2  505  503  0.81804267219E+02  0.51733632140E+02  0.54202390659E+03  0.55059805861E+03  0.00000000000E+00 0.  1.
          2    1    1    2  501    0 -0.51406403573E+02 -0.22579903808E+02  0.18972057247E+04  0.18980363621E+04  0.00000000000E+00 0. -1.
<scales pt_clust_3="49.79869" pt_clust_4="41.37855" pt_clust_5="130.36553" pt_clust_6="41.37855"></scales>
<clustering>
<clus scale="   41.379">  4  6 -1 -1</clus>
<clus scale="   49.799">  2  3  1 -1</clus>
<clus scale="  130.366">  2  5  1 -1</clus>
<clus scale="   49.799">  2  3  1 -1</clus>
</clustering>
</event>
<event>
 6    0  0.3584505E+002  0.1250097E+03  0.7546771E-02  0.1235054E+00
          2   -1    0    0  502    0 -0.00000000000E+00  0.00000000000E+00  0.63075243056E+02  0.63075243056E+02  0.00000000000E+00 0. -1.
         21   -1    0    0  504  502  0.00000000000E+00 -0.00000000000E+00 -0.18462834675E+04  0.18462834675E+04  0.00000000000E+00 0. -1.
         21    1    1    2  503  501 -0.95888048261E+01 -0.77648667687E+02 -0.22046605665E+03  0.23393704902E+03  0.00000000000E+00 0.  1.
         21    1    1    2  504  505  0.36828392911E+02  0.34150999895E+02 -0.59954886813E+03  0.60164895628E+03  0.00000000000E+00 0. -1.
         21    1    1    2  505  503  0.19063031844E+02  0.91836628357E+02 -0.99517671745E+03  0.99958694691E+03  0.00000000000E+00 0. -1.
          2    1    1    2  501    0 -0.46302619929E+02 -0.48338960566E+02  0.31983417812E+02  0.74185758309E+02  0.00000000000E+00 0. -1.
<scales pt_clust_3="117.54757" pt_clust_4="31.13243" pt_clust_5="31.13243" pt_clust_6="66.93719"></scales>
<clustering>
<clus scale="   31.132">  4  5 -1 -1</clus>
<clus scale="   66.937">  1  6  2 -1</clus>
<clus scale="  117.548">  1  3  2 -1</clus>
<clus scale="  125.010">  2  3  1 -1</clus>
</clustering>
</event>
<event>
 6    0  0.3584505E+002  0.1224261E+03  0.7546771E-02  0.1239148E+00
         21   -1    0    0  503  502  0.00000000000E+00  0.00000000000E+00  0.19520224112E+03  0.19520224112E+03  0.00000000000E+00 0. -1.
          1   -1    0    0  505    0 -0.00000000000E+00 -0.00000000000E+00 -0.30451711709E+03  0.30451711709E+03  0.00000000000E+00 0.  1.
         21    1    1    2  503  504  0.32146535871E+01  0.34444281223E+02  0.58854007185E+02  0.68268123369E+02  0.00000000000E+00 0. -1.
         21    1    1    2  504  501 -0.11773219444E+03 -0.56903633372E+02 -0.32413947488E+01  0.13080290417E+03  0.00000000000E+00 0. -1.
         21    1    1    2  505  502  0.95391087870E+02  0.63325632521E+02  0.14703329830E+02  0.11543735655E+03  0.00000000000E+00 0. -1.
          1    1    1    2  501    0  0.19126452983E+02 -0.40866280372E+02 -0.17963081824E+03  0.18521097413E+03  0.00000000000E+00 0.  1.
<scales pt_clust_3="34.59397" pt_clust_4="122.42608" pt_clust_5="14000.00000" pt_clust_6="44.48989"></scales>
<clustering>
<clus scale="   34.594">  1  3  2 -1</clus>
<clus scale="   44.490">  2  6  1 -1</clus>
<clus scale="  122.426">  1  4  2 -1</clus>
<clus scale="   34.594">  1  3  2 -1</clus>
</clustering>
</event>
<event>
 6    0  0.3584505E+002  0.1005278E+03  0.7546771E-02  0.1279190E+00
          1   -1    0    0  505    0 -0.00000000000E+00  0.00000000000E+00  0.95949401317E+03  0.95949401317E+03  0.00000000000E+00 0.  1.
         21   -1    0    0  503  502  0.00000000000E+00 -0.00000000000E+00 -0.29017991193E+03  0.29017991193E+03  0.00000000000E+00 0. -1.
         21    1    1    2  503  504  0.95379158384E+02 -0.20747039049E+02 -0.23744806170E+03  0.25672788218E+03  0.00000000000E+00 0. -1.
         21    1    1    2  504  501 -0.13668769030E+03  0.67392820981E+01  0.73616017220E+02  0.15539710613E+03  0.00000000000E+00 0.  1.
         21    1    1    2  505  502 -0.34465797504E+01  0.34106135635E+02  0.24941390720E+03  0.25175862350E+03  0.00000000000E+00 0.  1.
          1    1    1    2  501    0  0.44755111668E+02 -0.20098378685E+02  0.58373223852E+03  0.58579031328E+03  0.00000000000E+00 0.  1.
<scales pt_clust_3="100.52779" pt_clust_4="14000.00000" pt_clust_5="34.27984" pt_clust_6="42.67535"></scales>
<clustering>
<clus scale="   34.280">  1  5  2 -1</clus>
<clus scale="   42.675">  1  6  2 -1</clus>
<clus scale="  100.528">  2  3  1 -1</clus>
<clus scale="  100.528">  2  3  1 -1</clus>
</clustering>
</event>
<event>
 6    0  0.3584505E+002  0.8716763E+02  0.7546771E-02  0.1309859E+00
          1   -1    0    0  503    0 -0.00000000000E+00  0.00000000000E+00  0.24959590976E+04  0.24959590976E+04  0.00000000000E+00 0. -1.
         21   -1    0    0  504  502  0.00000000000E+00 -0.00000000000E+00 -0.20543605426E+03  0.20543605426E+03  0.00000000000E+00 0. -1.
         21    1    1    2  503  505 -0.75560645033E+01  0.82628966002E+02  0.43164715126E+03  0.43954965968E+03  0.00000000000E+00 0.  1.
         21    1    1    2  504  501  0.90971612099E+02 -0.76094668717E+02 -0.76073845972E+02  0.14090231672E+03  0.00000000000E+00 0. -1.
         21    1    1    2  505  502 -0.35497929716E+02  0.90760963384E+01 -0.89061906820E+02  0.96304214784E+02  0.00000000000E+00 0. -1.
          1    1    1    2  501    0 -0.47917617879E+02 -0.15610393623E+02  0.20240116449E+04  0.20246389607E+04  0.00000000000E+00 0. -1.
<scales pt_clust_3="87.16763" pt_clust_4="14000.00000" pt_clust_5="36.63985" pt_clust_6="50.48236"></scales>
<clustering>
<clus scale="   36.640">  2  5  1 -1</clus>
<clus scale="   50.482">  1  6  2 -1</clus>
<clus scale="   87.168">  1  3  2 -1</clus>
<clus scale="   36.640">  2  3  1 -1</clus>
</clustering>
</event>
<event>
 6    0  0.3584505E+002  0.7668197E+02  0.7546771E-02  0.1338740E+00
          2   -1    0    0  504    0 -0.00000000000E+00  0.00000000000E+00  0.13821101706E+04  0.13821101706E+04  0.00000000000E+00 0. -1.
         21   -1    0    0  505  502  0.00000000000E+00 -0.00000000000E+00 -0.19566045217E+02  0.19566045217E+02  0.00000000000E+00 0. -1.
         21    1    1    2  503  501 -0.82096061657E+02  0.27821385130E+02  0.72350650061E+03  0.72868062225E+03  0.00000000000E+00 0. -1.
         21    1    1    2  504  502  0.89732930605E+02 -0.46204919309E+01  0.25208376479E+03  0.26761833317E+03  0.00000000000E+00 0. -1.
         21    1    1    2  505  503 -0.35678634100E+02 -0.38866159776E+02  0.74572265628E+02  0.91348596638E+02  0.00000000000E+00 0. -1.
          2    1    1    2  501    0  0.28041765151E+02  0.15665266577E+02  0.31238159434E+03  0.31402866374E+03  0.00000000000E+00 0. -1.
<scales pt_clust_3="14000.00000" pt_clust_4="76.68197" pt_clust_5="50.39790" pt_clust_6="32.12073"></scales>
<clustering>
<clus scale="   32.121">  1  6  2 -1</clus>
<clus scale="   50.398">  2  5  1 -1</clus>
<clus scale="   76.682">  2  4  1 -1</clus>
<clus scale="   50.398">  2  3  1 -1</clus>
</clustering>
</event>
<event>
 6    0  0.3584505E+002  0.6331100E+02  0.7546771E-02  0.1384440E+00
          2   -1    0    0  505    0 -0.00000000000E+00  0.00000000000E+00  0.66858726755E+03  0.66858726755E+03  0.00000000000E+00 0.  1.
         21   -1    0    0  501  502  0.00000000000E+00 -0.00000000000E+00 -0.82805492388E+03  0.82805492388E+03  0.00000000000E+00 0.  1.
         21    1    1    2  503  504 -0.61502726315E+02  0.16185296925E+02 -0.81597550005E+02  0.10345389962E+03  0.00000000000E+00 0. -1.
         21    1    1    2  504  502  0.39482227894E+02 -0.51459512638E+02 -0.72014518494E+03  0.72306017395E+03  0.00000000000E+00 0.  1.
         21    1    1    2  505  503  0.18951658450E+02 -0.57765238317E+02  0.47346423180E+03  0.47735140820E+03  0.00000000000E+00 0.  1.
          2    1    1    2  501    0  0.30688399714E+01  0.93039454030E+02  0.16881084681E+03  0.19277670966E+03  0.00000000000E+00 0.  1.
<scales pt_clust_3="63.31100" pt_clust_4="14000.00000" pt_clust_5="60.79464" pt_clust_6="44.18298"></scales>
<clustering>
<clus scale="   60.795">  1  5  2 -1</clus>
<clus scale="   44.183">  1  6  2 -1</clus>
<clus scale="   63.311">  1  3  2 -1</clus>
<clus scale="   63.311">  2  3  1 -1</clus>
</clustering>
</event>
<event>
 6    0  0.3584505E+002  0.1051797E+03  0.7546771E-02  0.1269766E+00
          3   -1    0    0  502    0 -0.00000000000E+00  0.00000000000E+00  0.19639724285E+04  0.19639724285E+04  0.00000000000E+00 0.  1.
         21   -1    0    0  505  502  0.00000000000E+00 -0.00000000000E+00 -0.63622102611E+02  0.63622102611E+02  0.00000000000E+00 0.  1.
         21    1    1    2  503  504  0.73711400569E+02 -0.19362205687E+00  0.17881327519E+03  0.19341043262E+03  0.00000000000E+00 0.  1.
         21    1    1    2  504  501 -0.16267956134E+01 -0.54182908681E+02  0.39132584133E+03  0.39506246108E+03  0.00000000000E+00 0.  1.
         21    1    1    2  505  503 -0.97986212641E+02  0.70329445873E+02  0.12723055232E+02  0.12128233573E+03  0.00000000000E+00 0.  1.
          3    1    1    2  501    0  0.25901607685E+02 -0.15952915135E+02  0.13174881541E+04  0.13178393017E+04  0.00000000000E+00 0.  1.
<scales pt_clust_3="14000.00000" pt_clust_4="65.43227" pt_clust_5="105.17969" pt_clust_6="30.42020"></scales>
<clustering>
<clus scale="   30.420">  1  6  2 -1</clus>
<clus scale="   65.432">  1  4  2 -1</clus>
<clus scale="  105.180">  2  5  1 -1</clus>
<clus scale="  105.180">  2  3  1 -1</clus>
</clustering>
</event>
<event>
 6    0  0.3584505E+002  0.8889388E+02  0.7546771E-02  0.1305553E+00
         21   -1    0    0  505  502  0.00000000000E+00  0.00000000000E+00  0.17072137801E+03  0.17072137801E+03  0.00000000000E+00 0. -1.
          1   -1    0    0  504    0 -0.00000000000E+00 -0.00000000000E+00 -0.17665699010E+04  0.17665699010E+04  0.00000000000E+00 0.  1.
         21    1    1    2  503  502 -0.24894374988E+02 -0.94015544628E+02  0.10724055799E+03  0.14477289047E+03  0.00000000000E+00 0. -1.
         21    1    1    2  504  503  0.60907402137E+02  0.53007528288E+02 -0.19821198014E+01  0.80767806020E+02  0.00000000000E+00 0. -1.
         21    1    1    2  505  501  0.15763554825E+02  0.74785092567E+02 -0.31042061303E+03  0.31969087682E+03  0.00000000000E+00 0. -1.
          1    1    1    2  501    0 -0.51776581974E+02 -0.33777076228E+02 -0.13906863481E+04  0.13920597057E+04  0.00000000000E+00 0.  1.
<scales pt_clust_3="14000.00000" pt_clust_4="88.89388" pt_clust_5="54.06541" pt_clust_6="61.81994"></scales>
<clustering>
<clus scale="   61.820">  2  6  1 -1</clus>
<clus scale="   54.065">  2  5  1 -1</clus>
<clus scale="   88.894">  2  4  1 -1</clus>
<clus scale="   88.894">  1  3  2 -1</clus>
</clustering>
</event>
<event>
 6    0  0.3584505E+002  0.7819849E+02  0.7546771E-02  0.1334243E+00
          2   -1    0    0  503    0 -0.00000000000E+00  0.00000000000E+00  0.25152996831E+04  0.25152996831E+04  0.00000000000E+00 0. -1.
         21   -1    0    0  505  502  0.00000000000E+00 -0.00000000000E+00 -0.20351373558E+02  0.20351373558E+02  0.00000000000E+00 0. -1.
         21    1    1    2  503  502  0.10931276166E+03 -0.45067347098E+01  0.58725362832E+03  0.59735786133E+03  0.00000000000E+00 0. -1.
         21    1    1    2  504  501 -0.32196261580E+02 -0.33219787948E+02  0.23181397667E+03  0.23638501085E+03  0.00000000000E+00 0. -1.
         21    1    1    2  505  504 -0.45156092572E+02  0.64750279622E+02  0.10960720231E+03  0.13507557220E+03  0.00000000000E+00 0. -1.
          2    1    1    2  501    0 -0.31960407503E+02 -0.27023756964E+02  0.15662735022E+04  0.15668326123E+04  0.00000000000E+00 0. -1.
<scales pt_clust_3="14000.00000" pt_clust_4="56.54761" pt_clust_5="78.19849" pt_clust_6="41.85393"></scales>
<clustering>
<clus scale="   41.854">  1  6  2 -1</clus>
<clus scale="   56.548">  1  4  2 -1</clus>
<clus scale="   78.198">  2  5  1 -1</clus>
<clus scale="   78.198">  2  3  1 -1</clus>
</clustering>
</event>
<event>
 6    0  0.3584505E+002  0.1077154E+03  0.7546771E-02  0.1264860E+00
         21   -1    0    0  501  502  0.00000000000E+00  0.00000000000E+00  0.27193578978E+03  0.27193578978E+03  0.00000000000E+00 0. -1.
          1   -1    0    0  503    0 -0.00000000000E+00 -0.00000000000E+00 -0.12804486192E+04  0.12804486192E+04  0.00000000000E+00 0.  1.
         21    1    1    2  503  504 -0.39229129125E+02  0.18261200527E+02 -0.33884487693E+03  0.34159661391E+03  0.00000000000E+00 0.  1.
         21    1    1    2  504  505 -0.50141893171E+02  0.34396522404E+02 -0.12354296894E+03  0.13769602528E+03  0.00000000000E+00 0. -1.
         21    1    1    2  505  502  0.73724067979E+02 -0.84549933681E+02  0.25112996047E+03  0.27504578988E+03  0.00000000000E+00 0. -1.
          1    1    1    2  501    0  0.15646954317E+02  0.31892210750E+02 -0.79725494404E+03  0.79804597993E+03  0.00000000000E+00 0.  1.
<scales pt_clust_3="49.54554" pt_clust_4="14000.00000" pt_clust_5="107.71543" pt_clust_6="35.52380"></scales>
<clustering>
<clus scale="   35.524">  2  6  1 -1</clus>
<clus scale="   49.546">  2  3  1 -1</clus>
<clus scale="  107.715">  1  5  2 -1</clus>
<clus scale="  107.715">  1  3  2 -1</clus>
</clustering>
</event>
<event>
 6    0  0.3584505E+002  0.1258499E+03  0.7546771E-02  0.1233747E+00
          2   -1    0    0  505    0 -0.00000000000E+00  0.00000000000E+00  0.20110226857E+04  0.20110226857E+04  0.00000000000E+00 0. -1.
         21   -1    0    0  504  502  0.00000000000E+00 -0.00000000000E+00 -0.21209936173E+03  0.21209936173E+03  0.00000000000E+00 0. -1.
         21    1    1    2  503  501  0.10004655672E+03  0.56515049337E+02  0.46264709188E+03  0.47670283819E+03  0.00000000000E+00 0.  1.
         21    1    1    2  504  503  0.35438304637E+02 -0.13619889589E+03 -0.12459187969E+03  0.18796049894E+03  0.00000000000E+00 0. -1.
         21    1    1    2  505  502 -0.12460321392E+03  0.41237008607E+02  0.40255415648E+02  0.13728419533E+03  0.00000000000E+00 0. -1.
          2    1    1    2  501    0 -0.10881647441E+02  0.38446837943E+02  0.14206126962E+04  0.14211745150E+04  0.00000000000E+00 0. -1.
<scales pt_clust_3="126.25493" pt_clust_4="125.84994" pt_clust_5="14000.00000" pt_clust_6="39.95710"></scales>
<clustering>
<clus scale="   39.957">  1  6  2 -1</clus>
<clus scale="  126.255">  1  3  2 -1</clus>
<clus scale="  125.850">  2  4  1 -1</clus>
<clus scale="  125.850">  2  3  1 -1</clus>
</clustering>
</event>
<event>
 6    0  0.3584505E+002  0.1285764E+03  0.7546771E-02  0.1229584E+00
         21   -1    0    0  501  502  0.00000000000E+00  0.00000000000E+00  0.36499385264E+03  0.36499385264E+03  0.00000000000E+00 0. -1.
         -3   -1    0    0    0  501 -0.00000000000E+00 -0.00000000000E+00 -0.21435480517E+03  0.21435480517E+03  0.00000000000E+00 0. -1.
         21    1    1    2  503  504  0.13057961335E+03 -0.67477004808E+02 -0.11496275435E+03  0.18660283087E+03  0.00000000000E+00 0. -1.
         21    1    1    2  504  505 -0.78898054974E+02  0.32968958117E+02  0.15840765924E+03  0.18001344890E+03  0.00000000000E+00 0. -1.
         21    1    1    2  505  502 -0.25588638722E+02  0.16904942369E+02  0.15361510240E+03  0.15664659331E+03  0.00000000000E+00 0. -1.
         -3    1    1    2    0  503 -0.26092919653E+02  0.17603104322E+02 -0.46420959822E+02  0.56085784729E+02  0.00000000000E+00 0. -1.
<scales pt_clust_3="118.13117" pt_clust_4="30.40104" pt_clust_5="30.40104" pt_clust_6="31.47554"></scales>
<clustering>
<clus scale="   30.401">  4  5 -1 -1</clus>
<clus scale="   31.476">  2  6  1 -1</clus>
<clus scale="  118.131">  2  3  1 -1</clus>
<clus scale="  128.576">  1  3  2 -1</clus>
</clustering>
</event>
<event>
 6    0  0.3584505E+002  0.6571174E+02  0.7546771E-02  0.1375314E+00
          2   -1    0    0  503    0 -0.00000000000E+00  0.00000000000E+00  0.70050977444E+03  0.70050977444E+03  0.00000000000E+00 0. -1.
         21   -1    0    0  505  502  0.00000000000E+00 -0.00000000000E+00 -0.34235562150E+03  0.34235562150E+03  0.00000000000E+00 0.  1.
         21    1    1    2  503  504 -0.93597088814E+02 -0.21395592500E+02 -0.77843845391E+02  0.12360360301E+03  0.00000000000E+00 0.  1.
         21    1    1    2  504  502  0.52162266252E+02 -0.37332195178E+02 -0.22611294891E+03  0.23503544517E+03  0.00000000000E+00 0. -1.
         21    1    1    2  505  501  0.10676547218E+01  0.57161606860E+02  0.68418102370E+02  0.89160674725E+02  0.00000000000E+00 0.  1.
          2    1    1    2  501    0  0.40367167840E+02  0.15661808185E+01  0.59369284488E+03  0.59506567303E+03  0.00000000000E+00 0. -1.
<scales pt_clust_3="65.71174" pt_clust_4="65.49493" pt_clust_5="14000.00000" pt_clust_6="40.39754"></scales>
<clustering>
<clus scale="   40.398">  1  6  2 -1</clus>
<clus scale="   65.495">  2  4  1 -1</clus>
<clus scale="   65.712">  2  3  1 -1</clus>
<clus scale="   65.495">  2  3  1 -1</clus>
</clustering>
</event>
<event>
 6    0  0.3584505E+002  0.1017244E+03  0.7546771E-02  0.1276711E+00
         21   -1    0    0  504  502  0.00000000000E+00  0.00000000000E+00  0.63259977823E+03  0.63259977823E+03  0.00000000000E+00 0. -1.
          2   -1    0    0  505    0 -0.00000000000E+00 -0.00000000000E+00 -0.15289300188E+03  0.15289300188E+03  0.00000000000E+00 0.  1.
         21    1    1    2  503  502  0.38113120411E+02 -0.19011116679E+02  0.42661104276E+03  0.42873186762E+03  0.00000000000E+00 0. -1.
         21    1    1    2  504  501  0.28692003649E+02  0.39675854473E+02  0.11772463864E+03  0.12750096096E+03  0.00000000000E+00 0. -1.
         21    1    1    2  505  503  0.21245322967E+02  0.68049855473E+02  0.24898770585E+02  0.75512219902E+02  0.00000000000E+00 0. -1.
          2    1    1    2  501    0 -0.88050447027E+02 -0.88714593266E+02 -0.89527675639E+02  0.15374773164E+03  0.00000000000E+00 0.  1.
<scales pt_clust_3="42.59146" pt_clust_4="58.76033" pt_clust_5="101.72443" pt_clust_6="14000.00000"></scales>
<clustering>
<clus scale="   42.591">  1  3  2 -1</clus>
<clus scale="   58.760">  1  4  2 -1</clus>
<clus scale="  101.724">  1  5  2 -1</clus>
<clus scale="   42.591">  1  3  2 -1</clus>
</clustering>
</event>
<event>
 6    0  0.3584505E+002  0.1424067E+03  0.7546771E-02  0.1210127E+00
          1   -1    0    0  504    0 -0.00000000000E+00  0.00000000000E+00  0.19335654175E+03  0.19335654175E+03  0.00000000000E+00 0. -1.
         21   -1    0    0  501  502  0.00000000000E+00 -0.00000000000E+00 -0.27559062453E+04  0.27559062453E+04  0.00000000000E+00 0.  1.
         21    1    1    2  503  502  0.13096231467E+02  0.30992413168E+02 -0.14481983939E+04  0.14485891857E+04  0.00000000000E+00 0.  1.
         21    1    1    2  504  505 -0.50926332793E+02 -0.12589918022E+03 -0.17416289972E+03  0.22085472735E+03  0.00000000000E+00 0.  1.
         21    1    1    2  505  503  0.11408480671E+03  0.56927121893E+02 -0.10953841691E+04  0.11027794513E+04  0.00000000000E+00 0.  1.
          1    1    1    2  501    0 -0.76254705384E+02  0.37979645160E+02  0.15519575912E+03  0.17703942270E+03  0.00000000000E+00 0. -1.
<scales pt_clust_3="33.64582" pt_clust_4="14000.00000" pt_clust_5="142.40666" pt_clust_6="85.20736"></scales>
<clustering>
<clus scale="   33.646">  2  3  1 -1</clus>
<clus scale="   85.207">  1  6  2 -1</clus>
<clus scale="  142.407">  2  5  1 -1</clus>
<clus scale="   33.646">  2  3  1 -1</clus>
</clustering>
</event>
<event>
 6    0  0.3584505E+002  0.1643340E+03  0.7546771E-02  0.1183889E+00
          2   -1    0    0  503    0 -0.00000000000E+00  0.00000000000E+00  0.99243115024E+03  0.99243115024E+03  0.00000000000E+00 0.  1.
         21   -1    0    0  504  502  0.00000000000E+00 -0.00000000000E+00 -0.64407482933E+03  0.64407482933E+03  0.00000000000E+00 0.  1.
         21    1    1    2  503  505  0.16052622246E+03  0.56607482668E+02  0.21228062985E+03  0.27209583054E+03  0.00000000000E+00 0.  1.
         21    1    1    2  504  501 -0.55620682368E+02  0.35495640129E+01 -0.43754054801E+01  0.55905311777E+02  0.00000000000E+00 0. -1.
         21    1    1    2  505  502 -0.14644977634E+03 -0.74075916526E+02 -0.57181064374E+03  0.59489678995E+03  0.00000000000E+00 0.  1.
          2    1    1    2  501    0  0.41544236249E+02  0.13918869845E+02  0.71226174028E+03  0.71360804730E+03  0.00000000000E+00 0.  1.
<scales pt_clust_3="164.33397" pt_clust_4="52.01597" pt_clust_5="14000.00000" pt_clust_6="43.81391"></scales>
<clustering>
<clus scale="   43.814">  1  6  2 -1</clus>
<clus scale="   52.016">  1  4  2 -1</clus>
<clus scale="  164.334">  1  3  2 -1</clus>
<clus scale="  164.334">  2  3  1 -1</clus>
</clustering>
</event>
<event>
 6    0  0.3584505E+002  0.9802510E+02  0.7546771E-02  0.1284505E+00
         21   -1    0    0  504  502  0.00000000000E+00  0.00000000000E+00  0.71260816812E+03  0.71260816812E+03  0.00000000000E+00 0.  1.
          2   -1    0    0  505    0 -0.00000000000E+00 -0.00000000000E+00 -0.17097089360E+04  0.17097089360E+04  0.00000000000E+00 0.  1.
         21    1    1    2  503  502 -0.14217609179E+02  0.29708751970E+02  0.63808467322E+03  0.63893411284E+03  0.00000000000E+00 0.  1.
         21    1    1    2  504  501 -0.38858879981E+02 -0.74909507479E+01  0.62208815976E+02  0.73729666225E+02  0.00000000000E+00 0.  1.
         21    1    1    2  505  503  0.34310368141E+02  0.86814914597E+02 -0.72475573803E+03  0.73074271160E+03  0.00000000000E+00 0. -1.
          2    1    1    2  501    0  0.18766121019E+02 -0.10903271582E+03 -0.97263851905E+03  0.97891061347E+03  0.00000000000E+00 0.  1.
<scales pt_clust_3="32.93555" pt_clust_4="55.53484" pt_clust_5="14000.00000" pt_clust_6="98.02510"></scales>
<clustering>
<clus scale="   32.936">  1  3  2 -1</clus>
<clus scale="   55.535">  1  4  2 -1</clus>
<clus scale="   98.025">  1  6  2 -1</clus>
<clus scale="   32.936">  1  3  2 -1</clus>
</clustering>
</event>
<event>
 6    0  0.3584505E+002  0.2028604E+03  0.7546771E-02  0.1147348E+00
         -4   -1    0    0    0  501 -0.00000000000E+00  0.00000000000E+00  0.11158404961E+03  0.11158404961E+03  0.00000000000E+00 0.  1.
         21   -1    0    0  503  502  0.00000000000E+00 -0.00000000000E+00 -0.72590545221E+03  0.72590545221E+03  0.00000000000E+00 0. -1.
         21    1    1    2  503  504 -0.12379591195E+02  0.72408976636E+02 -0.19460724227E+03  0.20801031926E+03  0.00000000000E+00 0. -1.
         21    1    1    2  504  501 -0.64568706302E+02  0.78473479039E+02 -0.91653641696E+02  0.13684880263E+03  0.00000000000E+00 0.  1.
         21    1    1    2  505  502  0.56313851239E+02 -0.18319577177E+03 -0.38145570992E+03  0.42689623946E+03  0.00000000000E+00 0. -1.
         -4    1    1    2    0  505  0.20634446258E+02  0.32313316093E+02  0.53395191289E+02  0.65734140460E+02  0.00000000000E+00 0.  1.
<scales pt_clust_3="77.02316" pt_clust_4="77.02316" pt_clust_5="181.26332" pt_clust_6="38.33968"></scales>
<clustering>
<clus scale="   38.340">  1  6  2 -1</clus>
<clus scale="   77.023">  3  4 -1 -1</clus>
<clus scale="  181.263">  2  5  1 -1</clus>
<clus scale="  181.263">  2  3  1 -1</clus>
</clustering>
</event>
<event>
 6    0  0.3584505E+002  0.1113735E+03  0.7546771E-02  0.1258047E+00
         21   -1    0    0  503  502  0.00000000000E+00  0.00000000000E+00  0.12915123000E+03  0.12915123000E+03  0.00000000000E+00 0.  1.
          2   -1    0    0  502    0 -0.00000000000E+00 -0.00000000000E+00 -0.17869980152E+04  0.17869980152E+04  0.00000000000E+00 0.  1.
         21    1    1    2  503  504  0.85623812570E+01 -0.11180938512E+03  0.76475599507E+02  0.13573197962E+03  0.00000000000E+00 0.  1.
         21    1    1    2  504  505 -0.45963702712E+02  0.10328213714E+03 -0.12591129275E+03  0.16921440678E+03  0.00000000000E+00 0. -1.
         21    1    1    2  505  501  0.21738584205E+02  0.39723020636E+02 -0.45145489600E+03  0.45372018639E+03  0.00000000000E+00 0.  1.
          2    1    1    2  501    0  0.15662737250E+02 -0.31195772663E+02 -0.11569561960E+04  0.11574826725E+04  0.00000000000E+00 0.  1.
<scales pt_clust_3="111.37346" pt_clust_4="14000.00000" pt_clust_5="37.25693" pt_clust_6="34.90698"></scales>
<clustering>
<clus scale="   34.907">  2  6  1 -1</clus>
<clus scale="   37.257">  2  5  1 -1</clus>
<clus scale="  111.373">  1  3  2 -1</clus>
<clus scale="  111.373">  1  3  2 -1</clus>
</clustering>
</event>
<event>
 6    0  0.3584505E+002  0.8872572E+02  0.7546771E-02  0.1305967E+00
          2   -1    0    0  503    0 -0.00000000000E+00  0.00000000000E+00  0.22629414731E+04  0.22629414731E+04  0.00000000000E+00 0. -1.
         21   -1    0    0  501  502  0.00000000000E+00 -0.00000000000E+00 -0.28004843418E+02  0.28004843418E+02  0.00000000000E+00 0.  1.
         21    1    1    2  503  505  0.12099770819E+02 -0.62858737406E+02  0.34318945314E+03  0.34910832999E+03  0.00000000000E+00 0. -1.
         21    1    1    2  504  502  0.28449832951E+02  0.22596179080E+02  0.14759241920E+02  0.39214991087E+02  0.00000000000E+00 0. -1.
         21    1    1    2  505  504 -0.32985597318E+02  0.94261906996E+02  0.18906740047E+03  0.21382197890E+03  0.00000000000E+00 0.  1.
          2    1    1    2  501    0 -0.75640064512E+01 -0.53999348670E+02  0.16879205341E+04  0.16888010165E+04  0.00000000000E+00 0. -1.
<scales pt_clust_3="14000.00000" pt_clust_4="36.33153" pt_clust_5="88.72572" pt_clust_6="53.79653"></scales>
<clustering>
<clus scale="   36.332">  2  4  1 -1</clus>
<clus scale="   53.797">  1  6  2 -1</clus>
<clus scale="   88.726">  2  5  1 -1</clus>
<clus scale="   36.332">  2  3  1 -1</clus>
</clustering>
</event>
<event>
 6    0  0.3584505E+002  0.1441823E+03  0.7546771E-02  0.1207810E+00
          2   -1    0    0  503    0 -0.00000000000E+00  0.00000000000E+00  0.26953049795E+04  0.26953049795E+04  0.00000000000E+00 0. -1.
         21   -1    0    0  504  502  0.00000000000E+00 -0.00000000000E+00 -0.69066302324E+02  0.69066302324E+02  0.00000000000E+00 0.  1.
         21    1    1    2  503  502  0.61534494324E+02 -0.11557118373E+03  0.10122695049E+02  0.13132273777E+03  0.00000000000E+00 0.  1.
         21    1    1    2  504  505 -0.63133829558E+02  0.82412712771E+02  0.67694303411E+03  0.68485736259E+03  0.00000000000E+00 0.  1.
         21    1    1    2  505  501 -0.44624824969E+02  0.33836779776E+02  0.18225467328E+03  0.19066480693E+03  0.00000000000E+00 0.  1.
          2    1    1    2  501    0  0.46224160203E+02 -0.67830881825E+00  0.17569182747E+04  0.17575263745E+04  0.00000000000E+00 0. -1.
<scales pt_clust_3="132.65006" pt_clust_4="41.49902" pt_clust_5="41.49902" pt_clust_6="46.22914"></scales>
<clustering>
<clus scale="   41.499">  4  5 -1 -1</clus>
<clus scale="   46.229">  1  6  2 -1</clus>
<clus scale="  132.650">  2  3  1 -1</clus>
<clus scale="  132.650">  2  3  1 -1</clus>
</clustering>
</event>
<event>
 6    0  0.3584505E+002  0.1483935E+03  0.7546771E-02  0.1202461E+00
         21   -1    0    0  503  502  0.00000000000E+00  0.00000000000E+00  0.36049298240E+03  0.36049298240E+03  0.00000000000E+00 0.  1.
         -2   -1    0    0    0  501 -0.00000000000E+00 -0.00000000000E+00 -0.42668853975E+03  0.42668853975E+03  0.00000000000E+00 0. -1.
         21    1    1    2  503  504 -0.25320079312E+02  0.54828324207E+02  0.25992000432E+02  0.65748274792E+02  0.00000000000E+00 0. -1.
         21    1    1    2  504  501 -0.18488226528E+02  0.92771275868E+02  0.15667829500E+03  0.18302025098E+03  0.00000000000E+00 0. -1.
         21    1    1    2  505  502  0.12159828152E+03 -0.55966137161E+02  0.10150790753E+03  0.16799466024E+03  0.00000000000E+00 0.  1.
         -2    1    1    2    0  505 -0.77789975683E+02 -0.91633462914E+02 -0.35037376030E+03  0.37041833615E+03  0.00000000000E+00 0. -1.
<scales pt_clust_3="55.42974" pt_clust_4="55.42974" pt_clust_5="131.17963" pt_clust_6="120.19972"></scales>
<clustering>
<clus scale="   55.430">  3  4 -1 -1</clus>
<clus scale="  120.200">  2  6  1 -1</clus>
<clus scale="  131.180">  2  5  1 -1</clus>
<clus scale="  148.393">  1  3  2 -1</clus>
</clustering>
</event>
<event>
 6    0  0.3584505E+002  0.1253842E+03  0.7546771E-02  0.1234470E+00
         21   -1    0    0  505  502  0.00000000000E+00  0.00000000000E+00  0.60660878187E+02  0.60660878187E+02  0.00000000000E+00 0.  1.
          2   -1    0    0  504    0 -0.00000000000E+00 -0.00000000000E+00 -0.16164543330E+04  0.16164543330E+04  0.00000000000E+00 0. -1.
         21    1    1    2  503  502  0.21284052703E+02  0.36261964670E+02  0.47062463517E+01  0.42309452088E+02  0.00000000000E+00 0.  1.
         21    1    1    2  504  503 -0.95977632437E+01  0.88119708397E+02 -0.43761089227E+02  0.98854605344E+02  0.00000000000E+00 0.  1.
         21    1    1    2  505  501 -0.63193617780E+02 -0.71343933091E+02 -0.25795881870E+03  0.27500207684E+03  0.00000000000E+00 0.  1.
          2    1    1    2  501    0  0.51507328321E+02 -0.53037739976E+02 -0.12587797932E+04  0.12609490769E+04  0.00000000000E+00 0. -1.
<scales pt_clust_3="36.40935" pt_clust_4="36.40935" pt_clust_5="113.69506" pt_clust_6="73.93245"></scales>
<clustering>
<clus scale="   36.409">  3  4 -1 -1</clus>
<clus scale="   73.932">  2  6  1 -1</clus>
<clus scale="  113.695">  2  5  1 -1</clus>
<clus scale="  125.384">  1  3  2 -1</clus>
</clustering>
</event>
<event>
 6    0  0.3584505E+002  0.1641933E+03  0.7546771E-02  0.1184042E+00
         21   -1    0    0  504  502  0.00000000000E+00  0.00000000000E+00  0.14292394789E+03  0.14292394789E+03  0.00000000000E+00 0. -1.
          2   -1    0    0  503    0 -0.00000000000E+00 -0.00000000000E+00 -0.24012475164E+04  0.24012475164E+04  0.00000000000E+00 0.  1.
         21    1    1    2  503  502 -0.34306099341E+02 -0.14603739739E+02 -0.99296598967E+02  0.10606598056E+03  0.00000000000E+00 0. -1.
         21    1    1    2  504  505 -0.11498873683E+03  0.10260396909E+03  0.92162228277E+02  0.17956575506E+03  0.00000000000E+00 0. -1.
         21    1    1    2  505  501  0.79650375326E+02 -0.15515775756E+02 -0.10805252256E+04  0.10835680342E+04  0.00000000000E+00 0.  1.
          2    1    1    2  501    0  0.69644460840E+02 -0.72484453596E+02 -0.11706639722E+04  0.11749716944E+04  0.00000000000E+00 0.  1.
<scales pt_clust_3="37.28509" pt_clust_4="154.41345" pt_clust_5="46.88629" pt_clust_6="46.88629"></scales>
<clustering>
<clus scale="   37.285">  2  3  1 -1</clus>
<clus scale="   46.886">  5  6 -1 -1</clus>
<clus scale="  154.413">  1  4  2 -1</clus>
<clus scale="  154.413">  1  3  2 -1</clus>
</clustering>
</event>
<event>
 6    0  0.3584505E+002  0.6374933E+02  0.7546771E-02  0.1382739E+00
         21   -1    0    0  504  502  0.00000000000E+00  0.00000000000E+00  0.11792652615E+03  0.11792652615E+03  0.00000000000E+00 0. -1.
          2   -1    0    0  503    0 -0.00000000000E+00 -0.00000000000E+00 -0.26703023505E+04  0.26703023505E+04  0.00000000000E+00 0. -1.
         21    1    1    2  503  505 -0.38697137262E+02  0.11342400762E+03 -0.14852153371E+03  0.19084318146E+03  0.00000000000E+00 0. -1.
         21    1    1    2  504  501 -0.25798100504E+02 -0.65466210062E+02 -0.34675528865E+03  0.35382283258E+03  0.00000000000E+00 0. -1.
         21    1    1    2  505  502  0.18695182279E+02 -0.57535634269E+02  0.83135373117E+02  0.10281706723E+03  0.00000000000E+00 0. -1.
          2    1    1    2  501    0  0.45800055488E+02  0.95778367156E+01 -0.21402343751E+04  0.21407457954E+04  0.00000000000E+00 0. -1.
<scales pt_clust_3="63.74933" pt_clust_4="59.30344" pt_clust_5="14000.00000" pt_clust_6="46.79081"></scales>
<clustering>
<clus scale="   46.791">  2  6  1 -1</clus>
<clus scale="   59.303">  2  4  1 -1</clus>
<clus scale="   63.749">  2  3  1 -1</clus>
<clus scale="   63.749">  1  3  2 -1</clus>
</clustering>
</event>
<event>
 6    0  0.3584505E+002  0.1027937E+03  0.7546771E-02  0.1274528E+00
         21   -1    0    0  503  502  0.00000000000E+00  0.00000000000E+00  0.51234698817E+03  0.51234698817E+03  0.00000000000E+00 0.  1.
          2   -1    0    0  504    0 -0.00000000000E+00 -0.00000000000E+00 -0.16998889487E+04  0.16998889487E+04  0.00000000000E+00 0. -1.
         21    1    1    2  503  501 -0.40949988425E+02 -0.13389193986E+03 -0.89671747739E+03  0.90758260636E+03  0.00000000000E+00 0. -1.
         21    1    1    2  504  505 -0.24350443486E+02  0.68771197337E+02  0.25987974908E+01  0.73001201562E+02  0.00000000000E+00 0. -1.
         21    1    1    2  505  502  0.27823061486E+02  0.36623337289E+02  0.46725752602E+03  0.46951569431E+03  0.00000000000E+00 0.  1.
          2    1    1    2  501    0  0.37477370425E+02  0.28497405233E+02 -0.76068080661E+03  0.76213643460E+03  0.00000000000E+00 0. -1.
<scales pt_clust_3="102.79370" pt_clust_4="14000.00000" pt_clust_5="45.99339" pt_clust_6="47.81549"></scales>
<clustering>
<clus scale="   45.993">  1  5  2 -1</clus>
<clus scale="   47.815">  2  6  1 -1</clus>
<clus scale="  102.794">  2  3  1 -1</clus>
<clus scale="   45.993">  1  3  2 -1</clus>
</clustering>
</event>
<event>
 6    0  0.3584505E+002  0.6707753E+02  0.7546771E-02  0.1370323E+00
         21   -1    0    0  503  502  0.00000000000E+00  0.00000000000E+00  0.69398571007E+03  0.69398571007E+03  0.00000000000E+00 0.  1.
          2   -1    0    0  504    0 -0.00000000000E+00 -0.00000000000E+00 -0.12305980554E+04  0.12305980554E+04  0.00000000000E+00 0.  1.
         21    1    1    2  503  505  0.46325355364E+02  0.48359609434E+02  0.68456986130E+03  0.68783761556E+03  0.00000000000E+00 0.  1.
         21    1    1    2  504  502  0.23897327683E+02  0.26342750581E+02 -0.17445449836E+03  0.17804323850E+03  0.00000000000E+00 0.  1.
         21    1    1    2  505  501 -0.48827825567E+02 -0.10216116223E+03 -0.59789635272E+03  0.60852371212E+03  0.00000000000E+00 0.  1.
          2    1    1    2  501    0 -0.21394857479E+02  0.27458802218E+02 -0.44883135558E+03  0.45017919932E+03  0.00000000000E+00 0.  1.
<scales pt_clust_3="14000.00000" pt_clust_4="37.71496" pt_clust_5="67.07753" pt_clust_6="34.80985"></scales>
<clustering>
<clus scale="   34.810">  2  6  1 -1</clus>
<clus scale="   37.715">  2  4  1 -1</clus>
<clus scale="   67.078">  2  5  1 -1</clus>
<clus scale="   67.078">  1  3  2 -1</clus>
</clustering>
</event>
<event>
 6    0  0.3584505E+002  0.1123179E+03  0.7546771E-02  0.1256337E+00
         21   -1    0    0  504  502  0.00000000000E+00  0.00000000000E+00  0.86345381441E+02  0.86345381441E+02  0.00000000000E+00 0.  1.
          4   -1    0    0  505    0 -0.00000000000E+00 -0.00000000000E+00 -0.15352406762E+04  0.15352406762E+04  0.00000000000E+00 0. -1.
         21    1    1    2  503  502 -0.10590124026E+03  0.19864965563E+02  0.35882881180E+02  0.11356615124E+03  0.00000000000E+00 0.  1.
         21    1    1    2  504  501  0.43753568773E+02  0.19051418267E+02 -0.58559696501E+03  0.58753820025E+03  0.00000000000E+00 0. -1.
         21    1    1    2  505  503  0.33804511571E+02 -0.92594101932E+02 -0.25407854202E+03  0.27252948140E+03  0.00000000000E+00 0. -1.
          4    1    1    2  501    0  0.28343159918E+02  0.53677718102E+02 -0.64510266892E+03  0.64795222477E+03  0.00000000000E+00 0. -1.
<scales pt_clust_3="106.24390" pt_clust_4="32.30585" pt_clust_5="98.57187" pt_clust_6="32.30585"></scales>
<clustering>
<clus scale="   32.306">  4  6 -1 -1</clus>
<clus scale="   98.572">  2  5  1 -1</clus>
<clus scale="  106.244">  1  3  2 -1</clus>
<clus scale="  106.244">  1  3  2 -1</clus>
</clustering>
</event>
<event>
 6    0  0.3584505E+002  0.7621675E+02  0.7546771E-02  0.1340144E+00
         21   -1    0    0  504  502  0.00000000000E+00  0.00000000000E+00  0.36851988509E+02  0.36851988509E+02  0.00000000000E+00 0.  1.
          2   -1    0    0  505    0 -0.00000000000E+00 -0.00000000000E+00 -0.13607954847E+04  0.13607954847E+04  0.00000000000E+00 0. -1.
         21    1    1    2  503  502 -0.19253171000E+02 -0.56266418026E+02 -0.91453843338E+02  0.10908895385E+03  0.00000000000E+00 0.  1.
         21    1    1    2  504  501 -0.10785175058E+02  0.65831476467E+02 -0.18595683985E+03  0.19756024292E+03  0.00000000000E+00 0. -1.
         21    1    1    2  505  503  0.82786421148E+02 -0.61971131975E+02 -0.10800478598E+03  0.14952941690E+03  0.00000000000E+00 0.  1.
          2    1    1    2  501    0 -0.52748075091E+02  0.52406073535E+02 -0.93852802698E+03  0.94146885949E+03  0.00000000000E+00 0. -1.
<scales pt_clust_3="59.46927" pt_clust_4="56.16398" pt_clust_5="76.21675" pt_clust_6="14000.00000"></scales>
<clustering>
<clus scale="   59.469">  1  3  2 -1</clus>
<clus scale="   56.164">  1  4  2 -1</clus>
<clus scale="   76.217">  1  5  2 -1</clus>
<clus scale="   59.469">  1  3  2 -1</clus>
</clustering>
</event>
<event>
 6    0  0.3584505E+002  0.2064123E+03  0.7546771E-02  0.1144439E+00
         21   -1    0    0  503  502  0.00000000000E+00  0.00000000000E+00  0.75185305679E+03  0.75185305679E+03  0.00000000000E+00 0.  1.
          1   -1    0    0  504    0 -0.00000000000E+00 -0.00000000000E+00 -0.14779678658E+04  0.14779678658E+04  0.00000000000E+00 0. -1.
         21    1    1    2  503  505 -0.45122881850E+02 -0.14015880407E+03  0.31785197710E+03  0.35030050553E+03  0.00000000000E+00 0.  1.
         21    1    1    2  504  502  0.11540330482E+03 -0.41555651437E+02  0.40116129628E+03  0.41949395772E+03  0.00000000000E+00 0.  1.
         21    1    1    2  505  501 -0.30895931709E+02  0.84825355229E+02 -0.93109413909E+03  0.93546041891E+03  0.00000000000E+00 0. -1.
          1    1    1    2  501    0 -0.39384491257E+02  0.96889100282E+02 -0.51403394331E+03  0.52456604044E+03  0.00000000000E+00 0. -1.
<scales pt_clust_3="193.08915" pt_clust_4="122.65723" pt_clust_5="67.78123" pt_clust_6="67.78123"></scales>
<clustering>
<clus scale="   67.781">  5  6 -1 -1</clus>
<clus scale="  122.657">  1  4  2 -1</clus>
<clus scale="  193.089">  1  3  2 -1</clus>
<clus scale="  122.657">  1  3  2 -1</clus>
</clustering>
</event>
<event>
 6    0  0.3584505E+002  0.1496990E+03  0.7546771E-02  0.1200843E+00
         21   -1    0    0  501  502  0.00000000000E+00  0.00000000000E+00  0.24560263055E+03  0.24560263055E+03  0.00000000000E+00 0.  1.
          2   -1    0    0  504    0 -0.00000000000E+00 -0.00000000000E+00 -0.12211028674E+04  0.12211028674E+04  0.00000000000E+00 0.  1.
         21    1    1    2  503  502 -0.48391242110E+02 -0.20488824786E+01  0.61883285445E+02  0.78584039409E+02  0.00000000000E+00 0.  1.
         21    1    1    2  504  505  0.13843758121E+03 -0.38438047126E+02 -0.28687468494E+02  0.14651081259E+03  0.00000000000E+00 0.  1.
         21    1    1    2  505  503  0.60504232882E+02  0.50263273695E+02  0.97443852935E+02  0.12522964247E+03  0.00000000000E+00 0.  1.
          2    1    1    2  501    0 -0.15055057198E+03 -0.97763440906E+01 -0.11061399068E+04  0.11163810035E+04  0.00000000000E+00 0.  1.
<scales pt_clust_3="48.43460" pt_clust_4="14000.00000" pt_clust_5="57.30877" pt_clust_6="149.69905"></scales>
<clustering>
<clus scale="   48.435">  1  3  2 -1</clus>
<clus scale="   57.309">  1  5  2 -1</clus>
<clus scale="  149.699">  2  6  1 -1</clus>
<clus scale="   48.435">  1  3  2 -1</clus>
</clustering>
</event>
<event>
 6    0  0.3584505E+002  0.1299179E+03  0.7546771E-02  0.1227578E+00
         21   -1    0    0  503  502  0.00000000000E+00  0.00000000000E+00  0.75497970655E+03  0.75497970655E+03  0.00000000000E+00 0.  1.
          1   -1    0    0  505    0 -0.00000000000E+00 -0.00000000000E+00 -0.33737061351E+03  0.33737061351E+03  0.00000000000E+00 0. -1.
         21    1    1    2  503  501  0.38481661391E+02 -0.14367292367E+02  0.33909622039E+03  0.34157503427E+03  0.00000000000E+00 0.  1.
         21    1    1    2  504  502  0.26594793381E+02  0.27420771715E+02  0.13790615679E+03  0.14309888133E+03  0.00000000000E+00 0.  1.
         21    1    1    2  505  504 -0.60351633405E+01  0.91402019018E+02  0.25511279043E+03  0.27105956563E+03  0.00000000000E+00 0.  1.
          1    1    1    2  501    0 -0.59041291432E+02 -0.10445549837E+03 -0.31450607458E+03  0.33661683883E+03  0.00000000000E+00 0. -1.
<scales pt_clust_3="41.07624" pt_clust_4="32.42874" pt_clust_5="32.42874" pt_clust_6="119.82027"></scales>
<clustering>
<clus scale="   32.429">  4  5 -1 -1</clus>
<clus scale="   41.076">  1  3  2 -1</clus>
<clus scale="  119.820">  2  6  1 -1</clus>
<clus scale="   41.076">  1  3  2 -1</clus>
</clustering>
</event>
<event>
 6    0  0.3584505E+002  0.7452624E+02  0.7546771E-02  0.1345344E+00
          1   -1    0    0  505    0 -0.00000000000E+00  0.00000000000E+00  0.25028641067E+04  0.25028641067E+04  0.00000000000E+00 0.  1.
         21   -1    0    0  501  502  0.00000000000E+00 -0.00000000000E+00 -0.47222035012E+03  0.47222035012E+03  0.00000000000E+00 0.  1.
         21    1    1    2  503  504 -0.84294119879E+02  0.79968487434E+01  0.11632115774E+04  0.11662892532E+04  0.00000000000E+00 0.  1.
         21    1    1    2  504  502 -0.71571544579E+01  0.53182870349E+02 -0.45949419538E+03  0.46261707507E+03  0.00000000000E+00 0.  1.
         21    1    1    2  505  503  0.45622660917E+02  0.28400299589E+01  0.53704250834E+02  0.70524035030E+02  0.00000000000E+00 0.  1.
          1    1    1    2  501    0  0.45828613419E+02 -0.64019749052E+02  0.12732221238E+04  0.12756540936E+04  0.00000000000E+00 0.  1.
<scales pt_clust_3="74.52624" pt_clust_4="53.66022" pt_clust_5="45.71097" pt_clust_6="14000.00000"></scales>
<clustering>
<clus scale="   45.711">  1  5  2 -1</clus>
<clus scale="   53.660">  2  4  1 -1</clus>
<clus scale="   74.526">  1  3  2 -1</clus>
<clus scale="   53.660">  2  3  1 -1</clus>
</clustering>
</event>
<event>
 6    0  0.3584505E+002  0.1284880E+03  0.7546771E-02  0.1229717E+00
          2   -1    0    0  505    0 -0.00000000000E+00  0.00000000000E+00  0.13160205357E+04  0.13160205357E+04  0.00000000000E+00 0.  1.
         21   -1    0    0  504  502  0.00000000000E+00 -0.00000000000E+00 -0.40479564981E+03  0.40479564981E+03  0.00000000000E+00 0.  1.
         21    1    1    2  503  501  0.53171910364E+02  0.22470253206E+02  0.37185382311E+02  0.68665253138E+02  0.00000000000E+00 0.  1.
         21    1    1    2  504  503 -0.12636015848E+02 -0.30681138877E+02 -0.23613027414E+03  0.23845022027E+03  0.00000000000E+00 0.  1.
         21    1    1    2  505  502 -0.13866871821E+03 -0.73839831831E+02 -0.10683822951E+03  0.18998879298E+03  0.00000000000E+00 0.  1.
          2    1    1    2  501    0  0.98132823692E+02  0.82050717502E+02  0.12170080072E+04  0.12237119191E+04  0.00000000000E+00 0.  1.
<scales pt_clust_3="55.55226" pt_clust_4="33.18134" pt_clust_5="14000.00000" pt_clust_6="128.48798"></scales>
<clustering>
<clus scale="   33.181">  2  4  1 -1</clus>
<clus scale="   55.552">  2  3  1 -1</clus>
<clus scale="  128.488">  1  6  2 -1</clus>
<clus scale="   33.181">  2  3  1 -1</clus>
</clustering>
</event>
<event>
 6    0  0.3584505E+002  0.1104084E+03  0.7546771E-02  0.1259815E+00
         21   -1    0    0  501  502  0.00000000000E+00  0.00000000000E+00  0.21938513438E+03  0.21938513438E+03  0.00000000000E+00 0.  1.
          1   -1    0    0  505    0 -0.00000000000E+00 -0.00000000000E+00 -0.35859444935E+03  0.35859444935E+03  0.00000000000E+00 0. -1.
         21    1    1    2  503  504  0.38041736042E+02 -0.16500311151E+02  0.75565033630E+02  0.86194595287E+02  0.00000000000E+00 0.  1.
         21    1    1    2  504  502  0.24703789906E+02 -0.60029955399E+02  0.90639747809E+02  0.11148738343E+03  0.00000000000E+00 0.  1.
         21    1    1    2  505  503 -0.98291198178E+02  0.88348616243E+02 -0.85931817878E+02  0.15764172974E+03  0.00000000000E+00 0.  1.
          1    1    1    2  501    0  0.35545672230E+02 -0.11818349693E+02 -0.21948227853E+03  0.22265587527E+03  0.00000000000E+00 0. -1.
<scales pt_clust_3="32.56590" pt_clust_4="32.56590" pt_clust_5="102.61462" pt_clust_6="37.45889"></scales>
<clustering>
<clus scale="   32.566">  3  4 -1 -1</clus>
<clus scale="   37.459">  2  6  1 -1</clus>
<clus scale="  102.615">  2  5  1 -1</clus>
<clus scale="  110.408">  1  3  2 -1</clus>
</clustering>
</event>
<event>
 6    0  0.3584505E+002  0.1120565E+03  0.7546771E-02  0.1256808E+00
         21   -1    0    0  505  502  0.00000000000E+00  0.00000000000E+00  0.27478567080E+03  0.27478567080E+03  0.00000000000E+00 0.  1.
         -3   -1    0    0    0  501 -0.00000000000E+00 -0.00000000000E+00 -0.43860811540E+03  0.43860811540E+03  0.00000000000E+00 0. -1.
         21    1    1    2  503  502 -0.24395222605E+02  0.81846021499E+02  0.19924703306E+03  0.21677933090E+03  0.00000000000E+00 0.  1.
         21    1    1    2  504  503  0.12775775410E+03 -0.89122266471E+01 -0.13548291202E+03  0.18643253730E+03  0.00000000000E+00 0. -1.
         21    1    1    2  505  501 -0.65512490638E+02  0.27849233196E+01  0.18803038019E+01  0.65598611036E+02  0.00000000000E+00 0. -1.
         -3    1    1    2    0  504 -0.37850040857E+02 -0.75718718171E+02 -0.22946686944E+03  0.24458330696E+03  0.00000000000E+00 0. -1.
<scales pt_clust_3="112.05648" pt_clust_4="14000.00000" pt_clust_5="65.57166" pt_clust_6="85.51290"></scales>
<clustering>
<clus scale="   65.572">  1  5  2 -1</clus>
<clus scale="   85.513">  2  6  1 -1</clus>
<clus scale="  112.056">  1  3  2 -1</clus>
<clus scale="   65.572">  1  3  2 -1</clus>
</clustering>
</event>
<event>
 6    0  0.3584505E+002  0.5712566E+02  0.7546771E-02  0.1410306E+00
         -4   -1    0    0    0  501 -0.00000000000E+00  0.00000000000E+00  0.77380774183E+02  0.77380774183E+02  0.00000000000E+00 0.  1.
         21   -1    0    0  503  502  0.00000000000E+00 -0.00000000000E+00 -0.25180873223E+04  0.25180873223E+04  0.00000000000E+00 0.  1.
         21    1    1    2  503  505  0.18991219585E+02 -0.38079244207E+02 -0.19244341540E+04  0.19249045452E+04  0.00000000000E+00 0.  1.
         21    1    1    2  504  502 -0.93602591439E+02 -0.31458687277E+02 -0.13659255477E+03  0.16854856910E+03  0.00000000000E+00 0. -1.
         21    1    1    2  505  501  0.22746106936E+02  0.55255700761E+02 -0.42651968105E+03  0.43068505450E+03  0.00000000000E+00 0. -1.
         -4    1    1    2    0  504  0.51865264918E+02  0.14282230723E+02  0.46839841636E+02  0.71329927687E+02  0.00000000000E+00 0.  1.
<scales pt_clust_3="42.55227" pt_clust_4="14000.00000" pt_clust_5="45.82286" pt_clust_6="57.12566"></scales>
<clustering>
<clus scale="   42.552">  2  3  1 -1</clus>
<clus scale="   45.823">  2  5  1 -1</clus>
<clus scale="   57.126">  1  6  2 -1</clus>
<clus scale="   42.552">  2  3  1 -1</clus>
</clustering>
</event>
<event>
 6    0  0.3584505E+002  0.8587951E+02  0.7546771E-02  0.1313148E+00
          4   -1    0    0  505    0 -0.00000000000E+00  0.00000000000E+00  0.17595047167E+03  0.17595047167E+03  0.00000000000E+00 0.  1.
         21   -1    0    0  503  502  0.00000000000E+00 -0.00000000000E+00 -0.65320817508E+03  0.65320817508E+03  0.00000000000E+00 0.  1.
         21    1    1    2  503  501 -0.29633292902E+02 -0.39440026849E+02 -0.73786190969E+02  0.88758378443E+02  0.00000000000E+00 0.  1.
         21    1    1    2  504  502 -0.10824315976E+02  0.46133896120E+02 -0.34463581992E+03  0.34787835598E+03  0.00000000000E+00 0.  1.
         21    1    1    2  505  504  0.10560465694E+03  0.47052932196E+02 -0.19826347581E+03  0.22950975543E+03  0.00000000000E+00 0.  1.
          4    1    1    2  501    0 -0.65147048066E+02 -0.53746801467E+02  0.13942778330E+03  0.16301215690E+03  0.00000000000E+00 0.  1.
<scales pt_clust_3="42.39582" pt_clust_4="47.38673" pt_clust_5="14000.00000" pt_clust_6="85.87951"></scales>
<clustering>
<clus scale="   47.387">  2  4  1 -1</clus>
<clus scale="   42.396">  2  3  1 -1</clus>
<clus scale="   85.880">  1  6  2 -1</clus>
<clus scale="   47.387">  2  3  1 -1</clus>
</clustering>
</event>
<event>
 6    0  0.3584505E+002  0.7312385E+02  0.7546771E-02  0.1349781E+00
          2   -1    0    0  504    0 -0.00000000000E+00  0.00000000000E+00  0.28493589968E+04  0.28493589968E+04  0.00000000000E+00 0.  1.
         21   -1    0    0  503  502  0.00000000000E+00 -0.00000000000E+00 -0.14186031895E+02  0.14186031895E+02  0.00000000000E+00 0.  1.
         21    1    1    2  503  501 -0.48479528978E+02 -0.20405237589E+01  0.21657226245E+03  0.22194137363E+03  0.00000000000E+00 0. -1.
         21    1    1    2  504  505  0.97456135035E+02 -0.57136392083E+02  0.34844940018E+03  0.36630485943E+03  0.00000000000E+00 0.  1.
         21    1    1    2  505  502  0.20255796397E+02  0.45013353575E+02  0.31266503469E+03  0.31653739622E+03  0.00000000000E+00 0. -1.
          2    1    1    2  501    0 -0.69232402454E+02  0.14163562267E+02  0.19574862676E+04  0.19587613994E+04  0.00000000000E+00 0.  1.
<scales pt_clust_3="48.52245" pt_clust_4="73.12385" pt_clust_5="46.27825" pt_clust_6="14000.00000"></scales>
<clustering>
<clus scale="   48.522">  2  3  1 -1</clus>
<clus scale="   46.278">  2  5  1 -1</clus>
<clus scale="   73.124">  2  4  1 -1</clus>
<clus scale="   48.522">  2  3  1 -1</clus>
</clustering>
</event>
<event>
 6    0  0.3584505E+002  0.7929727E+02  0.7546771E-02  0.1331058E+00
         -2   -1    0    0    0  501 -0.00000000000E+00  0.00000000000E+00  0.10087500698E+03  0.10087500698E+03  0.00000000000E+00 0. -1.
         21   -1    0    0  503  502  0.00000000000E+00 -0.00000000000E+00 -0.16363374313E+04  0.16363374313E+04  0.00000000000E+00 0. -1.
         21    1    1    2  503  504  0.30981964520E+02  0.67253587021E+01 -0.42080264567E+03  0.42199523597E+03  0.00000000000E+00 0. -1.
         21    1    1    2  504  505 -0.71708398271E+02  0.34102919568E+02 -0.65355894641E+03  0.65836494434E+03  0.00000000000E+00 0. -1.
         21    1    1    2  505  501  0.64878792845E+02 -0.88167812611E+02 -0.54590483003E+03  0.55677186027E+03  0.00000000000E+00 0. -1.
         -2    1    1    2    0  502 -0.24152359094E+02  0.47339534341E+02  0.84803997789E+02  0.10008039769E+03  0.00000000000E+00 0. -1.
<scales pt_clust_3="31.70351" pt_clust_4="79.29727" pt_clust_5="14000.00000" pt_clust_6="53.09428"></scales>
<clustering>
<clus scale="   31.704">  2  3  1 -1</clus>
<clus scale="   53.094">  1  6  2 -1</clus>
<clus scale="   79.297">  2  4  1 -1</clus>
<clus scale="   31.704">  2  3  1 -1</clus>
</clustering>
</event>
<event>
 6    0  0.9115154E+002  0.8440410E+02  0.7546771E-02  0.1316998E+00
         21   -1    0    0  505  502  0.00000000000E+00  0.00000000000E+00  0.57907194507E+03  0.57907194507E+03  0.00000000000E+00 0.  1.
         -2   -1    0    0    0  501 -0.00000000000E+00 -0.00000000000E+00 -0.89377148120E+03  0.89377148120E+03  0.00000000000E+00 0.  1.
         21    1    1    2  503  501  0.46380174155E+02 -0.35761976807E+02  0.31364673675E+02  0.66436302535E+02  0.00000000000E+00 0. -1.
         21    1    1    2  504  502 -0.70598426029E+02 -0.91083962201E+02  0.47269003150E+03  0.48653498518E+03  0.00000000000E+00 0.  1.
         21    1    1    2  505  503  0.27419005793E+02  0.42520233892E+02  0.35279182107E+02  0.61679760530E+02  0.00000000000E+00 0. -1.
         -2    1    1    2    0  504 -0.32007539190E+01  0.84325705117E+02 -0.85403342342E+03  0.85819237802E+03  0.00000000000E+00 0.  1.
<scales pt_clust_3="58.36010" pt_clust_4="84.40410" pt_clust_5="50.59419" pt_clust_6="14000.00000"></scales>
<clustering>
<clus scale="   50.594">  1  5  2 -1</clus>
<clus scale="   58.360">  1  3  2 -1</clus>
<clus scale="   84.404">  1  4  2 -1</clus>
<clus scale="   50.594">  1  3  2 -1</clus>
</clustering>
</event>
<event>
 6    0  0.3584505E+002  0.2484314E+03  0.7546771E-02  0.1114300E+00
         -2   -1    0    0    0  501 -0.00000000000E+00  0.00000000000E+00  0.60188873615E+03  0.60188873615E+03  0.00000000000E+00 0. -1.
         21   -1    0    0  504  502  0.00000000000E+00 -0.00000000000E+00 -0.64117963466E+03  0.64117963466E+03  0.00000000000E+00 0.  1.
         21    1    1    2  503  505  0.10162063401E+03 -0.25107215772E+03 -0.23070698069E+03  0.35579445271E+03  0.00000000000E+00 0.  1.
         21    1    1    2  504  501 -0.12380233642E+03  0.91383051435E+02  0.11195490167E+03  0.19029393212E+03  0.00000000000E+00 0. -1.
         21    1    1    2  505  502 -0.63710060608E+02 -0.10644533662E+02 -0.28144342213E+03  0.28876058903E+03  0.00000000000E+00 0. -1.
         -2    1    1    2    0  503  0.85891763021E+02  0.17033363994E+03  0.36090460263E+03  0.40821939696E+03  0.00000000000E+00 0. -1.
<scales pt_clust_3="248.43136" pt_clust_4="158.90137" pt_clust_5="64.59317" pt_clust_6="14000.00000"></scales>
<clustering>
<clus scale="   64.593">  2  5  1 -1</clus>
<clus scale="  158.901">  1  4  2 -1</clus>
<clus scale="  248.431">  2  3  1 -1</clus>
<clus scale="   64.593">  2  3  1 -1</clus>
</clustering>
</event>
<event>
 6    0  0.3584505E+002  0.1430023E+03  0.7546771E-02  0.1209345E+00
         21   -1    0    0  504  502  0.00000000000E+00  0.00000000000E+00  0.11309674693E+02  0.11309674693E+02  0.00000000000E+00 0.  1.
          2   -1    0    0  503    0 -0.00000000000E+00 -0.00000000000E+00 -0.30062899618E+04  0.30062899618E+04  0.00000000000E+00 0.  1.
         21    1    1    2  503  505 -0.40217830000E+02 -0.65350725540E+02 -0.87513420108E+03  0.87849192431E+03  0.00000000000E+00 0. -1.
         21    1    1    2  504  501 -0.28110530628E+02  0.56703523246E+02 -0.27676888004E+03  0.28391284655E+03  0.00000000000E+00 0.  1.
         21    1    1    2  505  502 -0.32533804852E+02 -0.70229914843E+02 -0.49031496500E+03  0.49638639617E+03  0.00000000000E+00 0.  1.
          2    1    1    2  501    0  0.10086216548E+03  0.78877117137E+02 -0.13527622410E+04  0.13588084695E+04  0.00000000000E+00 0.  1.
<scales pt_clust_3="46.31919" pt_clust_4="63.28895" pt_clust_5="46.31919" pt_clust_6="135.22426"></scales>
<clustering>
<clus scale="   46.319">  3  5 -1 -1</clus>
<clus scale="   63.289">  1  4  2 -1</clus>
<clus scale="  135.224">  2  6  1 -1</clus>
<clus scale="   63.289">  1  3  2 -1</clus>
</clustering>
</event>
<event>
 6    0  0.3584505E+002  0.1800756E+03  0.7546771E-02  0.1167730E+00
          2   -1    0    0  503    0 -0.00000000000E+00  0.00000000000E+00  0.34635518159E+04  0.34635518159E+04  0.00000000000E+00 0. -1.
         21   -1    0    0  501  502  0.00000000000E+00 -0.00000000000E+00 -0.59215817719E+03  0.59215817719E+03  0.00000000000E+00 0.  1.
         21    1    1    2  503  505  0.40675900909E+02 -0.25010201985E+02  0.48171425694E+02  0.67827172810E+02  0.00000000000E+00 0.  1.
         21    1    1    2  504  502  0.15516190293E+02  0.17947651373E+03 -0.55998934162E+03  0.58825218560E+03  0.00000000000E+00 0.  1.
         21    1    1    2  505  504 -0.80400066677E+02  0.12808093006E+02  0.27427359159E+03  0.28610176688E+03  0.00000000000E+00 0.  1.
          2    1    1    2  501    0  0.24207975475E+02 -0.16727440475E+03  0.31089379630E+04  0.31135288678E+04  0.00000000000E+00 0. -1.
<scales pt_clust_3="47.74976" pt_clust_4="14000.00000" pt_clust_5="77.79983" pt_clust_6="180.07562"></scales>
<clustering>
<clus scale="   47.750">  1  3  2 -1</clus>
<clus scale="   77.800">  1  5  2 -1</clus>
<clus scale="  180.076">  1  6  2 -1</clus>
<clus scale="  180.076">  2  3  1 -1</clus>
</clustering>
</event>
<event>
 6    0  0.3584505E+002  0.5731230E+02  0.7546771E-02  0.1409470E+00
         -3   -1    0    0    0  501 -0.00000000000E+00  0.00000000000E+00  0.52239243572E+03  0.52239243572E+03  0.00000000000E+00 0.  1.
         21   -1    0    0  505  502  0.00000000000E+00 -0.00000000000E+00 -0.73627477111E+03  0.73627477111E+03  0.00000000000E+00 0.  1.
         21    1    1    2  503  501  0.87146340949E+02  0.47770020327E+02 -0.70779164376E+02  0.12200880990E+03  0.00000000000E+00 0.  1.
         21    1    1    2  504  502  0.12338135281E+02 -0.29078685232E+02 -0.26599247399E+02  0.41295514033E+02  0.00000000000E+00 0.  1.
         21    1    1    2  505  503 -0.60292227295E+02  0.22241442226E+02 -0.60257865746E+03  0.60599576966E+03  0.00000000000E+00 0.  1.
         -3    1    1    2    0  504 -0.39192248935E+02 -0.40932777322E+02  0.48607473385E+03  0.48936711324E+03  0.00000000000E+00 0.  1.
<scales pt_clust_3="57.31230" pt_clust_4="31.58796" pt_clust_5="49.75403" pt_clust_6="14000.00000"></scales>
<clustering>
<clus scale="   31.588">  2  4  1 -1</clus>
<clus scale="   49.754">  2  5  1 -1</clus>
<clus scale="   57.312">  2  3  1 -1</clus>
<clus scale="   31.588">  2  3  1 -1</clus>
</clustering>
</event>
<event>
 6    0  0.3584505E+002  0.9998360E+02  0.7546771E-02  0.1280330E+00
          3   -1    0    0  505    0 -0.00000000000E+00  0.00000000000E+00  0.92353591928E+03  0.92353591928E+03  0.00000000000E+00 0.  1.
         21   -1    0    0  504  502  0.00000000000E+00 -0.00000000000E+00 -0.36137263522E+03  0.36137263522E+03  0.00000000000E+00 0.  1.
         21    1    1    2  503  502  0.37785418798E+01 -0.41181261732E+02 -0.25499260736E+03  0.25832422168E+03  0.00000000000E+00 0.  1.
         21    1    1    2  504  501  0.35726275416E+02  0.26789040707E+02 -0.83364447829E+02  0.94570876167E+02  0.00000000000E+00 0.  1.
         21    1    1    2  505  503  0.29086279155E+02 -0.89008664314E+02  0.59391594612E+03  0.60125261331E+03  0.00000000000E+00 0.  1.
          3    1    1    2  501    0 -0.68591096451E+02  0.10340088534E+03  0.30660439313E+03  0.33076084334E+03  0.00000000000E+00 0.  1.
<scales pt_clust_3="41.35425" pt_clust_4="39.79060" pt_clust_5="99.98360" pt_clust_6="14000.00000"></scales>
<clustering>
<clus scale="   41.354">  2  3  1 -1</clus>
<clus scale="   39.791">  2  4  1 -1</clus>
<clus scale="   99.984">  1  5  2 -1</clus>
<clus scale="   41.354">  2  3  1 -1</clus>
</clustering>
</event>
<event>
 6    0  0.3584505E+002  0.1008310E+03  0.7546771E-02  0.1278558E+00
         21   -1    0    0  501  502  0.00000000000E+00  0.00000000000E+00  0.97513260226E+02  0.97513260226E+02  0.00000000000E+00 0. -1.
          2   -1    0    0  503    0 -0.00000000000E+00 -0.00000000000E+00 -0.10863426383E+04  0.10863426383E+04  0.00000000000E+00 0.  1.
         21    1    1    2  503  505  0.67678253436E+02  0.22265905225E+02 -0.93572983430E+03  0.93843829809E+03  0.00000000000E+00 0.  1.
         21    1    1    2  504  502 -0.33518277679E+02  0.38284930869E+02  0.34975988571E+02  0.61745693345E+02  0.00000000000E+00 0. -1.
         21    1    1    2  505  504 -0.46731290530E+02  0.27398533897E+02  0.57286337568E+01  0.54473024691E+02  0.00000000000E+00 0.  1.
          2    1    1    2  501    0  0.12571314773E+02 -0.87949369990E+02 -0.93804166123E+02  0.12919888242E+03  0.00000000000E+00 0.  1.
<scales pt_clust_3="71.24687" pt_clust_4="32.08021" pt_clust_5="32.08021" pt_clust_6="95.24329"></scales>
<clustering>
<clus scale="   32.080">  4  5 -1 -1</clus>
<clus scale="   71.247">  2  3  1 -1</clus>
<clus scale="   95.243">  2  6  1 -1</clus>
<clus scale="  100.831">  1  3  2 -1</clus>
</clustering>
</event>
<event>
 6    0  0.3584505E+002  0.1402818E+03  0.7546771E-02  0.1212950E+00
         21   -1    0    0  505  502  0.00000000000E+00  0.00000000000E+00  0.41754380808E+02  0.41754380808E+02  0.00000000000E+00 0. -1.
          2   -1    0    0  504    0 -0.00000000000E+00 -0.00000000000E+00 -0.11551650790E+04  0.11551650790E+04  0.00000000000E+00 0. -1.
         21    1    1    2  503  502  0.64792195059E+02  0.21579605996E+01 -0.89244400669E+02  0.11030525094E+03  0.00000000000E+00 0. -1.
         21    1    1    2  504  503  0.55044798731E+02 -0.11730996531E+03 -0.42480237316E+03  0.44412679954E+03  0.00000000000E+00 0. -1.
         21    1    1    2  505  501 -0.87214037613E+02  0.13431785205E+03 -0.29400440285E+03  0.33479271592E+03  0.00000000000E+00 0. -1.
          2    1    1    2  501    0 -0.32622956177E+02 -0.19165847332E+02 -0.30535952148E+03  0.30769469338E+03  0.00000000000E+00 0. -1.
<scales pt_clust_3="60.95677" pt_clust_4="140.28175" pt_clust_5="14000.00000" pt_clust_6="37.83632"></scales>
<clustering>
<clus scale="   37.836">  2  6  1 -1</clus>
<clus scale="   60.957">  1  3  2 -1</clus>
<clus scale="  140.282">  2  4  1 -1</clus>
<clus scale="   60.957">  1  3  2 -1</clus>
</clustering>
</event>
<event>
 6    0  0.3584505E+002  0.1426150E+03  0.7546771E-02  0.1209853E+00
         21   -1    0    0  501  502  0.00000000000E+00  0.00000000000E+00  0.21683599194E+03  0.21683599194E+03  0.00000000000E+00 0. -1.
          1   -1    0    0  504    0 -0.00000000000E+00 -0.00000000000E+00 -0.39874820726E+03  0.39874820726E+03  0.00000000000E+00 0. -1.
         21    1    1    2  503  505  0.16360764090E+02 -0.50521072265E+02  0.72822390691E+02  0.90128541153E+02  0.00000000000E+00 0. -1.
         21    1    1    2  504  503 -0.93240897483E+02 -0.49169053134E+02 -0.63747463404E+02  0.12318766107E+03  0.00000000000E+00 0. -1.
         21    1    1    2  505  502 -0.14739938662E+02 -0.78029169625E+02  0.46340084910E+02  0.91941397497E+02  0.00000000000E+00 0. -1.
          1    1    1    2  501    0  0.91620072056E+02  0.17771929502E+03 -0.23732722751E+03  0.31032659948E+03  0.00000000000E+00 0. -1.
<scales pt_clust_3="40.24518" pt_clust_4="105.41091" pt_clust_5="40.24518" pt_clust_6="133.85468"></scales>
<clustering>
<clus scale="   40.245">  3  5 -1 -1</clus>
<clus scale="  105.411">  2  4  1 -1</clus>
<clus scale="  133.855">  2  6  1 -1</clus>
<clus scale="  142.615">  1  3  2 -1</clus>
</clustering>
</event>
<event>
 6    0  0.3584505E+002  0.8612272E+02  0.7546771E-02  0.1312522E+00
         -3   -1    0    0    0  501 -0.00000000000E+00  0.00000000000E+00  0.27164901882E+04  0.27164901882E+04  0.00000000000E+00 0. -1.
         21   -1    0    0  504  502  0.00000000000E+00 -0.00000000000E+00 -0.32948231988E+02  0.32948231988E+02  0.00000000000E+00 0. -1.
         21    1    1    2  503  502 -0.35259444570E+02  0.44489024652E+02  0.12329656046E+03  0.13573703830E+03  0.00000000000E+00 0. -1.
         21    1    1    2  504  505  0.62142807409E+02 -0.11555352043E+03  0.17857816155E+03  0.22159536182E+03  0.00000000000E+00 0. -1.
         21    1    1    2  505  501  0.65651854030E+02  0.54728316867E+02  0.44342003275E+03  0.45158241778E+03  0.00000000000E+00 0. -1.
         -3    1    1    2    0  503 -0.92535216868E+02  0.16336178909E+02  0.19382472014E+04  0.19405236022E+04  0.00000000000E+00 0. -1.
<scales pt_clust_3="56.76708" pt_clust_4="83.79614" pt_clust_5="86.12272" pt_clust_6="14000.00000"></scales>
<clustering>
<clus scale="   56.767">  2  3  1 -1</clus>
<clus scale="   86.123">  1  5  2 -1</clus>
<clus scale="   83.796">  2  4  1 -1</clus>
<clus scale="   56.767">  2  3  1 -1</clus>
</clustering>
</event>
<event>
 6    0  0.3584505E+002  0.2035537E+03  0.7546771E-02  0.1146775E+00
         21   -1    0    0  503  502  0.00000000000E+00  0.00000000000E+00  0.31771647729E+03  0.31771647729E+03  0.00000000000E+00 0. -1.
          2   -1    0    0  505    0 -0.00000000000E+00 -0.00000000000E+00 -0.28854344017E+03  0.28854344017E+03  0.00000000000E+00 0. -1.
         21    1    1    2  503  504 -0.12017697590E+03  0.27823383803E+02  0.12638863627E+03  0.17660898505E+03  0.00000000000E+00 0. -1.
         21    1    1    2  504  501 -0.42473904179E+02 -0.10875521290E+03  0.66373931103E+00  0.11675688167E+03  0.00000000000E+00 0. -1.
         21    1    1    2  505  502  0.20663090946E+03  0.11697695200E+03 -0.61125093373E+02  0.24518608664E+03  0.00000000000E+00 0. -1.
          2    1    1    2  501    0 -0.43980029379E+02 -0.36045122906E+02 -0.36754245091E+02  0.67707964093E+02  0.00000000000E+00 0. -1.
<scales pt_clust_3="123.35577" pt_clust_4="45.67424" pt_clust_5="192.74535" pt_clust_6="45.67424"></scales>
<clustering>
<clus scale="   45.674">  4  6 -1 -1</clus>
<clus scale="  123.356">  1  3  2 -1</clus>
<clus scale="  192.745">  1  5  2 -1</clus>
<clus scale="  123.356">  1  3  2 -1</clus>
</clustering>
</event>
<event>
 6    0  0.3584505E+002  0.1498115E+03  0.7546771E-02  0.1200705E+00
         21   -1    0    0  504  502  0.00000000000E+00  0.00000000000E+00  0.25483645892E+03  0.25483645892E+03  0.00000000000E+00 0. -1.
          2   -1    0    0  505    0 -0.00000000000E+00 -0.00000000000E+00 -0.37753202106E+04  0.37753202106E+04  0.00000000000E+00 0.  1.
         21    1    1    2  503  502 -0.34242511878E+01  0.44890611109E+02 -0.45447001513E+02  0.63971262364E+02  0.00000000000E+00 0. -1.
         21    1    1    2  504  501  0.12357583279E+03 -0.16370072293E+03  0.19084396750E+03  0.28016126261E+03  0.00000000000E+00 0. -1.
         21    1    1    2  505  503  0.23198969989E+02  0.75666483791E+02 -0.17647887876E+03  0.19341252190E+03  0.00000000000E+00 0. -1.
          2    1    1    2  501    0 -0.14335055159E+03  0.43143628029E+02 -0.34894018389E+04  0.34926116226E+04  0.00000000000E+00 0.  1.
<scales pt_clust_3="34.31740" pt_clust_4="149.81146" pt_clust_5="130.36608" pt_clust_6="14000.00000"></scales>
<clustering>
<clus scale="   34.317">  3  5 -1 -1</clus>
<clus scale="  130.366">  1  3  2 -1</clus>
<clus scale="  149.811">  1  4  2 -1</clus>
<clus scale="  130.366">  1  3  2 -1</clus>
</clustering>
</event>
<event>
 6    0  0.3584505E+002  0.7343426E+02  0.7546771E-02  0.1348789E+00
          2   -1    0    0  505    0 -0.00000000000E+00  0.00000000000E+00  0.28646554203E+04  0.28646554203E+04  0.00000000000E+00 0.  1.
         21   -1    0    0  501  502  0.00000000000E+00 -0.00000000000E+00 -0.88917553943E+02  0.88917553943E+02  0.00000000000E+00 0. -1.
         21    1    1    2  503  504  0.11654141479E+03  0.54933229986E+02 -0.49662775074E+01  0.12893496434E+03  0.00000000000E+00 0. -1.
         21    1    1    2  504  502 -0.45286462499E+02 -0.43258578952E+02  0.31914024097E+02  0.70289922981E+02  0.00000000000E+00 0.  1.
         21    1    1    2  505  503 -0.20542337761E+02 -0.31330657154E+02  0.13810342655E+03  0.14309491305E+03  0.00000000000E+00 0.  1.
          2    1    1    2  501    0 -0.50712614528E+02  0.19656006121E+02  0.26106866933E+04  0.26112531739E+04  0.00000000000E+00 0.  1.
<scales pt_clust_3="14000.00000" pt_clust_4="63.31205" pt_clust_5="37.46462" pt_clust_6="73.43426"></scales>
<clustering>
<clus scale="   37.465">  1  5  2 -1</clus>
<clus scale="   63.312">  2  4  1 -1</clus>
<clus scale="   73.434">  1  6  2 -1</clus>
<clus scale="   63.312">  2  3  1 -1</clus>
</clustering>
</event>
<event>
 6    0  0.3584505E+002  0.1255118E+03  0.7546771E-02  0.1234272E+00
         21   -1    0    0  503  502  0.00000000000E+00  0.00000000000E+00  0.22734162366E+03  0.22734162366E+03  0.00000000000E+00 0.  1.
          2   -1    0    0  505    0 -0.00000000000E+00 -0.00000000000E+00 -0.11103574433E+04  0.11103574433E+04  0.00000000000E+00 0. -1.
         21    1    1    2  503  504  0.36590122319E+02 -0.25689109527E+02  0.18359350930E+03  0.18895857762E+03  0.00000000000E+00 0.  1.
         21    1    1    2  504  501 -0.71471279720E+02  0.59074904396E+02 -0.38125360626E+03  0.39236755784E+03  0.00000000000E+00 0. -1.
         21    1    1    2  505  502  0.39376858543E+02 -0.10997571105E+03 -0.69849324900E+02  0.13610335117E+03  0.00000000000E+00 0. -1.
          2    1    1    2  501    0 -0.44957011425E+01  0.76589916181E+02 -0.61550639779E+03  0.62026958035E+03  0.00000000000E+00 0. -1.
<scales pt_clust_3="44.70758" pt_clust_4="14000.00000" pt_clust_5="125.51181" pt_clust_6="75.13758"></scales>
<clustering>
<clus scale="   44.708">  1  3  2 -1</clus>
<clus scale="   75.138">  2  6  1 -1</clus>
<clus scale="  125.512">  1  5  2 -1</clus>
<clus scale="   44.708">  1  3  2 -1</clus>
</clustering>
</event>
<event>
 6    0  0.3584505E+002  0.1313729E+03  0.7546771E-02  0.1225433E+00
          2   -1    0    0  505    0 -0.00000000000E+00  0.00000000000E+00  0.92994363455E+03  0.92994363455E+03  0.00000000000E+00 0. -1.
         21   -1    0    0  504  502  0.00000000000E+00 -0.00000000000E+00 -0.23141168271E+03  0.23141168271E+03  0.00000000000E+00 0. -1.
         21    1    1    2  503  502  0.83159638185E+02 -0.54863755857E+02 -0.85101506844E+02  0.13102604167E+03  0.00000000000E+00 0. -1.
         21    1    1    2  504  501  0.16286485758E+02  0.12309993559E+03  0.27647854295E+03  0.30308287393E+03  0.00000000000E+00 0.  1.
         21    1    1    2  505  503 -0.59333944343E+02 -0.86719018594E+02 -0.83950641627E+02  0.13449317963E+03  0.00000000000E+00 0.  1.
          2    1    1    2  501    0 -0.40112179601E+02  0.18482838861E+02  0.59110555735E+03  0.59275322202E+03  0.00000000000E+00 0. -1.
<scales pt_clust_3="96.66218" pt_clust_4="131.37285" pt_clust_5="14000.00000" pt_clust_6="44.16562"></scales>
<clustering>
<clus scale="   44.166">  1  6  2 -1</clus>
<clus scale="   96.662">  2  3  1 -1</clus>
<clus scale="  131.373">  1  4  2 -1</clus>
<clus scale="   96.662">  2  3  1 -1</clus>
</clustering>
</event>
<event>
 6    0  0.3584505E+002  0.9167762E+02  0.7546771E-02  0.1298839E+00
         21   -1    0    0  503  502  0.00000000000E+00  0.00000000000E+00  0.27521993362E+03  0.27521993362E+03  0.00000000000E+00 0.  1.
         -1   -1    0    0    0  501 -0.00000000000E+00 -0.00000000000E+00 -0.10093874839E+03  0.10093874839E+03  0.00000000000E+00 0. -1.
         21    1    1    2  503  504 -0.96545021647E+01 -0.95065723782E+02  0.16604549774E+03  0.19157716088E+03  0.00000000000E+00 0.  1.
         21    1    1    2  504  501 -0.24669330021E+02 -0.24021872714E+02  0.14946278591E+01  0.34465346724E+02  0.00000000000E+00 0. -1.
         21    1    1    2  505  502  0.55960618347E+02  0.72442492621E+02  0.26077364350E+02  0.95181586845E+02  0.00000000000E+00 0. -1.
         -1    1    1    2    0  505 -0.21636786161E+02  0.46645103875E+02 -0.19336304711E+02  0.54934587564E+02  0.00000000000E+00 0. -1.
<scales pt_clust_3="91.67762" pt_clust_4="34.43292" pt_clust_5="14000.00000" pt_clust_6="48.55061"></scales>
<clustering>
<clus scale="   34.433">  2  4  1 -1</clus>
<clus scale="   48.551">  2  6  1 -1</clus>
<clus scale="   91.678">  1  3  2 -1</clus>
<clus scale="   91.678">  1  3  2 -1</clus>
</clustering>
</event>
<event>
 6    0  0.3584505E+002  0.1714197E+03  0.7546771E-02  0.1176375E+00
         21   -1    0    0  501  502  0.00000000000E+00  0.00000000000E+00  0.80693630578E+02  0.80693630578E+02  0.00000000000E+00 0.  1.
          2   -1    0    0  505    0 -0.00000000000E+00 -0.00000000000E+00 -0.30483268527E+04  0.30483268527E+04  0.00000000000E+00 0. -1.
         21    1    1    2  503  504 -0.64680825604E+02 -0.98063218020E+02 -0.12856971644E+03  0.17415560833E+03  0.00000000000E+00 0.  1.
         21    1    1    2  504  502 -0.32187760184E+02 -0.23877507395E+02 -0.10311344769E+02  0.41382497460E+02  0.00000000000E+00 0.  1.
         21    1    1    2  505  503  0.68709730866E+02  0.15810996711E+03 -0.13401935633E+03  0.21835974145E+03  0.00000000000E+00 0.  1.
          2    1    1    2  501    0  0.28158854922E+02 -0.36169241695E+02 -0.26947328046E+04  0.26951226360E+04  0.00000000000E+00 0. -1.
<scales pt_clust_3="31.53900" pt_clust_4="31.53900" pt_clust_5="162.69307" pt_clust_6="45.83814"></scales>
<clustering>
<clus scale="   31.539">  3  4 -1 -1</clus>
<clus scale="   45.838">  2  6  1 -1</clus>
<clus scale="  162.693">  2  5  1 -1</clus>
<clus scale="  171.420">  1  3  2 -1</clus>
</clustering>
</event>
<event>
 6    0  0.3584505E+002  0.1066540E+03  0.7546771E-02  0.1266895E+00
         21   -1    0    0  503  502  0.00000000000E+00  0.00000000000E+00  0.10765117296E+03  0.10765117296E+03  0.00000000000E+00 0.  1.
          2   -1    0    0  504    0 -0.00000000000E+00 -0.00000000000E+00 -0.27051004037E+04  0.27051004037E+04  0.00000000000E+00 0.  1.
         21    1    1    2  503  501 -0.78505480829E+02  0.19413949432E+02  0.11498542525E+02  0.81683709716E+02  0.00000000000E+00 0.  1.
         21    1    1    2  504  505  0.15870935850E+02 -0.50886290337E+02 -0.84755090143E+02  0.10012355594E+03  0.00000000000E+00 0. -1.
         21    1    1    2  505  502 -0.29169893994E+02 -0.25146470050E+02  0.45146781277E+02  0.59341886819E+02  0.00000000000E+00 0.  1.
          2    1    1    2  501    0  0.91804438973E+02  0.56618810955E+02 -0.25693394644E+04  0.25716024242E+04  0.00000000000E+00 0.  1.
<scales pt_clust_3="106.65396" pt_clust_4="55.64486" pt_clust_5="38.51269" pt_clust_6="14000.00000"></scales>
<clustering>
<clus scale="   38.513">  1  5  2 -1</clus>
<clus scale="   55.645">  1  4  2 -1</clus>
<clus scale="  106.654">  1  3  2 -1</clus>
<clus scale="   38.513">  1  3  2 -1</clus>
</clustering>
</event>
<event>
 6    0  0.3584505E+002  0.1344762E+03  0.7546771E-02  0.1220961E+00
         21   -1    0    0  504  502  0.00000000000E+00  0.00000000000E+00  0.62747762913E+03  0.62747762913E+03  0.00000000000E+00 0.  1.
          2   -1    0    0  503    0 -0.00000000000E+00 -0.00000000000E+00 -0.15412083267E+04  0.15412083267E+04  0.00000000000E+00 0.  1.
         21    1    1    2  503  502  0.91335302959E+02  0.92879551720E+02 -0.36250187091E+03  0.38519651492E+03  0.00000000000E+00 0.  1.
         21    1    1    2  504  505  0.15819485397E-01 -0.38610076839E+02  0.59070721923E+03  0.59196769940E+03  0.00000000000E+00 0.  1.
         21    1    1    2  505  501 -0.12184465242E+03 -0.49353368667E+02 -0.15141920885E+03  0.20052344285E+03  0.00000000000E+00 0.  1.
          2    1    1    2  501    0  0.30493529977E+02 -0.49161062147E+01 -0.99051683702E+03  0.99099829863E+03  0.00000000000E+00 0.  1.
<scales pt_clust_3="134.47617" pt_clust_4="38.61574" pt_clust_5="14000.00000" pt_clust_6="30.88727"></scales>
<clustering>
<clus scale="   30.887">  2  6  1 -1</clus>
<clus scale="   38.616">  1  4  2 -1</clus>
<clus scale="  134.476">  2  3  1 -1</clus>
<clus scale="   38.616">  1  3  2 -1</clus>
</clustering>
</event>
<event>
 6    0  0.3584505E+002  0.1488212E+03  0.7546771E-02  0.1201929E+00
          1   -1    0    0  503    0 -0.00000000000E+00  0.00000000000E+00  0.16439215620E+04  0.16439215620E+04  0.00000000000E+00 0.  1.
         21   -1    0    0  504  502  0.00000000000E+00 -0.00000000000E+00 -0.79492598378E+03  0.79492598378E+03  0.00000000000E+00 0. -1.
         21    1    1    2  503  502  0.10402135586E+03  0.81795846761E+02 -0.13404407469E+03  0.18835821454E+03  0.00000000000E+00 0. -1.
         21    1    1    2  504  505 -0.14377363430E+03 -0.60674091195E+02 -0.61330163453E+03  0.63284366014E+03  0.00000000000E+00 0. -1.
         21    1    1    2  505  501  0.13856214659E+02 -0.40723624211E+02  0.33643404663E+02  0.54610318905E+02  0.00000000000E+00 0. -1.
          1    1    1    2  501    0  0.25896063777E+02  0.19601868644E+02  0.15626978828E+04  0.15630353522E+04  0.00000000000E+00 0.  1.
<scales pt_clust_3="14000.00000" pt_clust_4="148.82120" pt_clust_5="41.04357" pt_clust_6="32.47829"></scales>
<clustering>
<clus scale="   32.478">  1  6  2 -1</clus>
<clus scale="   41.044">  1  5  2 -1</clus>
<clus scale="  148.821">  2  4  1 -1</clus>
<clus scale="  148.821">  2  3  1 -1</clus>
</clustering>
</event>
<event>
 6    0  0.3584505E+002  0.8117113E+02  0.7546771E-02  0.1325760E+00
          2   -1    0    0  503    0 -0.00000000000E+00  0.00000000000E+00  0.10376646315E+04  0.10376646315E+04  0.00000000000E+00 0. -1.
         21   -1    0    0  505  502  0.00000000000E+00 -0.00000000000E+00 -0.12321800542E+03  0.12321800542E+03  0.00000000000E+00 0. -1.
         21    1    1    2  503  504 -0.16044273726E+02  0.28872708376E+02  0.15102587112E+03  0.15459581416E+03  0.00000000000E+00 0.  1.
         21    1    1    2  504  502  0.88114133768E+02 -0.52003220875E+02  0.14968153095E+03  0.18130911797E+03  0.00000000000E+00 0.  1.
         21    1    1    2  505  501 -0.77506697123E+02 -0.27964622968E+02 -0.88466145299E+02  0.12089485970E+03  0.00000000000E+00 0. -1.
          2    1    1    2  501    0  0.54368370809E+01  0.51095135466E+02  0.70220536926E+03  0.70408284505E+03  0.00000000000E+00 0. -1.
<scales pt_clust_3="33.03108" pt_clust_4="14000.00000" pt_clust_5="81.17113" pt_clust_6="74.39892"></scales>
<clustering>
<clus scale="   33.031">  1  3  2 -1</clus>
<clus scale="   74.399">  1  6  2 -1</clus>
<clus scale="   81.171">  2  5  1 -1</clus>
<clus scale="   81.171">  2  3  1 -1</clus>
</clustering>
</event>
<event>
 6    0  0.3584505E+002  0.1362345E+03  0.7546771E-02  0.1218487E+00
          1   -1    0    0  504    0 -0.00000000000E+00  0.00000000000E+00  0.10690289537E+04  0.10690289537E+04  0.00000000000E+00 0.  1.
         21   -1    0    0  503  502  0.00000000000E+00 -0.00000000000E+00 -0.39904581514E+03  0.39904581514E+03  0.00000000000E+00 0. -1.
         21    1    1    2  503  505 -0.13851362234E+03  0.12971818840E+02 -0.35093101513E+03  0.37750081992E+03  0.00000000000E+00 0. -1.
         21    1    1    2  504  502  0.38561378663E+02  0.65081788117E+02  0.24457016307E+02  0.79503237139E+02  0.00000000000E+00 0. -1.
         21    1    1    2  505  501  0.68991808414E+02 -0.54720678294E+02  0.27899343381E+03  0.29256034996E+03  0.00000000000E+00 0. -1.
          1    1    1    2  501    0  0.30960435267E+02 -0.23332928663E+02  0.71746370358E+03  0.71851036184E+03  0.00000000000E+00 0.  1.
<scales pt_clust_3="14000.00000" pt_clust_4="75.22913" pt_clust_5="136.23451" pt_clust_6="38.76821"></scales>
<clustering>
<clus scale="   38.768">  1  6  2 -1</clus>
<clus scale="   75.229">  1  4  2 -1</clus>
<clus scale="  136.235">  1  5  2 -1</clus>
<clus scale="  136.235">  2  3  1 -1</clus>
</clustering>
</event>
<event>
 6    0  0.3584505E+002  0.1060356E+03  0.7546771E-02  0.1268093E+00
         -1   -1    0    0    0  501 -0.00000000000E+00  0.00000000000E+00  0.77540437286E+03  0.77540437286E+03  0.00000000000E+00 0. -1.
         21   -1    0    0  504  502  0.00000000000E+00 -0.00000000000E+00 -0.12843628382E+03  0.12843628382E+03  0.00000000000E+00 0.  1.
         21    1    1    2  503  505  0.22049741618E+02  0.79662682242E+02  0.50961702431E+02  0.97105247860E+02  0.00000000000E+00 0.  1.
         21    1    1    2  504  501 -0.70605584315E+02 -0.96076551710E+02 -0.35848483896E+02  0.12450287596E+03  0.00000000000E+00 0.  1.
         21    1    1    2  505  502  0.25740901503E+02 -0.33314108181E+02 -0.55672540835E+01  0.42466670839E+02  0.00000000000E+00 0. -1.
         -1    1    1    2    0  503  0.22814941194E+02  0.49727977649E+02  0.63742212458E+03  0.63976586202E+03  0.00000000000E+00 0. -1.
<scales pt_clust_3="14000.00000" pt_clust_4="106.03560" pt_clust_5="42.10016" pt_clust_6="54.49417"></scales>
<clustering>
<clus scale="   42.100">  2  5  1 -1</clus>
<clus scale="   54.494">  1  6  2 -1</clus>
<clus scale="  106.036">  2  4  1 -1</clus>
<clus scale="   42.100">  2  3  1 -1</clus>
</clustering>
</event>
<event>
 6    0  0.3584505E+002  0.6156557E+02  0.7546771E-02  0.1391377E+00
         21   -1    0    0  504  502  0.00000000000E+00  0.00000000000E+00  0.79368190524E+02  0.79368190524E+02  0.00000000000E+00 0. -1.
          2   -1    0    0  505    0 -0.00000000000E+00 -0.00000000000E+00 -0.18625335131E+04  0.18625335131E+04  0.00000000000E+00 0. -1.
         21    1    1    2  503  502  0.21661995858E+02  0.49768629083E+02 -0.14861839456E+02  0.56276396273E+02  0.00000000000E+00 0. -1.
         21    1    1    2  504  501  0.37632209546E+02 -0.65244040639E+02  0.30526905503E+02  0.81270289736E+02  0.00000000000E+00 0. -1.
         21    1    1    2  505  503  0.48469332525E+01 -0.38654950981E+02 -0.22959035651E+03  0.23287213186E+03  0.00000000000E+00 0. -1.
          2    1    1    2  501    0 -0.64141138657E+02  0.54130362537E+02 -0.15692400321E+04  0.15714828857E+04  0.00000000000E+00 0. -1.
<scales pt_clust_3="53.54965" pt_clust_4="14000.00000" pt_clust_5="38.95764" pt_clust_6="61.56557"></scales>
<clustering>
<clus scale="   38.958">  2  5  1 -1</clus>
<clus scale="   53.550">  1  3  2 -1</clus>
<clus scale="   61.566">  2  6  1 -1</clus>
<clus scale="   53.550">  1  3  2 -1</clus>
</clustering>
</event>
<event>
 6    0  0.3584505E+002  0.1113261E+03  0.7546771E-02  0.1258134E+00
         -4   -1    0    0    0  501 -0.00000000000E+00  0.00000000000E+00  0.20594266804E+03  0.20594266804E+03  0.00000000000E+00 0.  1.
         21   -1    0    0  505  502  0.00000000000E+00 -0.00000000000E+00 -0.44473811688E+03  0.44473811688E+03  0.00000000000E+00 0.  1.
         21    1    1    2  503  502 -0.11898086993E+03 -0.44626235977E+02 -0.19566520522E+03  0.23330842437E+03  0.00000000000E+00 0.  1.
         21    1    1    2  504  503  0.85822484014E+02  0.27575774615E+02  0.68087532571E+02  0.11296828847E+03  0.00000000000E+00 0.  1.
         21    1    1    2  505  501  0.55347472203E+01  0.30988978297E+02 -0.20409509561E+03  0.20650849439E+03  0.00000000000E+00 0.  1.
         -4    1    1    2    0  504  0.27623638692E+02 -0.13938516934E+02  0.92877319421E+02  0.97895577692E+02  0.00000000000E+00 0.  1.
<scales pt_clust_3="111.32614" pt_clust_4="14000.00000" pt_clust_5="31.38427" pt_clust_6="30.94104"></scales>
<clustering>
<clus scale="   30.941">  1  6  2 -1</clus>
<clus scale="   31.384">  2  5  1 -1</clus>
<clus scale="  111.326">  2  3  1 -1</clus>
<clus scale="   31.384">  2  3  1 -1</clus>
</clustering>
</event>
<event>
 6    0  0.3584505E+002  0.1021298E+03  0.7546771E-02  0.1275880E+00
         21   -1    0    0  505  502  0.00000000000E+00  0.00000000000E+00  0.11417077413E+03  0.11417077413E+03  0.00000000000E+00 0.  1.
          1   -1    0    0  504    0 -0.00000000000E+00 -0.00000000000E+00 -0.10257335403E+04  0.10257335403E+04  0.00000000000E+00 0.  1.
         21    1    1    2  503  502 -0.38376240426E+02  0.28728314415E+02  0.54541688762E+02  0.72614376616E+02  0.00000000000E+00 0.  1.
         21    1    1    2  504  503  0.53320342678E+02 -0.58333878272E+02 -0.59050185327E+02  0.98655079366E+02  0.00000000000E+00 0. -1.
         21    1    1    2  505  501 -0.11538670053E+03  0.20695507950E+02 -0.96514588066E+02  0.15184683209E+03  0.00000000000E+00 0. -1.
          1    1    1    2  501    0  0.10044259827E+03  0.89100559081E+01 -0.81053968159E+03  0.81678802640E+03  0.00000000000E+00 0.  1.
<scales pt_clust_3="47.93800" pt_clust_4="60.69813" pt_clust_5="102.12983" pt_clust_6="14000.00000"></scales>
<clustering>
<clus scale="   47.938">  1  3  2 -1</clus>
<clus scale="   60.698">  1  4  2 -1</clus>
<clus scale="  102.130">  1  5  2 -1</clus>
<clus scale="   47.938">  1  3  2 -1</clus>
</clustering>
</event>
<event>
 6    0  0.3584505E+002  0.1552038E+03  0.7546771E-02  0.1194221E+00
         -1   -1    0    0    0  501 -0.00000000000E+00  0.00000000000E+00  0.25270118187E+04  0.25270118187E+04  0.00000000000E+00 0.  1.
         21   -1    0    0  501  502  0.00000000000E+00 -0.00000000000E+00 -0.93691330344E+02  0.93691330344E+02  0.00000000000E+00 0. -1.
         21    1    1    2  503  505 -0.57984584252E+02  0.97789122343E+02  0.41524229202E+01  0.11376364567E+03  0.00000000000E+00 0. -1.
         21    1    1    2  504  503  0.62252544091E+02 -0.10790900650E+03  0.87650846582E+03  0.88531735755E+03  0.00000000000E+00 0.  1.
         21    1    1    2  505  502 -0.34924597560E+02  0.11168375268E+02 -0.24542044026E+02  0.44122239810E+02  0.00000000000E+00 0. -1.
         -1    1    1    2    0  504  0.30656637721E+02 -0.10484911161E+01  0.15772016437E+04  0.15774999060E+04  0.00000000000E+00 0.  1.
<scales pt_clust_3="35.96685" pt_clust_4="141.70341" pt_clust_5="35.96685" pt_clust_6="30.67456"></scales>
<clustering>
<clus scale="   30.675">  1  6  2 -1</clus>
<clus scale="   35.967">  3  5 -1 -1</clus>
<clus scale="  141.703">  1  4  2 -1</clus>
<clus scale="  155.204">  2  3  1 -1</clus>
</clustering>
</event>
<event>
 6    0  0.3584505E+002  0.1057138E+03  0.7546771E-02  0.1268720E+00
         21   -1    0    0  504  502  0.00000000000E+00  0.00000000000E+00  0.37266515318E+02  0.37266515318E+02  0.00000000000E+00 0. -1.
          2   -1    0    0  503    0 -0.00000000000E+00 -0.00000000000E+00 -0.83066137525E+03  0.83066137525E+03  0.00000000000E+00 0. -1.
         21    1    1    2  503  502  0.39445160149E+02  0.10192844815E+03 -0.28086655537E+03  0.30138240016E+03  0.00000000000E+00 0. -1.
         21    1    1    2  504  505 -0.55893216378E+02  0.78434091527E+01 -0.73710204905E+02  0.92837303985E+02  0.00000000000E+00 0. -1.
         21    1    1    2  505  501 -0.16099075105E+02 -0.99836301421E+02 -0.13861550464E+03  0.17158299865E+03  0.00000000000E+00 0. -1.
          2    1    1    2  501    0  0.32547131334E+02 -0.99355558772E+01 -0.30020259502E+03  0.30212518777E+03  0.00000000000E+00 0. -1.
<scales pt_clust_3="105.71378" pt_clust_4="51.16155" pt_clust_5="14000.00000" pt_clust_6="34.02985"></scales>
<clustering>
<clus scale="   34.030">  2  6  1 -1</clus>
<clus scale="   51.162">  1  4  2 -1</clus>
<clus scale="  105.714">  2  3  1 -1</clus>
<clus scale="   51.162">  1  3  2 -1</clus>
</clustering>
</event>
<event>
 6    0  0.3584505E+002  0.1288228E+03  0.7546771E-02  0.1229213E+00
          1   -1    0    0  504    0 -0.00000000000E+00  0.00000000000E+00  0.92009049085E+03  0.92009049085E+03  0.00000000000E+00 0. -1.
         21   -1    0    0  505  502  0.00000000000E+00 -0.00000000000E+00 -0.54018506563E+03  0.54018506563E+03  0.00000000000E+00 0.  1.
         21    1    1    2  503  501 -0.31009022042E+02 -0.11911341678E+03  0.94349177614E+02  0.15508492132E+03  0.00000000000E+00 0. -1.
         21    1    1    2  504  502  0.64016113128E+01  0.13192586983E+03 -0.46489347269E+03  0.48329220633E+03  0.00000000000E+00 0.  1.
         21    1    1    2  505  503 -0.42340313999E+02 -0.42367197571E+01 -0.21034868613E+02  0.47467016773E+02  0.00000000000E+00 0.  1.
          1    1    1    2  501    0  0.66947724728E+02 -0.85757333000E+01  0.77148458891E+03  0.77443141205E+03  0.00000000000E+00 0. -1.
<scales pt_clust_3="14000.00000" pt_clust_4="128.82280" pt_clust_5="42.55176" pt_clust_6="67.37402"></scales>
<clustering>
<clus scale="   42.552">  2  5  1 -1</clus>
<clus scale="   67.374">  1  6  2 -1</clus>
<clus scale="  128.823">  2  4  1 -1</clus>
<clus scale="   42.552">  2  3  1 -1</clus>
</clustering>
</event>
<event>
 6    0  0.3584505E+002  0.1104354E+03  0.7546771E-02  0.1259766E+00
          1   -1    0    0  505    0 -0.00000000000E+00  0.00000000000E+00  0.13475728173E+04  0.13475728173E+04  0.00000000000E+00 0.  1.
         21   -1    0    0  504  502  0.00000000000E+00 -0.00000000000E+00 -0.84159085117E+02  0.84159085117E+02  0.00000000000E+00 0. -1.
         21    1    1    2  503  502  0.57432059886E+01  0.31701139829E+02 -0.41326803596E+02  0.52400871910E+02  0.00000000000E+00 0. -1.
         21    1    1    2  504  501  0.45861790139E+02  0.76118228364E+02  0.57841985351E+02  0.10603293712E+03  0.00000000000E+00 0. -1.
         21    1    1    2  505  503 -0.13661604063E+03 -0.62758159029E+02  0.56563681350E+03  0.58527560505E+03  0.00000000000E+00 0. -1.
          1    1    1    2  501    0  0.85011044504E+02 -0.45061209163E+02  0.68126173689E+03  0.68802248830E+03  0.00000000000E+00 0.  1.
<scales pt_clust_3="32.21718" pt_clust_4="14000.00000" pt_clust_5="110.43541" pt_clust_6="95.37018"></scales>
<clustering>
<clus scale="   32.217">  2  3  1 -1</clus>
<clus scale="   95.370">  1  6  2 -1</clus>
<clus scale="  110.435">  1  5  2 -1</clus>
<clus scale="   32.217">  2  3  1 -1</clus>
</clustering>
</event>
<event>
 6    0  0.3584505E+002  0.8023673E+02  0.7546771E-02  0.1328381E+00
         21   -1    0    0  503  502  0.00000000000E+00  0.00000000000E+00  0.16252653522E+03  0.16252653522E+03  0.00000000000E+00 0. -1.
          2   -1    0    0  504    0 -0.00000000000E+00 -0.00000000000E+00 -0.16532654365E+04  0.16532654365E+04  0.00000000000E+00 0. -1.
         21    1    1    2  503  505  0.11637370184E+03 -0.36730280846E+02  0.36460324495E+02  0.12736289598E+03  0.00000000000E+00 0. -1.
         21    1    1    2  504  502 -0.39255155885E+02 -0.72569413879E+00  0.58946303688E+02  0.70824858729E+02  0.00000000000E+00 0. -1.
         21    1    1    2  505  501 -0.53203229586E+02  0.10543206541E+02 -0.31862767272E+02  0.62904521147E+02  0.00000000000E+00 0. -1.
          2    1    1    2  501    0 -0.23915316371E+02  0.26912768445E+02 -0.15542827622E+04  0.15546996959E+04  0.00000000000E+00 0. -1.
<scales pt_clust_3="14000.00000" pt_clust_4="40.70297" pt_clust_5="80.23673" pt_clust_6="36.00333"></scales>
<clustering>
<clus scale="   36.003">  2  6  1 -1</clus>
<clus scale="   40.703">  1  4  2 -1</clus>
<clus scale="   80.237">  2  5  1 -1</clus>
<clus scale="   40.703">  1  3  2 -1</clus>
</clustering>
</event>
<event>
 6    0  0.3584505E+002  0.1125686E+03  0.7546771E-02  0.1255886E+00
         21   -1    0    0  504  502  0.00000000000E+00  0.00000000000E+00  0.10150722541E+03  0.10150722541E+03  0.00000000000E+00 0. -1.
          2   -1    0    0  505    0 -0.00000000000E+00 -0.00000000000E+00 -0.99461008388E+03  0.99461008388E+03  0.00000000000E+00 0. -1.
         21    1    1    2  503  501 -0.80671729251E+02 -0.37064916583E+02 -0.10536595383E+03  0.13778142171E+03  0.00000000000E+00 0. -1.
         21    1    1    2  504  503  0.42289906746E+02  0.54014296488E+02  0.30448355239E+02  0.75053865819E+02  0.00000000000E+00 0. -1.
         21    1    1    2  505  502 -0.72016718309E+02  0.25268269854E+02 -0.23502769306E+02  0.79857832067E+02  0.00000000000E+00 0. -1.
          2    1    1    2  501    0  0.11039854081E+03 -0.42217649759E+02 -0.79468249057E+03  0.80342418969E+03  0.00000000000E+00 0. -1.
<scales pt_clust_3="69.30025" pt_clust_4="68.60015" pt_clust_5="112.56863" pt_clust_6="14000.00000"></scales>
<clustering>
<clus scale="   68.600">  1  4  2 -1</clus>
<clus scale="   69.300">  1  3  2 -1</clus>
<clus scale="  112.569">  1  5  2 -1</clus>
<clus scale="   68.600">  1  3  2 -1</clus>
</clustering>
</event>
<event>
 6    0  0.3584505E+002  0.8796197E+02  0.7546771E-02  0.1307863E+00
          2   -1    0    0  503    0 -0.00000000000E+00  0.00000000000E+00  0.64841169968E+03  0.64841169968E+03  0.00000000000E+00 0.  1.
         21   -1    0    0  504  502  0.00000000000E+00 -0.00000000000E+00 -0.88204524840E+02  0.88204524840E+02  0.00000000000E+00 0.  1.
         21    1    1    2  503  505 -0.89056560016E+02  0.17813217162E+02  0.31137289600E+03  0.32434774849E+03  0.00000000000E+00 0.  1.
         21    1    1    2  504  501  0.10076972515E+03  0.31137157702E+02  0.78318724777E+02  0.13136926104E+03  0.00000000000E+00 0.  1.
         21    1    1    2  505  502 -0.57586074005E+02 -0.63363121545E+02 -0.17020625321E+02  0.87296865795E+02  0.00000000000E+00 0.  1.
          2    1    1    2  501    0  0.45872908875E+02  0.14412746681E+02  0.18753617938E+03  0.19360234919E+03  0.00000000000E+00 0.  1.
<scales pt_clust_3="63.61433" pt_clust_4="87.96197" pt_clust_5="14000.00000" pt_clust_6="48.08379"></scales>
<clustering>
<clus scale="   48.084">  1  6  2 -1</clus>
<clus scale="   63.614">  1  3  2 -1</clus>
<clus scale="   87.962">  1  4  2 -1</clus>
<clus scale="   87.962">  2  3  1 -1</clus>
</clustering>
</event>
<event>
 6    0  0.3584505E+002  0.1799988E+03  0.7546771E-02  0.1167804E+00
          2   -1    0    0  505    0 -0.00000000000E+00  0.00000000000E+00  0.16676486603E+04  0.16676486603E+04  0.00000000000E+00 0.  1.
         21   -1    0    0  504  502  0.00000000000E+00 -0.00000000000E+00 -0.28437561718E+03  0.28437561718E+03  0.00000000000E+00 0. -1.
         21    1    1    2  503  501  0.73063067039E+02  0.20074419985E+03 -0.46644115275E+02  0.21865982490E+03  0.00000000000E+00 0. -1.
         21    1    1    2  504  503 -0.49490831114E+02  0.13864453579E+02 -0.52706137069E+02  0.73617269184E+02  0.00000000000E+00 0. -1.
         21    1    1    2  505  502  0.33766532894E+02 -0.45352500943E+02 -0.73871614264E+02  0.93027111529E+02  0.00000000000E+00 0. -1.
          2    1    1    2  501    0 -0.57338768818E+02 -0.16925615248E+03  0.15564949098E+04  0.15667200719E+04  0.00000000000E+00 0.  1.
<scales pt_clust_3="179.99882" pt_clust_4="51.39616" pt_clust_5="42.86865" pt_clust_6="14000.00000"></scales>
<clustering>
<clus scale="   51.396">  2  4  1 -1</clus>
<clus scale="   42.869">  2  5  1 -1</clus>
<clus scale="  179.999">  2  3  1 -1</clus>
<clus scale="   51.396">  2  3  1 -1</clus>
</clustering>
</event>
<event>
 6    0  0.3584505E+002  0.1141187E+03  0.7546771E-02  0.1253127E+00
         21   -1    0    0  504  502  0.00000000000E+00  0.00000000000E+00  0.11377914332E+03  0.11377914332E+03  0.00000000000E+00 0. -1.
          2   -1    0    0  503    0 -0.00000000000E+00 -0.00000000000E+00 -0.83021734267E+03  0.83021734267E+03  0.00000000000E+00 0. -1.
         21    1    1    2  503  502 -0.40902049270E+02  0.10834325237E+03 -0.78078382460E+02  0.13966915112E+03  0.00000000000E+00 0. -1.
         21    1    1    2  504  505 -0.30242234000E+02 -0.38648129056E+01  0.67985652859E+02  0.74508915512E+02  0.00000000000E+00 0. -1.
         21    1    1    2  505  501  0.32843491386E+02 -0.96787188665E+02 -0.22776811091E+03  0.24964928833E+03  0.00000000000E+00 0. -1.
          2    1    1    2  501    0  0.38300791883E+02 -0.76912507953E+01 -0.47857735884E+03  0.48016913103E+03  0.00000000000E+00 0. -1.
<scales pt_clust_3="14000.00000" pt_clust_4="30.48819" pt_clust_5="114.11872" pt_clust_6="38.52524"></scales>
<clustering>
<clus scale="   30.488">  1  4  2 -1</clus>
<clus scale="   38.525">  2  6  1 -1</clus>
<clus scale="  114.119">  2  5  1 -1</clus>
<clus scale="   30.488">  1  3  2 -1</clus>
</clustering>
</event>
<event>
 6    0  0.3584505E+002  0.1698981E+03  0.7546771E-02  0.1177954E+00
         21   -1    0    0  504  502  0.00000000000E+00  0.00000000000E+00  0.55625826093E+03  0.55625826093E+03  0.00000000000E+00 0.  1.
          1   -1    0    0  503    0 -0.00000000000E+00 -0.00000000000E+00 -0.14367600132E+04  0.14367600132E+04  0.00000000000E+00 0.  1.
         21    1    1    2  503  502 -0.17183147152E+03 -0.70725862936E+01 -0.40911707518E+03  0.44379371028E+03  0.00000000000E+00 0.  1.
         21    1    1    2  504  505  0.27350845836E+01 -0.72630063711E+02  0.47762112845E+03  0.48311960133E+03  0.00000000000E+00 0.  1.
         21    1    1    2  505  501  0.47309471779E+02 -0.65900383919E+02  0.15932242730E+02  0.82673351687E+02  0.00000000000E+00 0.  1.
          1    1    1    2  501    0  0.12178691515E+03  0.14560303392E+03 -0.96493804824E+03  0.98343161081E+03  0.00000000000E+00 0.  1.
<scales pt_clust_3="169.89810" pt_clust_4="72.68154" pt_clust_5="123.28042" pt_clust_6="14000.00000"></scales>
<clustering>
<clus scale="   72.682">  1  4  2 -1</clus>
<clus scale="  123.280">  1  5  2 -1</clus>
<clus scale="  169.898">  1  3  2 -1</clus>
<clus scale="   72.682">  1  3  2 -1</clus>
</clustering>
</event>
<event>
 6    0  0.3584505E+002  0.1822500E+03  0.7546771E-02  0.1165643E+00
         -2   -1    0    0    0  501 -0.00000000000E+00  0.00000000000E+00  0.55091801875E+02  0.55091801875E+02  0.00000000000E+00 0. -1.
         21   -1    0    0  503  502  0.00000000000E+00 -0.00000000000E+00 -0.42843335969E+04  0.42843335969E+04  0.00000000000E+00 0. -1.
         21    1    1    2  503  501  0.60571862807E+02 -0.19128294666E+02 -0.11178192527E+04  0.11196225811E+04  0.00000000000E+00 0. -1.
         21    1    1    2  504  505  0.74214493765E+02 -0.18741861149E+03 -0.60046889868E+03  0.63340068306E+03  0.00000000000E+00 0. -1.
         21    1    1    2  505  502 -0.86606807331E+02  0.18788584925E+03 -0.25245203745E+04  0.25329834095E+04  0.00000000000E+00 0. -1.
         -2    1    1    2    0  504 -0.48179549241E+02  0.18661056903E+02  0.13566730916E+02  0.53418725158E+02  0.00000000000E+00 0. -1.
<scales pt_clust_3="61.36805" pt_clust_4="182.25001" pt_clust_5="14000.00000" pt_clust_6="51.66724"></scales>
<clustering>
<clus scale="   51.667">  1  6  2 -1</clus>
<clus scale="   61.368">  2  3  1 -1</clus>
<clus scale="  182.250">  1  4  2 -1</clus>
<clus scale="   61.368">  2  3  1 -1</clus>
</clustering>
</event>
<event>
 6    0  0.3584505E+002  0.1005200E+03  0.7546771E-02  0.1279206E+00
          1   -1    0    0  503    0 -0.00000000000E+00  0.00000000000E+00  0.42817651278E+03  0.42817651278E+03  0.00000000000E+00 0. -1.
         21   -1    0    0  505  502  0.00000000000E+00 -0.00000000000E+00 -0.36756740869E+03  0.36756740869E+03  0.00000000000E+00 0.  1.
         21    1    1    2  503  502  0.28061499264E+02  0.46779952267E+02  0.14760424883E+03  0.15736208549E+03  0.00000000000E+00 0.  1.
         21    1    1    2  504  501  0.42001682651E+02 -0.43617402478E+02  0.42117435717E+02  0.73759728414E+02  0.00000000000E+00 0.  1.
         21    1    1    2  505  504 -0.62709129827E+02  0.85932616131E+02 -0.32893706278E+03  0.34571149931E+03  0.00000000000E+00 0.  1.
          1    1    1    2  501    0 -0.73540520878E+01 -0.89095165921E+02  0.19982448233E+03  0.21891060826E+03  0.00000000000E+00 0. -1.
<scales pt_clust_3="54.55100" pt_clust_4="100.52005" pt_clust_5="14000.00000" pt_clust_6="55.35764"></scales>
<clustering>
<clus scale="   54.551">  1  3  2 -1</clus>
<clus scale="   55.358">  1  6  2 -1</clus>
<clus scale="  100.520">  1  4  2 -1</clus>
<clus scale="  100.520">  2  3  1 -1</clus>
</clustering>
</event>
<event>
 6    0  0.3584505E+002  0.7235826E+02  0.7546771E-02  0.1352252E+00
          4   -1    0    0  503    0 -0.00000000000E+00  0.00000000000E+00  0.63808119474E+03  0.63808119474E+03  0.00000000000E+00 0. -1.
         21   -1    0    0  504  502  0.00000000000E+00 -0.00000000000E+00 -0.56484389367E+03  0.56484389367E+03  0.00000000000E+00 0.  1.
         21    1    1    2  503  505 -0.80671263480E+02  0.75493578348E+01  0.43513318928E+03  0.44261240150E+03  0.00000000000E+00 0. -1.
         21    1    1    2  504  501 -0.18197841380E+02 -0.50319409628E+02 -0.78614716983E+02  0.95097203652E+02  0.00000000000E+00 0.  1.
         21    1    1    2  505  502  0.52921715679E+02 -0.14090159752E+02 -0.46558781410E+03  0.46879766769E+03  0.00000000000E+00 0.  1.
          4    1    1    2  501    0  0.45947389181E+02  0.56860211546E+02  0.18230664288E+03  0.19641781556E+03  0.00000000000E+00 0. -1.
<scales pt_clust_3="71.66705" pt_clust_4="53.50892" pt_clust_5="14000.00000" pt_clust_6="72.35826"></scales>
<clustering>
<clus scale="   53.509">  2  4  1 -1</clus>
<clus scale="   72.358">  1  6  2 -1</clus>
<clus scale="   71.667">  1  3  2 -1</clus>
<clus scale="   53.509">  2  3  1 -1</clus>
</clustering>
</event>
<event>
 6    0  0.3584505E+002  0.1137819E+03  0.7546771E-02  0.1253722E+00
         21   -1    0    0  501  502  0.00000000000E+00  0.00000000000E+00  0.92128239079E+02  0.92128239079E+02  0.00000000000E+00 0. -1.
          1   -1    0    0  503    0 -0.00000000000E+00 -0.00000000000E+00 -0.12052873434E+04  0.12052873434E+04  0.00000000000E+00 0. -1.
         21    1    1    2  503  505  0.43302324961E+02 -0.24602132769E+02 -0.16337375989E+03  0.17079619932E+03  0.00000000000E+00 0. -1.
         21    1    1    2  504  502 -0.83590522672E+02  0.38099792390E+02 -0.11795156461E+03  0.14950431852E+03  0.00000000000E+00 0. -1.
         21    1    1    2  505  504 -0.71755342003E+01 -0.11537629898E+03  0.20500080129E+02  0.11740286173E+03  0.00000000000E+00 0. -1.
          1    1    1    2  501    0  0.47463731912E+02  0.10187863936E+03 -0.85233385991E+03  0.85971220287E+03  0.00000000000E+00 0. -1.
<scales pt_clust_3="49.80318" pt_clust_4="85.47616" pt_clust_5="14000.00000" pt_clust_6="113.78187"></scales>
<clustering>
<clus scale="   49.803">  2  3  1 -1</clus>
<clus scale="   85.476">  1  4  2 -1</clus>
<clus scale="  113.782">  2  6  1 -1</clus>
<clus scale="   85.476">  1  3  2 -1</clus>
</clustering>
</event>
<event>
 6    0  0.3584505E+002  0.6257733E+02  0.7546771E-02  0.1387323E+00
          2   -1    0    0  505    0 -0.00000000000E+00  0.00000000000E+00  0.15441316335E+04  0.15441316335E+04  0.00000000000E+00 0.  1.
         21   -1    0    0  503  502  0.00000000000E+00 -0.00000000000E+00 -0.61997103804E+02  0.61997103804E+02  0.00000000000E+00 0. -1.
         21    1    1    2  503  504  0.49470535061E+02 -0.32784806482E+02 -0.19668941295E+02  0.62522353018E+02  0.00000000000E+00 0. -1.
         21    1    1    2  504  501  0.48937376919E+02 -0.44147580260E+02  0.14762703095E+03  0.16167132080E+03  0.00000000000E+00 0.  1.
         21    1    1    2  505  502 -0.86806737431E+02  0.22079433588E+02  0.13833333164E+03  0.16479994446E+03  0.00000000000E+00 0.  1.
          2    1    1    2  501    0 -0.11601174549E+02  0.54852953154E+02  0.12158431084E+04  0.12171351190E+04  0.00000000000E+00 0.  1.
<scales pt_clust_3="14000.00000" pt_clust_4="47.14035" pt_clust_5="62.57733" pt_clust_6="56.06633"></scales>
<clustering>
<clus scale="   56.066">  1  6  2 -1</clus>
<clus scale="   47.140">  1  4  2 -1</clus>
<clus scale="   62.577">  1  5  2 -1</clus>
<clus scale="   62.577">  2  3  1 -1</clus>
</clustering>
</event>
<event>
 6    0  0.3584505E+002  0.1366923E+03  0.7546771E-02  0.1217850E+00
          2   -1    0    0  505    0 -0.00000000000E+00  0.00000000000E+00  0.87518611580E+03  0.87518611580E+03  0.00000000000E+00 0.  1.
         21   -1    0    0  504  502  0.00000000000E+00 -0.00000000000E+00 -0.21288315380E+03  0.21288315380E+03  0.00000000000E+00 0.  1.
         21    1    1    2  503  501  0.79169193498E+02 -0.37309688212E+02  0.33577445213E+02  0.93740166741E+02  0.00000000000E+00 0.  1.
         21    1    1    2  504  503 -0.20907323192E+02 -0.34654828745E+02 -0.91971473291E+01  0.41504949553E+02  0.00000000000E+00 0.  1.
         21    1    1    2  505  502 -0.58494852142E+01 -0.58054909749E+02 -0.14560154177E+03  0.15685789106E+03  0.00000000000E+00 0.  1.
          2    1    1    2  501    0 -0.52412385092E+02  0.13001942671E+03  0.78352420588E+03  0.79596626224E+03  0.00000000000E+00 0.  1.
<scales pt_clust_3="87.09596" pt_clust_4="40.47312" pt_clust_5="14000.00000" pt_clust_6="136.69235"></scales>
<clustering>
<clus scale="   40.473">  2  4  1 -1</clus>
<clus scale="   87.096">  2  3  1 -1</clus>
<clus scale="  136.692">  1  6  2 -1</clus>
<clus scale="   40.473">  2  3  1 -1</clus>
</clustering>
</event>
<event>
 6    0  0.3584505E+002  0.8320573E+02  0.7546771E-02  0.1320193E+00
          1   -1    0    0  505    0 -0.00000000000E+00  0.00000000000E+00  0.12352319859E+03  0.12352319859E+03  0.00000000000E+00 0.  1.
         21   -1    0    0  503  502  0.00000000000E+00 -0.00000000000E+00 -0.45889573243E+03  0.45889573243E+03  0.00000000000E+00 0. -1.
         21    1    1    2  503  504  0.16140826977E+01  0.85789985307E+02 -0.17387452287E+03  0.19389398274E+03  0.00000000000E+00 0. -1.
         21    1    1    2  504  501 -0.13922006944E+02 -0.93751762139E+02 -0.12894424810E+03  0.16003072923E+03  0.00000000000E+00 0. -1.
         21    1    1    2  505  502  0.28143844179E+02 -0.26745724640E+02 -0.12371933997E+03  0.12966836482E+03  0.00000000000E+00 0. -1.
          1    1    1    2  501    0 -0.15835919932E+02  0.34707501472E+02  0.91165577088E+02  0.98825854230E+02  0.00000000000E+00 0.  1.
<scales pt_clust_3="14000.00000" pt_clust_4="83.20573" pt_clust_5="35.16691" pt_clust_6="38.14953"></scales>
<clustering>
<clus scale="   38.150">  1  6  2 -1</clus>
<clus scale="   35.167">  2  5  1 -1</clus>
<clus scale="   83.206">  1  4  2 -1</clus>
<clus scale="   35.167">  2  3  1 -1</clus>
</clustering>
</event>
<event>
 6    0  0.3584505E+002  0.8483643E+02  0.7546771E-02  0.1315861E+00
         -2   -1    0    0    0  501 -0.00000000000E+00  0.00000000000E+00  0.48787242795E+03  0.48787242795E+03  0.00000000000E+00 0.  1.
         21   -1    0    0  505  502  0.00000000000E+00 -0.00000000000E+00 -0.34517490137E+03  0.34517490137E+03  0.00000000000E+00 0. -1.
         21    1    1    2  503  501  0.13877966370E+03  0.23408823738E+02 -0.59851805509E+02  0.15293791782E+03  0.00000000000E+00 0.  1.
         21    1    1    2  504  502 -0.28505938387E+02 -0.24906643036E+02  0.32287053816E+02  0.49753223361E+02  0.00000000000E+00 0.  1.
         21    1    1    2  505  503 -0.77238106426E+02 -0.17941997746E+00 -0.22284951634E+03  0.23585517634E+03  0.00000000000E+00 0. -1.
         -2    1    1    2    0  504 -0.33035618887E+02  0.16772392755E+01  0.39311179461E+03  0.39450101179E+03  0.00000000000E+00 0.  1.
<scales pt_clust_3="14000.00000" pt_clust_4="49.25328" pt_clust_5="84.83643" pt_clust_6="33.07817"></scales>
<clustering>
<clus scale="   33.078">  1  6  2 -1</clus>
<clus scale="   49.253">  1  4  2 -1</clus>
<clus scale="   84.836">  2  5  1 -1</clus>
<clus scale="   84.836">  2  3  1 -1</clus>
</clustering>
</event>
<event>
 6    0  0.3584505E+002  0.1754254E+03  0.7546771E-02  0.1172305E+00
          1   -1    0    0  503    0 -0.00000000000E+00  0.00000000000E+00  0.22655705785E+04  0.22655705785E+04  0.00000000000E+00 0.  1.
         21   -1    0    0  504  502  0.00000000000E+00 -0.00000000000E+00 -0.36616237267E+02  0.36616237267E+02  0.00000000000E+00 0.  1.
         21    1    1    2  503  502 -0.77607470237E+02 -0.40969321620E+02  0.44395168654E+03  0.45254226845E+03  0.00000000000E+00 0.  1.
         21    1    1    2  504  505  0.35201375128E+02  0.12616978841E+02  0.15367185062E+02  0.40428645076E+02  0.00000000000E+00 0.  1.
         21    1    1    2  505  501 -0.60512446732E+02  0.17021060027E+03  0.60262417414E+03  0.62911787442E+03  0.00000000000E+00 0.  1.
          1    1    1    2  501    0  0.10291854184E+03 -0.14185825749E+03  0.11670112955E+04  0.11800980278E+04  0.00000000000E+00 0.  1.
<scales pt_clust_3="81.16112" pt_clust_4="37.39418" pt_clust_5="14000.00000" pt_clust_6="175.42538"></scales>
<clustering>
<clus scale="   37.394">  2  4  1 -1</clus>
<clus scale="   81.161">  2  3  1 -1</clus>
<clus scale="  175.425">  1  6  2 -1</clus>
<clus scale="   37.394">  2  3  1 -1</clus>
</clustering>
</event>
<event>
 6    0  0.3584505E+002  0.1024933E+03  0.7546771E-02  0.1275139E+00
         -2   -1    0    0    0  501 -0.00000000000E+00  0.00000000000E+00  0.37738735917E+03  0.37738735917E+03  0.00000000000E+00 0.  1.
         21   -1    0    0  503  502  0.00000000000E+00 -0.00000000000E+00 -0.25981884695E+04  0.25981884695E+04  0.00000000000E+00 0. -1.
         21    1    1    2  503  504 -0.41594399509E+02  0.78820300111E+02 -0.35378588712E+03  0.36483857760E+03  0.00000000000E+00 0. -1.
         21    1    1    2  504  501  0.54396811155E+01 -0.12004914562E+03 -0.33190862561E+03  0.35299394222E+03  0.00000000000E+00 0. -1.
         21    1    1    2  505  502  0.28213919624E+00  0.30631061254E+02 -0.18953327694E+04  0.18955802933E+04  0.00000000000E+00 0. -1.
         -2    1    1    2    0  505  0.35872579198E+02  0.10597784255E+02  0.36022617182E+03  0.36216301555E+03  0.00000000000E+00 0.  1.
<scales pt_clust_3="102.49330" pt_clust_4="14000.00000" pt_clust_5="30.63236" pt_clust_6="37.41763"></scales>
<clustering>
<clus scale="   30.632">  2  5  1 -1</clus>
<clus scale="   37.418">  1  6  2 -1</clus>
<clus scale="  102.493">  2  3  1 -1</clus>
<clus scale="   30.632">  2  3  1 -1</clus>
</clustering>
</event>
<event>
 6    0  0.3584505E+002  0.6754519E+02  0.7546771E-02  0.1368645E+00
         21   -1    0    0  504  502  0.00000000000E+00  0.00000000000E+00  0.14931618290E+03  0.14931618290E+03  0.00000000000E+00 0.  1.
         -2   -1    0    0    0  501 -0.00000000000E+00 -0.00000000000E+00 -0.49083612874E+03  0.49083612874E+03  0.00000000000E+00 0.  1.
         21    1    1    2  503  502 -0.34362182678E+02  0.93707908699E+01  0.65024916777E+01  0.36205713886E+02  0.00000000000E+00 0.  1.
         21    1    1    2  504  501  0.47248653877E+02 -0.70233050647E+02  0.92419120855E+02  0.12532521931E+03  0.00000000000E+00 0.  1.
         21    1    1    2  505  503  0.25582592078E+02  0.85465520710E+02 -0.95563382516E+02  0.13073325639E+03  0.00000000000E+00 0. -1.
         -2    1    1    2    0  505 -0.38469063276E+02 -0.24603260933E+02 -0.34487817586E+03  0.34788812205E+03  0.00000000000E+00 0.  1.
<scales pt_clust_3="35.61701" pt_clust_4="67.54519" pt_clust_5="14000.00000" pt_clust_6="45.94600"></scales>
<clustering>
<clus scale="   35.617">  1  3  2 -1</clus>
<clus scale="   45.946">  2  6  1 -1</clus>
<clus scale="   67.545">  1  4  2 -1</clus>
<clus scale="   35.617">  1  3  2 -1</clus>
</clustering>
</event>
<event>
 6    0  0.3584505E+002  0.9548791E+02  0.7546771E-02  0.1290081E+00
         21   -1    0    0  501  502  0.00000000000E+00  0.00000000000E+00  0.14191404353E+03  0.14191404353E+03  0.00000000000E+00 0.  1.
          1   -1    0    0  505    0 -0.00000000000E+00 -0.00000000000E+00 -0.23396275977E+04  0.23396275977E+04  0.00000000000E+00 0. -1.
         21    1    1    2  503  502  0.31635208964E+02 -0.30693880660E+02  0.11113988106E+03  0.11956159048E+03  0.00000000000E+00 0.  1.
         21    1    1    2  504  503 -0.51963042792E+02 -0.69213351874E+02 -0.67074327324E+02  0.10949708343E+03  0.00000000000E+00 0.  1.
         21    1    1    2  505  504  0.88804603014E+02  0.74222693527E+01 -0.58907664150E+03  0.59577901705E+03  0.00000000000E+00 0.  1.
          1    1    1    2  501    0 -0.68476769186E+02  0.92484963182E+02 -0.16527024664E+04  0.16567039502E+04  0.00000000000E+00 0. -1.
<scales pt_clust_3="44.07835" pt_clust_4="95.48791" pt_clust_5="92.86353" pt_clust_6="14000.00000"></scales>
<clustering>
<clus scale="   44.078">  1  3  2 -1</clus>
<clus scale="   92.864">  2  5  1 -1</clus>
<clus scale="   95.488">  1  4  2 -1</clus>
<clus scale="   44.078">  1  3  2 -1</clus>
</clustering>
</event>
<event>
 6    0  0.3584505E+002  0.1180462E+03  0.7546771E-02  0.1246355E+00
          1   -1    0    0  504    0 -0.00000000000E+00  0.00000000000E+00  0.12093034381E+04  0.12093034381E+04  0.00000000000E+00 0.  1.
         21   -1    0    0  501  502  0.00000000000E+00 -0.00000000000E+00 -0.16108656965E+03  0.16108656965E+03  0.00000000000E+00 0.  1.
         21    1    1    2  503  505 -0.55434973176E+02 -0.13766478073E+03  0.11647718397E+03  0.18865726196E+03  0.00000000000E+00 0.  1.
         21    1    1    2  504  503 -0.46111027678E+02  0.17415726501E+03  0.75655557433E+03  0.77771030396E+03  0.00000000000E+00 0.  1.
         21    1    1    2  505  502  0.34044026434E+02  0.49055154711E+02 -0.95272427547E+02  0.11243771338E+03  0.00000000000E+00 0.  1.
          1    1    1    2  501    0  0.67501974420E+02 -0.85547638985E+02  0.27045653775E+03  0.29158472850E+03  0.00000000000E+00 0.  1.
<scales pt_clust_3="14000.00000" pt_clust_4="118.04618" pt_clust_5="59.71100" pt_clust_6="106.28038"></scales>
<clustering>
<clus scale="   59.711">  2  5  1 -1</clus>
<clus scale="  106.280">  1  6  2 -1</clus>
<clus scale="  118.046">  1  4  2 -1</clus>
<clus scale="   59.711">  2  3  1 -1</clus>
</clustering>
</event>
<event>
 6    0  0.3584505E+002  0.1101027E+03  0.7546771E-02  0.1260380E+00
         21   -1    0    0  504  502  0.00000000000E+00  0.00000000000E+00  0.17314868275E+03  0.17314868275E+03  0.00000000000E+00 0.  1.
          1   -1    0    0  505    0 -0.00000000000E+00 -0.00000000000E+00 -0.87519063239E+03  0.87519063239E+03  0.00000000000E+00 0.  1.
         21    1    1    2  503  502 -0.81982656992E+02  0.62757745268E+02 -0.39134873609E+02  0.11041389845E+03  0.00000000000E+00 0. -1.
         21    1    1    2  504  501 -0.21971729151E+02 -0.36275986868E+02  0.11165906212E+03  0.11944224654E+03  0.00000000000E+00 0.  1.
         21    1    1    2  505  503 -0.44840484553E-01 -0.10070188608E+03 -0.14792187652E+03  0.17894623054E+03  0.00000000000E+00 0.  1.
          1    1    1    2  501    0  0.10399922663E+03  0.74220127684E+02 -0.62664426163E+03  0.63953693961E+03  0.00000000000E+00 0.  1.
<scales pt_clust_3="103.73120" pt_clust_4="42.41113" pt_clust_5="110.10266" pt_clust_6="14000.00000"></scales>
<clustering>
<clus scale="   42.411">  1  4  2 -1</clus>
<clus scale="  103.731">  1  3  2 -1</clus>
<clus scale="  110.103">  1  5  2 -1</clus>
<clus scale="   42.411">  1  3  2 -1</clus>
</clustering>
</event>
<event>
 6    0  0.3584505E+002  0.1742315E+03  0.7546771E-02  0.1173506E+00
         21   -1    0    0  503  502  0.00000000000E+00  0.00000000000E+00  0.26090025411E+03  0.26090025411E+03  0.00000000000E+00 0.  1.
         -2   -1    0    0    0  501 -0.00000000000E+00 -0.00000000000E+00 -0.11355991296E+04  0.11355991296E+04  0.00000000000E+00 0.  1.
         21    1    1    2  503  501 -0.63097085866E+02 -0.17840989361E+03 -0.49626532311E+03  0.53112202299E+03  0.00000000000E+00 0.  1.
         21    1    1    2  504  502  0.42924149392E+02  0.38727404189E+02  0.88614090018E+02  0.10580525217E+03  0.00000000000E+00 0.  1.
         21    1    1    2  505  504 -0.11262387755E+02  0.11279932327E+03  0.12346473723E+03  0.16761285764E+03  0.00000000000E+00 0.  1.
         -2    1    1    2    0  505  0.31435324229E+02  0.26883166154E+02 -0.59051237965E+03  0.59195925092E+03  0.00000000000E+00 0.  1.
<scales pt_clust_3="156.65058" pt_clust_4="54.54235" pt_clust_5="54.54235" pt_clust_6="41.36284"></scales>
<clustering>
<clus scale="   41.363">  2  6  1 -1</clus>
<clus scale="   54.542">  4  5 -1 -1</clus>
<clus scale="  156.651">  2  3  1 -1</clus>
<clus scale="  174.232">  1  3  2 -1</clus>
</clustering>
</event>
<event>
 6    0  0.3584505E+002  0.8238305E+02  0.7546771E-02  0.1322422E+00
         21   -1    0    0  501  502  0.00000000000E+00  0.00000000000E+00  0.10474446039E+02  0.10474446039E+02  0.00000000000E+00 0. -1.
          2   -1    0    0  504    0 -0.00000000000E+00 -0.00000000000E+00 -0.32295512366E+04  0.32295512366E+04  0.00000000000E+00 0. -1.
         21    1    1    2  503  502 -0.35243959973E+02 -0.16357610621E+02 -0.15829443349E+03  0.16299336125E+03  0.00000000000E+00 0. -1.
         21    1    1    2  504  505  0.14145629846E+03  0.35522336755E+01 -0.10764883654E+04  0.10857484532E+04  0.00000000000E+00 0. -1.
         21    1    1    2  505  503 -0.34343976612E+02  0.26715684702E+02 -0.16889911778E+03  0.17441372803E+03  0.00000000000E+00 0. -1.
          2    1    1    2  501    0 -0.71868361876E+02 -0.13910307756E+02 -0.18153948738E+04  0.18168701401E+04  0.00000000000E+00 0. -1.
<scales pt_clust_3="38.85496" pt_clust_4="82.38305" pt_clust_5="50.91205" pt_clust_6="14000.00000"></scales>
<clustering>
<clus scale="   38.855">  1  3  2 -1</clus>
<clus scale="   50.912">  1  5  2 -1</clus>
<clus scale="   82.383">  1  4  2 -1</clus>
<clus scale="   38.855">  1  3  2 -1</clus>
</clustering>
</event>
<event>
 6    0  0.3584505E+002  0.8986326E+02  0.7546771E-02  0.1303183E+00
          2   -1    0    0  503    0 -0.00000000000E+00  0.00000000000E+00  0.11028856880E+04  0.11028856880E+04  0.00000000000E+00 0.  1.
         21   -1    0    0  501  502  0.00000000000E+00 -0.00000000000E+00 -0.75666807444E+02  0.75666807444E+02  0.00000000000E+00 0.  1.
         21    1    1    2  503  504 -0.37093618418E+02  0.10067041353E+03  0.46678187501E+03  0.47895280302E+03  0.00000000000E+00 0.  1.
         21    1    1    2  504  505 -0.51052306342E+02 -0.93720502897E+02  0.12431307850E+03  0.16384020304E+03  0.00000000000E+00 0.  1.
         21    1    1    2  505  502  0.41759786706E+02  0.11018450878E+02 -0.38907927042E+02  0.58130137039E+02  0.00000000000E+00 0.  1.
          2    1    1    2  501    0  0.46386138054E+02 -0.17968361509E+02  0.47503185414E+03  0.47762935239E+03  0.00000000000E+00 0.  1.
<scales pt_clust_3="14000.00000" pt_clust_4="89.86326" pt_clust_5="43.18896" pt_clust_6="51.43152"></scales>
<clustering>
<clus scale="   43.189">  2  5  1 -1</clus>
<clus scale="   51.432">  1  6  2 -1</clus>
<clus scale="   89.863">  2  4  1 -1</clus>
<clus scale="   43.189">  2  3  1 -1</clus>
</clustering>
</event>
<event>
 6    0  0.3584505E+002  0.8856695E+02  0.7546771E-02  0.1306360E+00
          2   -1    0    0  503    0 -0.00000000000E+00  0.00000000000E+00  0.24170136365E+04  0.24170136365E+04  0.00000000000E+00 0. -1.
         21   -1    0    0  505  502  0.00000000000E+00 -0.00000000000E+00 -0.32087625344E+03  0.32087625344E+03  0.00000000000E+00 0.  1.
         21    1    1    2  503  502 -0.55703102219E+02  0.10442229448E+02 -0.19275486082E+03  0.20091369321E+03  0.00000000000E+00 0.  1.
         21    1    1    2  504  501 -0.10834683238E+03 -0.96599715532E+01  0.11886048907E+03  0.16112159073E+03  0.00000000000E+00 0. -1.
         21    1    1    2  505  504  0.12999941032E+03 -0.12767896599E+02 -0.61256178557E+02  0.14427468689E+03  0.00000000000E+00 0.  1.
          2    1    1    2  501    0  0.34050524280E+02  0.11985638704E+02  0.22312879334E+04  0.22315799191E+04  0.00000000000E+00 0. -1.
<scales pt_clust_3="55.98768" pt_clust_4="88.56695" pt_clust_5="14000.00000" pt_clust_6="36.09839"></scales>
<clustering>
<clus scale="   36.098">  1  6  2 -1</clus>
<clus scale="   55.988">  2  3  1 -1</clus>
<clus scale="   88.567">  1  4  2 -1</clus>
<clus scale="   55.988">  2  3  1 -1</clus>
</clustering>
</event>
<event>
 6    0  0.3584505E+002  0.7823856E+02  0.7546771E-02  0.1334126E+00
          2   -1    0    0  504    0 -0.00000000000E+00  0.00000000000E+00  0.24188648963E+03  0.24188648963E+03  0.00000000000E+00 0. -1.
         21   -1    0    0  503  502  0.00000000000E+00 -0.00000000000E+00 -0.58695691953E+03  0.58695691953E+03  0.00000000000E+00 0.  1.
         21    1    1    2  503  505 -0.29144236351E+02  0.28758187573E+02 -0.48958005379E+03  0.49128917039E+03  0.00000000000E+00 0.  1.
         21    1    1    2  504  502  0.68957052866E+02 -0.51951165469E+02 -0.41994020949E+00  0.86337564729E+02  0.00000000000E+00 0. -1.
         21    1    1    2  505  501 -0.39626790803E+02  0.67825804733E+02 -0.19416734003E+02  0.80917438766E+02  0.00000000000E+00 0.  1.
          2    1    1    2  501    0 -0.18602571228E+00 -0.44632826838E+02  0.16434629811E+03  0.17029923529E+03  0.00000000000E+00 0. -1.
<scales pt_clust_3="40.94411" pt_clust_4="14000.00000" pt_clust_5="78.23856" pt_clust_6="43.75945"></scales>
<clustering>
<clus scale="   40.944">  2  3  1 -1</clus>
<clus scale="   43.759">  1  6  2 -1</clus>
<clus scale="   78.239">  1  5  2 -1</clus>
<clus scale="   40.944">  2  3  1 -1</clus>
</clustering>
</event>
<event>
 6    0  0.3584505E+002  0.1863191E+03  0.7546771E-02  0.1161824E+00
         21   -1    0    0  501  502  0.00000000000E+00  0.00000000000E+00  0.32792648567E+03  0.32792648567E+03  0.00000000000E+00 0. -1.
          2   -1    0    0  504    0 -0.00000000000E+00 -0.00000000000E+00 -0.31599711722E+04  0.31599711722E+04  0.00000000000E+00 0.  1.
         21    1    1    2  503  505 -0.16409429183E+03 -0.74536429606E+02 -0.60651754913E+03  0.63272913110E+03  0.00000000000E+00 0.  1.
         21    1    1    2  504  503 -0.68765283142E+02  0.82972454027E+02 -0.11433001732E+04  0.11483677018E+04  0.00000000000E+00 0.  1.
         21    1    1    2  505  502  0.56178795565E+02 -0.97948834468E+02  0.29475723402E+03  0.31564514609E+03  0.00000000000E+00 0. -1.
          2    1    1    2  501    0  0.17668077940E+03  0.89512810047E+02 -0.13769841982E+04  0.13911556789E+04  0.00000000000E+00 0.  1.
<scales pt_clust_3="186.31907" pt_clust_4="107.76406" pt_clust_5="112.36546" pt_clust_6="14000.00000"></scales>
<clustering>
<clus scale="  107.764">  2  4  1 -1</clus>
<clus scale="  112.365">  1  5  2 -1</clus>
<clus scale="  186.319">  1  3  2 -1</clus>
<clus scale="  112.365">  1  3  2 -1</clus>
</clustering>
</event>
<event>
 6    0  0.3584505E+002  0.1432537E+03  0.7546771E-02  0.1209017E+00
         -2   -1    0    0    0  501 -0.00000000000E+00  0.00000000000E+00  0.65247043143E+03  0.65247043143E+03  0.00000000000E+00 0.  1.
         21   -1    0    0  501  502  0.00000000000E+00 -0.00000000000E+00 -0.48646944494E+02  0.48646944494E+02  0.00000000000E+00 0.  1.
         21    1    1    2  503  504  0.13643471059E+03 -0.21996144434E+02  0.19949131321E+03  0.24268301273E+03  0.00000000000E+00 0.  1.
         21    1    1    2  504  502 -0.11313361343E+02  0.69146827292E+02  0.11833105174E+03  0.13751913930E+03  0.00000000000E+00 0.  1.
         21    1    1    2  505  503 -0.44121419070E+02 -0.20965222872E+02  0.49434071843E+02  0.69497968674E+02  0.00000000000E+00 0.  1.
         -2    1    1    2    0  505 -0.80999930179E+02 -0.26185459986E+02  0.23656705014E+03  0.25141725521E+03  0.00000000000E+00 0.  1.
<scales pt_clust_3="131.18778" pt_clust_4="70.06622" pt_clust_5="43.59130" pt_clust_6="43.59130"></scales>
<clustering>
<clus scale="   43.591">  5  6 -1 -1</clus>
<clus scale="   70.066">  2  4  1 -1</clus>
<clus scale="  131.188">  2  3  1 -1</clus>
<clus scale="   70.066">  2  3  1 -1</clus>
</clustering>
</event>
<event>
 6    0  0.3584505E+002  0.7660503E+02  0.7546771E-02  0.1338972E+00
         21   -1    0    0  501  502  0.00000000000E+00  0.00000000000E+00  0.17264943405E+03  0.17264943405E+03  0.00000000000E+00 0. -1.
          1   -1    0    0  504    0 -0.00000000000E+00 -0.00000000000E+00 -0.20784179462E+04  0.20784179462E+04  0.00000000000E+00 0. -1.
         21    1    1    2  503  502  0.24682100942E+02 -0.38025360707E+02  0.89734982405E+02  0.10053606930E+03  0.00000000000E+00 0.  1.
         21    1    1    2  504  505  0.45765853665E+02 -0.10085689708E+02 -0.12152264545E+03  0.13024587462E+03  0.00000000000E+00 0.  1.
         21    1    1    2  505  503 -0.92208846685E+02  0.84063649607E+02  0.19540947965E+02  0.12629733663E+03  0.00000000000E+00 0. -1.
          1    1    1    2  501    0  0.21760892078E+02 -0.35952599191E+02 -0.18935217970E+04  0.18939880997E+04  0.00000000000E+00 0. -1.
<scales pt_clust_3="46.56204" pt_clust_4="14000.00000" pt_clust_5="76.60503" pt_clust_6="42.02530"></scales>
<clustering>
<clus scale="   42.025">  2  6  1 -1</clus>
<clus scale="   46.562">  1  3  2 -1</clus>
<clus scale="   76.605">  1  5  2 -1</clus>
<clus scale="   46.562">  1  3  2 -1</clus>
</clustering>
</event>
<event>
 6    0  0.3584505E+002  0.7594418E+02  0.7546771E-02  0.1340972E+00
         -2   -1    0    0    0  501 -0.00000000000E+00  0.00000000000E+00  0.35926330482E+02  0.35926330482E+02  0.00000000000E+00 0.  1.
         21   -1    0    0  504  502  0.00000000000E+00 -0.00000000000E+00 -0.14879008844E+04  0.14879008844E+04  0.00000000000E+00 0. -1.
         21    1    1    2  503  505 -0.32756531024E+02 -0.41430433955E+02 -0.66723565276E+03  0.66932270804E+03  0.00000000000E+00 0. -1.
         21    1    1    2  504  503 -0.43651793305E+02  0.18009422561E+02 -0.32985849759E+03  0.33322131803E+03  0.00000000000E+00 0. -1.
         21    1    1    2  505  501  0.78955491574E+02  0.72532110880E+02 -0.45954430415E+03  0.47188541431E+03  0.00000000000E+00 0. -1.
         -2    1    1    2    0  502 -0.25471672438E+01 -0.49111099486E+02  0.46639006156E+01  0.49397774470E+02  0.00000000000E+00 0.  1.
<scales pt_clust_3="14000.00000" pt_clust_4="47.22095" pt_clust_5="75.94418" pt_clust_6="48.88055"></scales>
<clustering>
<clus scale="   47.221">  2  4  1 -1</clus>
<clus scale="   48.881">  1  6  2 -1</clus>
<clus scale="   75.944">  1  5  2 -1</clus>
<clus scale="   47.221">  2  3  1 -1</clus>
</clustering>
</event>
<event>
 6    0  0.3584505E+002  0.1280383E+03  0.7546771E-02  0.1230396E+00
         -1   -1    0    0    0  501 -0.00000000000E+00  0.00000000000E+00  0.11276797484E+03  0.11276797484E+03  0.00000000000E+00 0. -1.
         21   -1    0    0  503  502  0.00000000000E+00 -0.00000000000E+00 -0.53854646843E+03  0.53854646843E+03  0.00000000000E+00 0.  1.
         21    1    1    2  503  501  0.51744463792E+02 -0.35881497031E+01 -0.98679129864E+02  0.11148064864E+03  0.00000000000E+00 0.  1.
         21    1    1    2  504  505  0.10837637499E+03 -0.35170037895E+02  0.39852789043E+01  0.11400987970E+03  0.00000000000E+00 0. -1.
         21    1    1    2  505  502 -0.15290983918E+03  0.75667961733E+02 -0.34567562608E+03  0.38548501633E+03  0.00000000000E+00 0.  1.
         -1    1    1    2    0  504 -0.72109996020E+01 -0.36909774135E+02  0.14590983448E+02  0.40338898597E+02  0.00000000000E+00 0. -1.
<scales pt_clust_3="51.59658" pt_clust_4="128.03831" pt_clust_5="14000.00000" pt_clust_6="37.60758"></scales>
<clustering>
<clus scale="   37.608">  1  6  2 -1</clus>
<clus scale="   51.597">  2  3  1 -1</clus>
<clus scale="  128.038">  1  4  2 -1</clus>
<clus scale="   51.597">  2  3  1 -1</clus>
</clustering>
</event>
<event>
 6    0  0.3584505E+002  0.2127120E+03  0.7546771E-02  0.1139436E+00
         -4   -1    0    0    0  501 -0.00000000000E+00  0.00000000000E+00  0.53909303136E+03  0.53909303136E+03  0.00000000000E+00 0.  1.
         21   -1    0    0  505  502  0.00000000000E+00 -0.00000000000E+00 -0.11656797938E+03  0.11656797938E+03  0.00000000000E+00 0. -1.
         21    1    1    2  503  502  0.45645564989E+02 -0.98290256038E+02  0.13587538965E+03  0.17380049927E+03  0.00000000000E+00 0.  1.
         21    1    1    2  504  501 -0.34428389863E+02  0.11017750681E+03  0.36865202379E+02  0.12117524574E+03  0.00000000000E+00 0. -1.
         21    1    1    2  505  504  0.11735458855E+01  0.77392705216E+02 -0.16861391292E+02  0.79216882966E+02  0.00000000000E+00 0. -1.
         -4    1    1    2    0  503 -0.12390721012E+02 -0.89279955985E+02  0.26664585125E+03  0.28146838276E+03  0.00000000000E+00 0.  1.
<scales pt_clust_3="86.31649" pt_clust_4="199.39121" pt_clust_5="48.22549" pt_clust_6="86.31649"></scales>
<clustering>
<clus scale="   48.225">  4  5 -1 -1</clus>
<clus scale="   86.316">  3  6 -1 -1</clus>
<clus scale="  199.391">  2  4  1 -1</clus>
<clus scale="  199.391">  2  3  1 -1</clus>
</clustering>
</event>
<event>
 6    0  0.3584505E+002  0.1750632E+03  0.7546771E-02  0.1172668E+00
         21   -1    0    0  501  502  0.00000000000E+00  0.00000000000E+00  0.13516186608E+04  0.13516186608E+04  0.00000000000E+00 0. -1.
          2   -1    0    0  503    0 -0.00000000000E+00 -0.00000000000E+00 -0.62746117699E+03  0.62746117699E+03  0.00000000000E+00 0. -1.
         21    1    1    2  503  505  0.14155213630E+03  0.14414433891E+03  0.18953266316E+03  0.27701485183E+03  0.00000000000E+00 0. -1.
         21    1    1    2  504  502 -0.65165361921E+02 -0.65157046035E+02  0.10011027478E+04  0.10053351067E+04  0.00000000000E+00 0. -1.
         21    1    1    2  505  504  0.25321553100E+02  0.44680048927E+02  0.97642938405E+02  0.11032511611E+03  0.00000000000E+00 0. -1.
          2    1    1    2  501    0 -0.10170832748E+03 -0.12366734180E+03 -0.56412086557E+03  0.58640476317E+03  0.00000000000E+00 0. -1.
<scales pt_clust_3="32.12975" pt_clust_4="92.15186" pt_clust_5="32.12975" pt_clust_6="163.05271"></scales>
<clustering>
<clus scale="   32.130">  3  5 -1 -1</clus>
<clus scale="   92.152">  1  4  2 -1</clus>
<clus scale="  163.053">  2  6  1 -1</clus>
<clus scale="   92.152">  1  3  2 -1</clus>
</clustering>
</event>
<event>
 6    0  0.3584505E+002  0.1233946E+03  0.7546771E-02  0.1237600E+00
          2   -1    0    0  504    0 -0.00000000000E+00  0.00000000000E+00  0.70981709027E+03  0.70981709027E+03  0.00000000000E+00 0.  1.
         21   -1    0    0  503  502  0.00000000000E+00 -0.00000000000E+00 -0.13030744438E+03  0.13030744438E+03  0.00000000000E+00 0. -1.
         21    1    1    2  503  501 -0.70850657678E+02  0.16519619441E+03  0.58063893041E+02  0.18889418735E+03  0.00000000000E+00 0. -1.
         21    1    1    2  504  505 -0.17073798085E+02 -0.41275021664E+02  0.10995003123E+03  0.11867666730E+03  0.00000000000E+00 0. -1.
         21    1    1    2  505  502  0.64544870762E+02 -0.81502042111E+02 -0.13472807200E+02  0.10483386735E+03  0.00000000000E+00 0. -1.
          2    1    1    2  501    0  0.23379585001E+02 -0.42419130631E+02  0.42496852882E+03  0.42771981264E+03  0.00000000000E+00 0.  1.
<scales pt_clust_3="123.39459" pt_clust_4="44.66701" pt_clust_5="14000.00000" pt_clust_6="72.82900"></scales>
<clustering>
<clus scale="   44.667">  1  4  2 -1</clus>
<clus scale="   72.829">  1  6  2 -1</clus>
<clus scale="  123.395">  1  3  2 -1</clus>
<clus scale="  123.395">  2  3  1 -1</clus>
</clustering>
</event>
<event>
 6    0  0.3584505E+002  0.1015533E+03  0.7546771E-02  0.1277063E+00
         21   -1    0    0  505  502  0.00000000000E+00  0.00000000000E+00  0.51099548843E+03  0.51099548843E+03  0.00000000000E+00 0. -1.
          2   -1    0    0  504    0 -0.00000000000E+00 -0.00000000000E+00 -0.49383737251E+03  0.49383737251E+03  0.00000000000E+00 0.  1.
         21    1    1    2  503  502  0.64441296173E+02 -0.16908915240E+03  0.34160850667E+03  0.38657495255E+03  0.00000000000E+00 0.  1.
         21    1    1    2  504  503 -0.63211265578E+02  0.65903608804E+02 -0.15400675058E+02  0.92607400036E+02  0.00000000000E+00 0. -1.
         21    1    1    2  505  501 -0.27958473818E+02  0.80167405012E+02  0.90763685128E+02  0.12428409240E+03  0.00000000000E+00 0. -1.
          2    1    1    2  501    0  0.26728443223E+02  0.23018138585E+02 -0.39981340082E+03  0.40136641595E+03  0.00000000000E+00 0.  1.
<scales pt_clust_3="101.55326" pt_clust_4="14000.00000" pt_clust_5="87.42653" pt_clust_6="35.27385"></scales>
<clustering>
<clus scale="   35.274">  2  6  1 -1</clus>
<clus scale="   87.427">  1  5  2 -1</clus>
<clus scale="  101.553">  1  3  2 -1</clus>
<clus scale="   87.427">  1  3  2 -1</clus>
</clustering>
</event>
<event>
 6    0  0.3584505E+002  0.9035497E+02  0.7546771E-02  0.1301994E+00
         21   -1    0    0  501  502  0.00000000000E+00  0.00000000000E+00  0.30453258120E+02  0.30453258120E+02  0.00000000000E+00 0.  1.
          2   -1    0    0  505    0 -0.00000000000E+00 -0.00000000000E+00 -0.11364487005E+04  0.11364487005E+04  0.00000000000E+00 0.  1.
         21    1    1    2  503  502 -0.99455265013E+01  0.42162574454E+02 -0.62376494414E+02  0.75943552968E+02  0.00000000000E+00 0.  1.
         21    1    1    2  504  503  0.64319115796E+02  0.50526989714E+02 -0.11784144279E+03  0.14344521946E+03  0.00000000000E+00 0.  1.
         21    1    1    2  505  504 -0.52698315572E+02  0.19840206888E+02 -0.60406379941E+03  0.60668263535E+03  0.00000000000E+00 0.  1.
          2    1    1    2  501    0 -0.16752737223E+01 -0.11252977106E+03 -0.32171370581E+03  0.34083055089E+03  0.00000000000E+00 0.  1.
<scales pt_clust_3="43.31970" pt_clust_4="90.35497" pt_clust_5="57.68041" pt_clust_6="14000.00000"></scales>
<clustering>
<clus scale="   43.320">  1  3  2 -1</clus>
<clus scale="   57.680">  2  5  1 -1</clus>
<clus scale="   90.355">  1  4  2 -1</clus>
<clus scale="   43.320">  1  3  2 -1</clus>
</clustering>
</event>
<event>
 6    0  0.3584505E+002  0.7823663E+02  0.7546771E-02  0.1334131E+00
          2   -1    0    0  503    0 -0.00000000000E+00  0.00000000000E+00  0.10263711723E+04  0.10263711723E+04  0.00000000000E+00 0. -1.
         21   -1    0    0  504  502  0.00000000000E+00 -0.00000000000E+00 -0.58011181598E+02  0.58011181598E+02  0.00000000000E+00 0.  1.
         21    1    1    2  503  505  0.30506979592E+02  0.36508007588E+02  0.21991811405E+03  0.22500552729E+03  0.00000000000E+00 0.  1.
         21    1    1    2  504  501 -0.59596355784E+02  0.83141331981E+01  0.90887395455E+02  0.10900169304E+03  0.00000000000E+00 0. -1.
         21    1    1    2  505  502  0.57760608041E+02 -0.92133357105E+02  0.20173041651E+02  0.11059744546E+03  0.00000000000E+00 0.  1.
          2    1    1    2  501    0 -0.28671231849E+02  0.47311216319E+02  0.63738143956E+03  0.63977768812E+03  0.00000000000E+00 0. -1.
<scales pt_clust_3="47.57636" pt_clust_4="57.26467" pt_clust_5="78.23663" pt_clust_6="14000.00000"></scales>
<clustering>
<clus scale="   47.576">  1  3  2 -1</clus>
<clus scale="   57.265">  2  4  1 -1</clus>
<clus scale="   78.237">  2  5  1 -1</clus>
<clus scale="   57.265">  2  3  1 -1</clus>
</clustering>
</event>
<event>
 6    0  0.3584505E+002  0.1099305E+03  0.7546771E-02  0.1260699E+00
         21   -1    0    0  501  502  0.00000000000E+00  0.00000000000E+00  0.61543974664E+02  0.61543974664E+02  0.00000000000E+00 0.  1.
          2   -1    0    0  505    0 -0.00000000000E+00 -0.00000000000E+00 -0.10010162560E+04  0.10010162560E+04  0.00000000000E+00 0. -1.
         21    1    1    2  503  502 -0.16812052428E+02  0.30924783550E+02 -0.22999263651E+02  0.42047038813E+02  0.00000000000E+00 0.  1.
         21    1    1    2  504  503 -0.14836104234E+02 -0.14964916323E+03 -0.85694497878E+02  0.17308532292E+03  0.00000000000E+00 0.  1.
         21    1    1    2  505  504  0.64151410526E+02  0.47443825966E+02 -0.28145377437E+03  0.29254494903E+03  0.00000000000E+00 0. -1.
          2    1    1    2  501    0 -0.32503253864E+02  0.71280553713E+02 -0.54932474546E+03  0.55488291993E+03  0.00000000000E+00 0. -1.
<scales pt_clust_3="35.19925" pt_clust_4="109.93053" pt_clust_5="14000.00000" pt_clust_6="80.21737"></scales>
<clustering>
<clus scale="   35.199">  1  3  2 -1</clus>
<clus scale="   80.217">  2  6  1 -1</clus>
<clus scale="  109.931">  1  4  2 -1</clus>
<clus scale="   35.199">  1  3  2 -1</clus>
</clustering>
</event>
<event>
 6    0  0.3584505E+002  0.9946576E+02  0.7546771E-02  0.1281423E+00
          2   -1    0    0  503    0 -0.00000000000E+00  0.00000000000E+00  0.19593201379E+04  0.19593201379E+04  0.00000000000E+00 0. -1.
         21   -1    0    0  505  502  0.00000000000E+00 -0.00000000000E+00 -0.36530515814E+03  0.36530515814E+03  0.00000000000E+00 0. -1.
         21    1    1    2  503  504 -0.28361196022E+02  0.82472429719E+02 -0.42596476835E+02  0.97059357830E+02  0.00000000000E+00 0.  1.
         21    1    1    2  504  502  0.66492199995E+02  0.30484552771E+02 -0.27577128359E+03  0.28530741573E+03  0.00000000000E+00 0. -1.
         21    1    1    2  505  501 -0.51262714982E+02 -0.14094683709E+02  0.38300296173E+02  0.65524337029E+02  0.00000000000E+00 0. -1.
          2    1    1    2  501    0  0.13131711009E+02 -0.98862298780E+02  0.18740824440E+04  0.18767341854E+04  0.00000000000E+00 0. -1.
<scales pt_clust_3="14000.00000" pt_clust_4="32.02558" pt_clust_5="53.16508" pt_clust_6="99.46576"></scales>
<clustering>
<clus scale="   53.165">  2  5  1 -1</clus>
<clus scale="   32.026">  2  4  1 -1</clus>
<clus scale="   99.466">  1  6  2 -1</clus>
<clus scale="   53.165">  2  3  1 -1</clus>
</clustering>
</event>
<event>
 6    0  0.3584505E+002  0.1708825E+03  0.7546771E-02  0.1176931E+00
         -2   -1    0    0    0  501 -0.00000000000E+00  0.00000000000E+00  0.24961591259E+04  0.24961591259E+04  0.00000000000E+00 0.  1.
         21   -1    0    0  505  502  0.00000000000E+00 -0.00000000000E+00 -0.11489914152E+03  0.11489914152E+03  0.00000000000E+00 0.  1.
         21    1    1    2  503  501 -0.84325333235E+02 -0.10058144694E+02  0.57009543814E+03  0.57638592686E+03  0.00000000000E+00 0.  1.
         21    1    1    2  504  502 -0.10358597517E+03  0.12482550403E+03 -0.57418439772E+01  0.16230967155E+03  0.00000000000E+00 0.  1.
         21    1    1    2  505  503  0.22152097632E+03 -0.11564277394E+03  0.54003149390E+03  0.59504521552E+03  0.00000000000E+00 0.  1.
         -2    1    1    2    0  504 -0.33609667912E+02  0.87541460593E+00  0.12768748964E+04  0.12773174535E+04  0.00000000000E+00 0.  1.
<scales pt_clust_3="100.59323" pt_clust_4="170.88249" pt_clust_5="14000.00000" pt_clust_6="33.62107"></scales>
<clustering>
<clus scale="   33.621">  1  6  2 -1</clus>
<clus scale="  100.593">  1  3  2 -1</clus>
<clus scale="  170.882">  2  4  1 -1</clus>
<clus scale="  170.882">  2  3  1 -1</clus>
</clustering>
</event>
<event>
 6    0  0.3584505E+002  0.6060034E+02  0.7546771E-02  0.1395330E+00
         21   -1    0    0  504  502  0.00000000000E+00  0.00000000000E+00  0.53559210171E+02  0.53559210171E+02  0.00000000000E+00 0.  1.
          2   -1    0    0  505    0 -0.00000000000E+00 -0.00000000000E+00 -0.18752878975E+04  0.18752878975E+04  0.00000000000E+00 0. -1.
         21    1    1    2  503  502  0.42621865555E+02  0.78739423993E+01  0.20175004474E+02  0.47808505497E+02  0.00000000000E+00 0.  1.
         21    1    1    2  504  501 -0.65128582805E+02 -0.98176323270E+02 -0.20839966754E+03  0.23939662525E+03  0.00000000000E+00 0.  1.
         21    1    1    2  505  503  0.31298716237E+02  0.31453311591E+02 -0.13807710504E+03  0.14503174612E+03  0.00000000000E+00 0. -1.
          2    1    1    2  501    0 -0.87919989865E+01  0.58849069280E+02 -0.14954269192E+04  0.14966102308E+04  0.00000000000E+00 0. -1.
<scales pt_clust_3="43.34308" pt_clust_4="14000.00000" pt_clust_5="50.89601" pt_clust_6="60.60034"></scales>
<clustering>
<clus scale="   43.343">  1  3  2 -1</clus>
<clus scale="   50.896">  1  5  2 -1</clus>
<clus scale="   60.600">  2  6  1 -1</clus>
<clus scale="   43.343">  1  3  2 -1</clus>
</clustering>
</event>
<event>
 6    0  0.3584505E+002  0.8634368E+02  0.7546771E-02  0.1311956E+00
         21   -1    0    0  505  502  0.00000000000E+00  0.00000000000E+00  0.55219836701E+02  0.55219836701E+02  0.00000000000E+00 0.  1.
          2   -1    0    0  504    0 -0.00000000000E+00 -0.00000000000E+00 -0.13769171923E+04  0.13769171923E+04  0.00000000000E+00 0.  1.
         21    1    1    2  503  501 -0.22658049006E+01 -0.69895552660E+02 -0.12863996791E+03  0.14641981935E+03  0.00000000000E+00 0.  1.
         21    1    1    2  504  502  0.74385707409E+02  0.31371347211E+02 -0.49156294101E+02  0.94518443397E+02  0.00000000000E+00 0.  1.
         21    1    1    2  505  503 -0.12544163856E+03  0.77164023133E+02 -0.21875020886E+03  0.26370730939E+03  0.00000000000E+00 0.  1.
          2    1    1    2  501    0  0.53321736048E+02 -0.38639817683E+02 -0.92515088468E+03  0.92749145682E+03  0.00000000000E+00 0.  1.
<scales pt_clust_3="82.88161" pt_clust_4="14000.00000" pt_clust_5="86.34368" pt_clust_6="65.85016"></scales>
<clustering>
<clus scale="   65.850">  2  6  1 -1</clus>
<clus scale="   82.882">  2  3  1 -1</clus>
<clus scale="   86.344">  2  5  1 -1</clus>
<clus scale="   86.344">  1  3  2 -1</clus>
</clustering>
</event>
<event>
 6    0  0.3584505E+002  0.1190754E+03  0.7546771E-02  0.1244630E+00
         21   -1    0    0  504  502  0.00000000000E+00  0.00000000000E+00  0.55290627121E+02  0.55290627121E+02  0.00000000000E+00 0.  1.
          2   -1    0    0  503    0 -0.00000000000E+00 -0.00000000000E+00 -0.90027489976E+03  0.90027489976E+03  0.00000000000E+00 0. -1.
         21    1    1    2  503  505 -0.87935129742E+02 -0.16253859822E+02 -0.39763013888E+03  0.40756165466E+03  0.00000000000E+00 0. -1.
         21    1    1    2  504  501 -0.83017415131E+01 -0.35101318777E+02 -0.11355582225E+03  0.11914674254E+03  0.00000000000E+00 0. -1.
         21    1    1    2  505  502  0.55086587699E+02  0.10483437764E+03 -0.36391950212E+02  0.12389169835E+03  0.00000000000E+00 0.  1.
          2    1    1    2  501    0  0.41150283556E+02 -0.53479199041E+02 -0.29740636130E+03  0.30496543134E+03  0.00000000000E+00 0. -1.
<scales pt_clust_3="89.42469" pt_clust_4="33.14867" pt_clust_5="110.10575" pt_clust_6="33.14867"></scales>
<clustering>
<clus scale="   33.149">  4  6 -1 -1</clus>
<clus scale="   89.425">  2  3  1 -1</clus>
<clus scale="  110.106">  1  5  2 -1</clus>
<clus scale="  110.106">  1  3  2 -1</clus>
</clustering>
</event>
<event>
 6    0  0.3584505E+002  0.7362325E+02  0.7546771E-02  0.1348188E+00
         21   -1    0    0  504  502  0.00000000000E+00  0.00000000000E+00  0.18488931694E+04  0.18488931694E+04  0.00000000000E+00 0. -1.
         -2   -1    0    0    0  501 -0.00000000000E+00 -0.00000000000E+00 -0.34148647778E+03  0.34148647778E+03  0.00000000000E+00 0.  1.
         21    1    1    2  503  505  0.60904595200E+02 -0.76962203363E+02  0.14479956744E+03  0.17492702819E+03  0.00000000000E+00 0. -1.
         21    1    1    2  504  503 -0.58811682682E+02  0.33195943218E+01  0.16614694683E+04  0.16625133467E+04  0.00000000000E+00 0. -1.
         21    1    1    2  505  501 -0.35943641608E+02  0.24262844467E+02  0.46167524680E+01  0.43611298960E+02  0.00000000000E+00 0. -1.
         -2    1    1    2    0  502  0.33850729090E+02  0.49379764574E+02 -0.30347909661E+03  0.30932797334E+03  0.00000000000E+00 0.  1.
<scales pt_clust_3="73.62325" pt_clust_4="58.96569" pt_clust_5="43.36624" pt_clust_6="14000.00000"></scales>
<clustering>
<clus scale="   43.366">  2  5  1 -1</clus>
<clus scale="   58.966">  1  4  2 -1</clus>
<clus scale="   73.623">  1  3  2 -1</clus>
<clus scale="   58.966">  1  3  2 -1</clus>
</clustering>
</event>
<event>
 6    0  0.3584505E+002  0.1755582E+03  0.7546771E-02  0.1172172E+00
         21   -1    0    0  503  502  0.00000000000E+00  0.00000000000E+00  0.33536634935E+03  0.33536634935E+03  0.00000000000E+00 0.  1.
          2   -1    0    0  502    0 -0.00000000000E+00 -0.00000000000E+00 -0.85197923894E+03  0.85197923894E+03  0.00000000000E+00 0. -1.
         21    1    1    2  503  505  0.85781654105E+02  0.69065935824E+02  0.24745602926E+03  0.27085620187E+03  0.00000000000E+00 0.  1.
         21    1    1    2  504  501 -0.91773643735E+02 -0.93264121454E+02 -0.34453519177E+03  0.36854456502E+03  0.00000000000E+00 0. -1.
         21    1    1    2  505  504  0.53121813497E+02  0.20289062179E+02  0.50190291718E+02  0.75846150173E+02  0.00000000000E+00 0. -1.
          2    1    1    2  501    0 -0.47129823868E+02  0.39091234515E+01 -0.46972401880E+03  0.47209867123E+03  0.00000000000E+00 0. -1.
<scales pt_clust_3="47.28758" pt_clust_4="162.75740" pt_clust_5="47.28758" pt_clust_6="47.29166"></scales>
<clustering>
<clus scale="   47.288">  3  5 -1 -1</clus>
<clus scale="   47.292">  2  6  1 -1</clus>
<clus scale="  162.757">  2  4  1 -1</clus>
<clus scale="  175.558">  1  3  2 -1</clus>
</clustering>
</event>
<event>
 6    0  0.3584505E+002  0.1461725E+03  0.7546771E-02  0.1205257E+00
         21   -1    0    0  504  502  0.00000000000E+00  0.00000000000E+00  0.14057158056E+04  0.14057158056E+04  0.00000000000E+00 0.  1.
          2   -1    0    0  503    0 -0.00000000000E+00 -0.00000000000E+00 -0.15101459634E+03  0.15101459634E+03  0.00000000000E+00 0.  1.
         21    1    1    2  503  502 -0.12543334746E+03 -0.82786703660E+02  0.34703810321E+03  0.37818329952E+03  0.00000000000E+00 0.  1.
         21    1    1    2  504  505  0.34803617873E+02  0.12021897525E+02  0.62081265094E+03  0.62190366248E+03  0.00000000000E+00 0.  1.
         21    1    1    2  505  501  0.13174342867E+03  0.58405149351E+02  0.40556356362E+03  0.43040596721E+03  0.00000000000E+00 0.  1.
          2    1    1    2  501    0 -0.41113699092E+02  0.12359656783E+02 -0.11871310855E+03  0.12623747269E+03  0.00000000000E+00 0.  1.
<scales pt_clust_3="146.17254" pt_clust_4="36.82143" pt_clust_5="14000.00000" pt_clust_6="42.78817"></scales>
<clustering>
<clus scale="   36.821">  1  4  2 -1</clus>
<clus scale="   42.788">  2  6  1 -1</clus>
<clus scale="  146.173">  1  3  2 -1</clus>
<clus scale="   36.821">  1  3  2 -1</clus>
</clustering>
</event>
<event>
 6    0  0.3584505E+002  0.1022895E+03  0.7546771E-02  0.1275554E+00
          2   -1    0    0  503    0 -0.00000000000E+00  0.00000000000E+00  0.70958429321E+03  0.70958429321E+03  0.00000000000E+00 0.  1.
         21   -1    0    0  505  502  0.00000000000E+00 -0.00000000000E+00 -0.83596206268E+02  0.83596206268E+02  0.00000000000E+00 0. -1.
         21    1    1    2  503  504  0.10095507642E+03  0.88642084995E+02  0.14847846873E+03  0.20023786446E+03  0.00000000000E+00 0.  1.
         21    1    1    2  504  502 -0.51309384863E+02 -0.54726774531E+02 -0.44103419011E+01  0.75147348198E+02  0.00000000000E+00 0. -1.
         21    1    1    2  505  501  0.10228444561E+02 -0.47478560273E+02  0.21183147437E+02  0.52986418062E+02  0.00000000000E+00 0. -1.
          2    1    1    2  501    0 -0.59874136116E+02  0.13563249808E+02  0.46073681268E+03  0.46480886876E+03  0.00000000000E+00 0.  1.
<scales pt_clust_3="102.28954" pt_clust_4="14000.00000" pt_clust_5="48.56784" pt_clust_6="60.79007"></scales>
<clustering>
<clus scale="   48.568">  2  5  1 -1</clus>
<clus scale="   60.790">  1  6  2 -1</clus>
<clus scale="  102.290">  1  3  2 -1</clus>
<clus scale="   48.568">  2  3  1 -1</clus>
</clustering>
</event>
<event>
 6    0  0.3584505E+002  0.7053262E+02  0.7546771E-02  0.1358291E+00
         21   -1    0    0  505  502  0.00000000000E+00  0.00000000000E+00  0.69714955293E+03  0.69714955293E+03  0.00000000000E+00 0. -1.
         -2   -1    0    0    0  501 -0.00000000000E+00 -0.00000000000E+00 -0.10174031570E+03  0.10174031570E+03  0.00000000000E+00 0.  1.
         21    1    1    2  503  502  0.39019142400E+02 -0.88457348778E+02  0.42088390518E+03  0.43184540945E+03  0.00000000000E+00 0. -1.
         21    1    1    2  504  501 -0.79360602702E+02 -0.12454869842E+02 -0.77843769718E+01  0.80708274476E+02  0.00000000000E+00 0.  1.
         21    1    1    2  505  504  0.41415442323E+01  0.32248627478E+02  0.20333444639E+03  0.20591751614E+03  0.00000000000E+00 0. -1.
         -2    1    1    2    0  503  0.36199916070E+02  0.68663591143E+02 -0.21024737363E+02  0.80418668562E+02  0.00000000000E+00 0.  1.
<scales pt_clust_3="74.02899" pt_clust_4="14000.00000" pt_clust_5="32.51348" pt_clust_6="70.53262"></scales>
<clustering>
<clus scale="   32.513">  1  5  2 -1</clus>
<clus scale="   74.029">  1  3  2 -1</clus>
<clus scale="   70.533">  2  6  1 -1</clus>
<clus scale="   32.513">  1  3  2 -1</clus>
</clustering>
</event>
<event>
 6    0  0.3584505E+002  0.9999791E+02  0.7546771E-02  0.1280300E+00
          1   -1    0    0  505    0 -0.00000000000E+00  0.00000000000E+00  0.13133092552E+04  0.13133092552E+04  0.00000000000E+00 0. -1.
         21   -1    0    0  503  502  0.00000000000E+00 -0.00000000000E+00 -0.39499005775E+02  0.39499005775E+02  0.00000000000E+00 0. -1.
         21    1    1    2  503  501 -0.34630484468E+02  0.55048929565E+02  0.34752788627E+03  0.35356086723E+03  0.00000000000E+00 0. -1.
         21    1    1    2  504  502  0.42810825961E+02 -0.10311058891E+03  0.86986733156E+02  0.14153180600E+03  0.00000000000E+00 0. -1.
         21    1    1    2  505  504  0.41075671551E+02  0.47838536647E+02  0.11024374611E+03  0.12700165329E+03  0.00000000000E+00 0.  1.
          1    1    1    2  501    0 -0.49256013044E+02  0.22312269947E+00  0.72905188386E+03  0.73071393443E+03  0.00000000000E+00 0. -1.
<scales pt_clust_3="14000.00000" pt_clust_4="99.99791" pt_clust_5="57.07581" pt_clust_6="49.25652"></scales>
<clustering>
<clus scale="   49.257">  1  6  2 -1</clus>
<clus scale="   57.076">  1  5  2 -1</clus>
<clus scale="   99.998">  2  4  1 -1</clus>
<clus scale="   99.998">  2  3  1 -1</clus>
</clustering>
</event>
<event>
 6    0  0.3584505E+002  0.1662700E+03  0.7546771E-02  0.1181794E+00
         21   -1    0    0  501  502  0.00000000000E+00  0.00000000000E+00  0.59615802156E+03  0.59615802156E+03  0.00000000000E+00 0.  1.
          2   -1    0    0  504    0 -0.00000000000E+00 -0.00000000000E+00 -0.11649804943E+04  0.11649804943E+04  0.00000000000E+00 0. -1.
         21    1    1    2  503  502 -0.75711034500E+02  0.93156694913E+01  0.23965432921E+03  0.25150176928E+03  0.00000000000E+00 0.  1.
         21    1    1    2  504  505  0.10622543995E+03 -0.13326382984E+03  0.16751645085E+03  0.23896621883E+03  0.00000000000E+00 0.  1.
         21    1    1    2  505  503 -0.83954754654E+02  0.23201406833E+02  0.13127595430E+03  0.15754390590E+03  0.00000000000E+00 0. -1.
          2    1    1    2  501    0  0.53440349199E+02  0.10074675352E+03 -0.11072692071E+04  0.11131266218E+04  0.00000000000E+00 0. -1.
<scales pt_clust_3="52.76103" pt_clust_4="156.41981" pt_clust_5="52.76103" pt_clust_6="114.04288"></scales>
<clustering>
<clus scale="   52.761">  3  5 -1 -1</clus>
<clus scale="  114.043">  2  6  1 -1</clus>
<clus scale="  156.420">  2  4  1 -1</clus>
<clus scale="  166.270">  1  3  2 -1</clus>
</clustering>
</event>
<event>
 6    0  0.3584505E+002  0.1061499E+03  0.7546771E-02  0.1267870E+00
         21   -1    0    0  501  502  0.00000000000E+00  0.00000000000E+00  0.34700676190E+04  0.34700676190E+04  0.00000000000E+00 0. -1.
          1   -1    0    0  503    0 -0.00000000000E+00 -0.00000000000E+00 -0.38297618250E+03  0.38297618250E+03  0.00000000000E+00 0.  1.
         21    1    1    2  503  505 -0.49160799624E+02 -0.78062245819E+02  0.73588553950E+03  0.74164548518E+03  0.00000000000E+00 0. -1.
         21    1    1    2  504  502  0.38480848472E+02 -0.61856608429E+02  0.15611229598E+04  0.15628217785E+04  0.00000000000E+00 0. -1.
         21    1    1    2  505  504  0.53564321649E+02  0.11612616016E+03  0.11642281484E+04  0.11712308069E+04  0.00000000000E+00 0. -1.
          1    1    1    2  501    0 -0.42884370497E+02  0.23792694085E+02 -0.37414521121E+03  0.37734573086E+03  0.00000000000E+00 0.  1.
<scales pt_clust_3="14000.00000" pt_clust_4="67.87280" pt_clust_5="106.14993" pt_clust_6="49.04245"></scales>
<clustering>
<clus scale="   49.042">  2  6  1 -1</clus>
<clus scale="   67.873">  1  4  2 -1</clus>
<clus scale="  106.150">  1  5  2 -1</clus>
<clus scale="   67.873">  1  3  2 -1</clus>
</clustering>
</event>
<event>
 6    0  0.3584505E+002  0.1484104E+03  0.7546771E-02  0.1202440E+00
          2   -1    0    0  505    0 -0.00000000000E+00  0.00000000000E+00  0.12907105663E+04  0.12907105663E+04  0.00000000000E+00 0. -1.
         21   -1    0    0  503  502  0.00000000000E+00 -0.00000000000E+00 -0.19159963891E+04  0.19159963891E+04  0.00000000000E+00 0. -1.
         21    1    1    2  503  504  0.67721905918E+02  0.12095700241E+02 -0.31669043950E+03  0.32407622094E+03  0.00000000000E+00 0. -1.
         21    1    1    2  504  501  0.56197999446E+02 -0.64060665613E+02 -0.76529102740E+02  0.11453683943E+03  0.00000000000E+00 0. -1.
         21    1    1    2  505  502 -0.12610571718E+03 -0.96574788309E+02 -0.14914975676E+04  0.14999314437E+04  0.00000000000E+00 0. -1.
          2    1    1    2  501    0  0.21858118198E+01  0.14853975368E+03  0.12594312871E+04  0.12681624514E+04  0.00000000000E+00 0. -1.
<scales pt_clust_3="68.79362" pt_clust_4="87.41791" pt_clust_5="148.41037" pt_clust_6="14000.00000"></scales>
<clustering>
<clus scale="   68.794">  2  3  1 -1</clus>
<clus scale="   87.418">  2  4  1 -1</clus>
<clus scale="  148.410">  2  5  1 -1</clus>
<clus scale="   68.794">  2  3  1 -1</clus>
</clustering>
</event>
<event>
 6    0  0.3584505E+002  0.8557350E+02  0.7546771E-02  0.1313940E+00
         21   -1    0    0  505  502  0.00000000000E+00  0.00000000000E+00  0.51380378600E+03  0.51380378600E+03  0.00000000000E+00 0. -1.
          2   -1    0    0  502    0 -0.00000000000E+00 -0.00000000000E+00 -0.11875838464E+04  0.11875838464E+04  0.00000000000E+00 0. -1.
         21    1    1    2  503  501  0.92862214017E+02 -0.18851032165E+02 -0.78795904983E+02  0.12323776551E+03  0.00000000000E+00 0. -1.
         21    1    1    2  504  503 -0.97660150945E+02  0.24420805015E+01  0.66546121839E+02  0.11820260222E+03  0.00000000000E+00 0. -1.
         21    1    1    2  505  504  0.19437026606E+02 -0.29523056057E+02  0.39787684044E+03  0.39944384963E+03  0.00000000000E+00 0. -1.
          2    1    1    2  501    0 -0.14639089678E+02  0.45932007720E+02 -0.10594071177E+04  0.10605034150E+04  0.00000000000E+00 0. -1.
<scales pt_clust_3="14000.00000" pt_clust_4="85.57350" pt_clust_5="35.34698" pt_clust_6="48.04644"></scales>
<clustering>
<clus scale="   35.347">  1  5  2 -1</clus>
<clus scale="   48.046">  2  6  1 -1</clus>
<clus scale="   85.573">  1  4  2 -1</clus>
<clus scale="   35.347">  1  3  2 -1</clus>
</clustering>
</event>
<event>
 6    0  0.3584505E+002  0.1249735E+03  0.7546771E-02  0.1235111E+00
          2   -1    0    0  503    0 -0.00000000000E+00  0.00000000000E+00  0.16004384074E+04  0.16004384074E+04  0.00000000000E+00 0. -1.
         21   -1    0    0  505  502  0.00000000000E+00 -0.00000000000E+00 -0.94834131895E+02  0.94834131895E+02  0.00000000000E+00 0.  1.
         21    1    1    2  503  504 -0.21524173629E+02 -0.16892507449E+03  0.18041824908E+03  0.24809215111E+03  0.00000000000E+00 0.  1.
         21    1    1    2  504  502 -0.46365435187E+02  0.11638036633E+02 -0.25226181110E+02  0.54051435597E+02  0.00000000000E+00 0.  1.
         21    1    1    2  505  501  0.12460647378E+02  0.95766682723E+02  0.96632320781E+02  0.13661746108E+03  0.00000000000E+00 0.  1.
          2    1    1    2  501    0  0.55428961438E+02  0.61520355131E+02  0.12537798867E+04  0.12565114915E+04  0.00000000000E+00 0. -1.
<scales pt_clust_3="124.97348" pt_clust_4="47.80374" pt_clust_5="14000.00000" pt_clust_6="82.26037"></scales>
<clustering>
<clus scale="   47.804">  2  4  1 -1</clus>
<clus scale="   82.260">  1  6  2 -1</clus>
<clus scale="  124.973">  1  3  2 -1</clus>
<clus scale="   47.804">  2  3  1 -1</clus>
</clustering>
</event>
<event>
 6    0  0.3584505E+002  0.9988977E+02  0.7546771E-02  0.1280528E+00
         -3   -1    0    0    0  501 -0.00000000000E+00  0.00000000000E+00  0.40946476532E+03  0.40946476532E+03  0.00000000000E+00 0.  1.
         21   -1    0    0  503  502  0.00000000000E+00 -0.00000000000E+00 -0.42622030142E+03  0.42622030142E+03  0.00000000000E+00 0.  1.
         21    1    1    2  503  501 -0.99624331378E+02  0.94127595838E+02 -0.11756415054E+03  0.18057226031E+03  0.00000000000E+00 0.  1.
         21    1    1    2  504  505  0.68662370808E+02 -0.27556770988E+02  0.63686623370E+02  0.97621118558E+02  0.00000000000E+00 0.  1.
         21    1    1    2  505  502  0.32682581384E+02 -0.15521448012E+02 -0.25671302069E+03  0.25925015229E+03  0.00000000000E+00 0.  1.
         -3    1    1    2    0  504 -0.17206208145E+01 -0.51049376838E+02  0.29383501176E+03  0.29824153558E+03  0.00000000000E+00 0.  1.
<scales pt_clust_3="99.88977" pt_clust_4="14000.00000" pt_clust_5="36.18102" pt_clust_6="51.26894"></scales>
<clustering>
<clus scale="   36.181">  2  5  1 -1</clus>
<clus scale="   51.269">  1  6  2 -1</clus>
<clus scale="   99.890">  2  3  1 -1</clus>
<clus scale="   36.181">  2  3  1 -1</clus>
</clustering>
</event>
<event>
 6    0  0.3584505E+002  0.8843292E+02  0.7546771E-02  0.1306692E+00
          2   -1    0    0  504    0 -0.00000000000E+00  0.00000000000E+00  0.96212485440E+03  0.96212485440E+03  0.00000000000E+00 0. -1.
         21   -1    0    0  503  502  0.00000000000E+00 -0.00000000000E+00 -0.11510213261E+03  0.11510213261E+03  0.00000000000E+00 0. -1.
         21    1    1    2  503  505 -0.37366691163E+02  0.29685844545E+02 -0.28627534375E+02  0.55651187761E+02  0.00000000000E+00 0. -1.
         21    1    1    2  504  502  0.11546294263E+03 -0.73506304118E+02  0.42047493511E+01  0.13693994225E+03  0.00000000000E+00 0. -1.
         21    1    1    2  505  501 -0.69185998646E+02 -0.93392929558E+00  0.19979622997E+03  0.21143818989E+03  0.00000000000E+00 0. -1.
          2    1    1    2  501    0 -0.89102528234E+01  0.44754388868E+02  0.67164927684E+03  0.67319766711E+03  0.00000000000E+00 0. -1.
<scales pt_clust_3="49.36635" pt_clust_4="14000.00000" pt_clust_5="88.43292" pt_clust_6="45.63275"></scales>
<clustering>
<clus scale="   45.633">  1  6  2 -1</clus>
<clus scale="   49.366">  2  3  1 -1</clus>
<clus scale="   88.433">  1  5  2 -1</clus>
<clus scale="   49.366">  2  3  1 -1</clus>
</clustering>
</event>
<event>
 6    0  0.3584505E+002  0.1129476E+03  0.7546771E-02  0.1255207E+00
         -4   -1    0    0    0  501 -0.00000000000E+00  0.00000000000E+00  0.23596212449E+04  0.23596212449E+04  0.00000000000E+00 0. -1.
         21   -1    0    0  503  502  0.00000000000E+00 -0.00000000000E+00 -0.28891935141E+03  0.28891935141E+03  0.00000000000E+00 0.  1.
         21    1    1    2  503  501  0.11729454098E+03 -0.30469337874E+02  0.72825957251E+03  0.73827392941E+03  0.00000000000E+00 0.  1.
         21    1    1    2  504  505 -0.74074468609E+02  0.96156492891E+02 -0.12267174244E+03  0.17257304082E+03  0.00000000000E+00 0.  1.
         21    1    1    2  505  502 -0.18717087563E+02 -0.31990017171E+02 -0.13349353216E+03  0.13854318349E+03  0.00000000000E+00 0.  1.
         -4    1    1    2    0  504 -0.24502984803E+02 -0.33697137846E+02  0.15986075956E+04  0.15991504426E+04  0.00000000000E+00 0. -1.
<scales pt_clust_3="112.94758" pt_clust_4="14000.00000" pt_clust_5="37.06333" pt_clust_6="41.72952"></scales>
<clustering>
<clus scale="   37.063">  2  5  1 -1</clus>
<clus scale="   41.730">  1  6  2 -1</clus>
<clus scale="  112.948">  1  3  2 -1</clus>
<clus scale="   37.063">  2  3  1 -1</clus>
</clustering>
</event>
<event>
 6    0  0.3584505E+002  0.8288650E+02  0.7546771E-02  0.1321054E+00
          2   -1    0    0  504    0 -0.00000000000E+00  0.00000000000E+00  0.37497241705E+04  0.37497241705E+04  0.00000000000E+00 0. -1.
         21   -1    0    0  503  502  0.00000000000E+00 -0.00000000000E+00 -0.42445491672E+03  0.42445491672E+03  0.00000000000E+00 0.  1.
         21    1    1    2  503  505  0.82621736811E+02  0.37322625875E+01 -0.39390369506E+03  0.40249273554E+03  0.00000000000E+00 0.  1.
         21    1    1    2  504  502  0.76957760917E+02 -0.25161449209E+02  0.51149510197E+02  0.95769869401E+02  0.00000000000E+00 0. -1.
         21    1    1    2  505  501 -0.12869964912E+03  0.11439917617E+01  0.10818185702E+04  0.10894477166E+04  0.00000000000E+00 0. -1.
          2    1    1    2  501    0 -0.30879848609E+02  0.20285194859E+02  0.25862048685E+04  0.25864687657E+04  0.00000000000E+00 0. -1.
<scales pt_clust_3="82.88650" pt_clust_4="78.71766" pt_clust_5="14000.00000" pt_clust_6="36.94664"></scales>
<clustering>
<clus scale="   36.947">  1  6  2 -1</clus>
<clus scale="   78.718">  1  4  2 -1</clus>
<clus scale="   82.887">  2  3  1 -1</clus>
<clus scale="   82.887">  2  3  1 -1</clus>
</clustering>
</event>
<event>
 6    0  0.3584505E+002  0.2180526E+03  0.7546771E-02  0.1135343E+00
         21   -1    0    0  505  502  0.00000000000E+00  0.00000000000E+00  0.24541082649E+03  0.24541082649E+03  0.00000000000E+00 0. -1.
          2   -1    0    0  503    0 -0.00000000000E+00 -0.00000000000E+00 -0.68161219994E+03  0.68161219994E+03  0.00000000000E+00 0. -1.
         21    1    1    2  503  504 -0.18409745293E+03  0.10634298413E+03 -0.58822898810E+02  0.22059201226E+03  0.00000000000E+00 0. -1.
         21    1    1    2  504  502  0.15418939234E+03 -0.15659732918E+03  0.25262393765E+02  0.22121320204E+03  0.00000000000E+00 0. -1.
         21    1    1    2  505  501  0.61968328589E+02  0.26105165799E+02  0.12284658754E+02  0.68355440678E+02  0.00000000000E+00 0.  1.
          2    1    1    2  501    0 -0.32060268001E+02  0.24149179246E+02 -0.41492552716E+03  0.41686237145E+03  0.00000000000E+00 0. -1.
<scales pt_clust_3="14000.00000" pt_clust_4="218.05264" pt_clust_5="65.21722" pt_clust_6="40.13781"></scales>
<clustering>
<clus scale="   40.138">  2  6  1 -1</clus>
<clus scale="   65.217">  1  5  2 -1</clus>
<clus scale="  218.053">  1  4  2 -1</clus>
<clus scale="   65.217">  1  3  2 -1</clus>
</clustering>
</event>
<event>
 6    0  0.3584505E+002  0.1720041E+03  0.7546771E-02  0.1175774E+00
          2   -1    0    0  503    0 -0.00000000000E+00  0.00000000000E+00  0.12139820865E+04  0.12139820865E+04  0.00000000000E+00 0. -1.
         21   -1    0    0  504  502  0.00000000000E+00 -0.00000000000E+00 -0.49586067870E+03  0.49586067870E+03  0.00000000000E+00 0.  1.
         21    1    1    2  503  502  0.42938250599E+02  0.14768899166E+03 -0.38929518730E+03  0.41857672472E+03  0.00000000000E+00 0.  1.
         21    1    1    2  504  505  0.53852792558E+02  0.19843790841E+02 -0.40364280663E+02  0.70165336560E+02  0.00000000000E+00 0.  1.
         21    1    1    2  505  501 -0.10178359018E+03 -0.78147077954E+02  0.83582602118E+02  0.15314345040E+03  0.00000000000E+00 0.  1.
          2    1    1    2  501    0  0.49925470234E+01 -0.89385704551E+02  0.10641982736E+04  0.10679572535E+04  0.00000000000E+00 0. -1.
<scales pt_clust_3="172.00409" pt_clust_4="57.39250" pt_clust_5="14000.00000" pt_clust_6="89.45362"></scales>
<clustering>
<clus scale="   57.393">  2  4  1 -1</clus>
<clus scale="   89.454">  1  6  2 -1</clus>
<clus scale="  172.004">  2  3  1 -1</clus>
<clus scale="   57.393">  2  3  1 -1</clus>
</clustering>
</event>
<event>
 6    0  0.3584505E+002  0.9146113E+02  0.7546771E-02  0.1299351E+00
          2   -1    0    0  505    0 -0.00000000000E+00  0.00000000000E+00  0.18404544876E+04  0.18404544876E+04  0.00000000000E+00 0.  1.
         21   -1    0    0  501  502  0.00000000000E+00 -0.00000000000E+00 -0.72940932674E+03  0.72940932674E+03  0.00000000000E+00 0. -1.
         21    1    1    2  503  502 -0.19845678934E+02 -0.46719565824E+02 -0.69958838847E+03  0.70142746032E+03  0.00000000000E+00 0. -1.
         21    1    1    2  504  503  0.69794615452E+02  0.12066116494E+02  0.29691899776E+02  0.76801617337E+02  0.00000000000E+00 0. -1.
         21    1    1    2  505  504  0.64461641445E+02  0.47852229106E+02  0.72756268879E+03  0.73197855512E+03  0.00000000000E+00 0.  1.
          2    1    1    2  501    0 -0.11441057796E+03 -0.13198779776E+02  0.10533789608E+04  0.10596561816E+04  0.00000000000E+00 0.  1.
<scales pt_clust_3="50.75991" pt_clust_4="59.59602" pt_clust_5="91.46113" pt_clust_6="14000.00000"></scales>
<clustering>
<clus scale="   50.760">  2  3  1 -1</clus>
<clus scale="   59.596">  2  4  1 -1</clus>
<clus scale="   91.461">  1  5  2 -1</clus>
<clus scale="   50.760">  2  3  1 -1</clus>
</clustering>
</event>
<event>
 6    0  0.3584505E+002  0.7461350E+02  0.7546771E-02  0.1345072E+00
         21   -1    0    0  503  502  0.00000000000E+00  0.00000000000E+00  0.10694957570E+03  0.10694957570E+03  0.00000000000E+00 0.  1.
          2   -1    0    0  505    0 -0.00000000000E+00 -0.00000000000E+00 -0.27068204237E+04  0.27068204237E+04  0.00000000000E+00 0.  1.
         21    1    1    2  503  501 -0.84671704233E+01 -0.39655018415E+02  0.75627544936E+02  0.85812231142E+02  0.00000000000E+00 0.  1.
         21    1    1    2  504  502  0.22535264471E+02  0.10822561540E+03 -0.10232950324E+03  0.15063847187E+03  0.00000000000E+00 0.  1.
         21    1    1    2  505  504  0.13142763545E+02  0.35664804692E+02 -0.76574877985E+03  0.76669153144E+03  0.00000000000E+00 0. -1.
          2    1    1    2  501    0 -0.27210857593E+02 -0.10423540168E+03 -0.18074201099E+04  0.18106277650E+04  0.00000000000E+00 0.  1.
<scales pt_clust_3="40.45018" pt_clust_4="14000.00000" pt_clust_5="38.00935" pt_clust_6="74.61350"></scales>
<clustering>
<clus scale="   38.009">  2  5  1 -1</clus>
<clus scale="   40.450">  1  3  2 -1</clus>
<clus scale="   74.613">  2  6  1 -1</clus>
<clus scale="   40.450">  1  3  2 -1</clus>
</clustering>
</event>
<event>
 6    0  0.3584505E+002  0.9327528E+02  0.7546771E-02  0.1295109E+00
          2   -1    0    0  503    0 -0.00000000000E+00  0.00000000000E+00  0.12287168322E+04  0.12287168322E+04  0.00000000000E+00 0. -1.
         21   -1    0    0  505  502  0.00000000000E+00 -0.00000000000E+00 -0.53381472254E+03  0.53381472254E+03  0.00000000000E+00 0.  1.
         21    1    1    2  503  504 -0.13084970038E+03 -0.26749920153E+02  0.63554761329E+03  0.64942895768E+03  0.00000000000E+00 0. -1.
         21    1    1    2  504  502  0.12313595735E+03  0.23803342635E+02 -0.18836557583E+03  0.22629770938E+03  0.00000000000E+00 0.  1.
         21    1    1    2  505  501 -0.33188628245E+02 -0.84164828536E+01 -0.31782742169E+03  0.31966637641E+03  0.00000000000E+00 0.  1.
          2    1    1    2  501    0  0.40902371281E+02  0.11363060371E+02  0.56554749392E+03  0.56713851130E+03  0.00000000000E+00 0. -1.
<scales pt_clust_3="14000.00000" pt_clust_4="93.27528" pt_clust_5="34.23919" pt_clust_6="42.32481"></scales>
<clustering>
<clus scale="   34.239">  2  5  1 -1</clus>
<clus scale="   42.325">  1  6  2 -1</clus>
<clus scale="   93.275">  2  4  1 -1</clus>
<clus scale="   34.239">  2  3  1 -1</clus>
</clustering>
</event>
<event>
 6    0  0.3584505E+002  0.1471351E+03  0.7546771E-02  0.1204038E+00
          1   -1    0    0  503    0 -0.00000000000E+00  0.00000000000E+00  0.18226488964E+04  0.18226488964E+04  0.00000000000E+00 0. -1.
         21   -1    0    0  504  502  0.00000000000E+00 -0.00000000000E+00 -0.52965576321E+03  0.52965576321E+03  0.00000000000E+00 0. -1.
         21    1    1    2  503  505 -0.72167657357E+02  0.17754393530E+02  0.14312634241E+03  0.16127163157E+03  0.00000000000E+00 0.  1.
         21    1    1    2  504  501  0.14214401863E+01 -0.16459770511E+03 -0.29643878846E+03  0.33907282452E+03  0.00000000000E+00 0. -1.
         21    1    1    2  505  502 -0.45400630931E+02  0.24675536386E+02 -0.19514827534E+03  0.20187359598E+03  0.00000000000E+00 0. -1.
          1    1    1    2  501    0  0.11614684810E+03  0.12216777520E+03  0.16414538546E+04  0.16500866075E+04  0.00000000000E+00 0. -1.
<scales pt_clust_3="75.68973" pt_clust_4="147.13510" pt_clust_5="51.67300" pt_clust_6="14000.00000"></scales>
<clustering>
<clus scale="   51.673">  2  5  1 -1</clus>
<clus scale="   75.690">  1  3  2 -1</clus>
<clus scale="  147.135">  2  4  1 -1</clus>
<clus scale="   51.673">  2  3  1 -1</clus>
</clustering>
</event>
<event>
 6    0  0.3584505E+002  0.8565456E+02  0.7546771E-02  0.1313730E+00
         21   -1    0    0  505  502  0.00000000000E+00  0.00000000000E+00  0.98795067885E+02  0.98795067885E+02  0.00000000000E+00 0.  1.
          2   -1    0    0  503    0 -0.00000000000E+00 -0.00000000000E+00 -0.15518639052E+04  0.15518639052E+04  0.00000000000E+00 0. -1.
         21    1    1    2  503  504  0.41831943858E+02 -0.27268726522E+01 -0.52724126495E+02  0.67358599125E+02  0.00000000000E+00 0. -1.
         21    1    1    2  504  502  0.61806913788E+02  0.60242497814E+02  0.60686431212E+02  0.10550874878E+03  0.00000000000E+00 0.  1.
         21    1    1    2  505  501 -0.88601896344E+02 -0.19557903086E+02 -0.24806099695E+03  0.26413456006E+03  0.00000000000E+00 0.  1.
          2    1    1    2  501    0 -0.15036961303E+02 -0.37957722076E+02 -0.12129701451E+04  0.12136570651E+04  0.00000000000E+00 0. -1.
<scales pt_clust_3="40.29113" pt_clust_4="85.65456" pt_clust_5="14000.00000" pt_clust_6="40.82767"></scales>
<clustering>
<clus scale="   40.828">  2  6  1 -1</clus>
<clus scale="   40.291">  2  3  1 -1</clus>
<clus scale="   85.655">  1  4  2 -1</clus>
<clus scale="   85.655">  1  3  2 -1</clus>
</clustering>
</event>
<event>
 6    0  0.3584505E+002  0.8230201E+02  0.7546771E-02  0.1322643E+00
         21   -1    0    0  503  502  0.00000000000E+00  0.00000000000E+00  0.42651312813E+03  0.42651312813E+03  0.00000000000E+00 0. -1.
          1   -1    0    0  505    0 -0.00000000000E+00 -0.00000000000E+00 -0.13682690390E+03  0.13682690390E+03  0.00000000000E+00 0.  1.
         21    1    1    2  503  504  0.63828026152E+02  0.73401567494E+02  0.34165019036E+03  0.35522761662E+03  0.00000000000E+00 0. -1.
         21    1    1    2  504  501 -0.59705762091E+02  0.21291784201E+02 -0.34225668875E+02  0.72038285038E+02  0.00000000000E+00 0.  1.
         21    1    1    2  505  502 -0.12217433734E+01 -0.58329394722E+02  0.37879332039E+02  0.69560439484E+02  0.00000000000E+00 0.  1.
          1    1    1    2  501    0 -0.29005206884E+01 -0.36363956973E+02 -0.55617629300E+02  0.66513690891E+02  0.00000000000E+00 0.  1.
<scales pt_clust_3="82.30201" pt_clust_4="61.88333" pt_clust_5="14000.00000" pt_clust_6="36.47945"></scales>
<clustering>
<clus scale="   36.479">  2  6  1 -1</clus>
<clus scale="   61.883">  2  4  1 -1</clus>
<clus scale="   82.302">  1  3  2 -1</clus>
<clus scale="   82.302">  1  3  2 -1</clus>
</clustering>
</event>
<event>
 6    0  0.3584505E+002  0.1534684E+03  0.7546771E-02  0.1196275E+00
         21   -1    0    0  504  502  0.00000000000E+00  0.00000000000E+00  0.73657714757E+03  0.73657714757E+03  0.00000000000E+00 0.  1.
          2   -1    0    0  503    0 -0.00000000000E+00 -0.00000000000E+00 -0.19992260257E+04  0.19992260257E+04  0.00000000000E+00 0. -1.
         21    1    1    2  503  505  0.58370625847E+01 -0.71268049076E+02 -0.11343183666E+03  0.13408947642E+03  0.00000000000E+00 0.  1.
         21    1    1    2  504  501  0.15059178099E+03 -0.55139552584E+02  0.29752876923E+03  0.33799648412E+03  0.00000000000E+00 0.  1.
         21    1    1    2  505  502 -0.12543303247E+03  0.83129098470E+02  0.39422946079E+03  0.42197246403E+03  0.00000000000E+00 0.  1.
          2    1    1    2  501    0 -0.30995811111E+02  0.43278503190E+02 -0.18409752715E+04  0.18417447487E+04  0.00000000000E+00 0. -1.
<scales pt_clust_3="41.65446" pt_clust_4="153.46837" pt_clust_5="14000.00000" pt_clust_6="53.23316"></scales>
<clustering>
<clus scale="   53.233">  2  6  1 -1</clus>
<clus scale="   41.654">  2  3  1 -1</clus>
<clus scale="  153.468">  2  4  1 -1</clus>
<clus scale="  153.468">  1  3  2 -1</clus>
</clustering>
</event>
<event>
 6    0  0.3584505E+002  0.1465866E+03  0.7546771E-02  0.1204731E+00
         21   -1    0    0  501  502  0.00000000000E+00  0.00000000000E+00  0.25706781905E+03  0.25706781905E+03  0.00000000000E+00 0.  1.
          3   -1    0    0  504    0 -0.00000000000E+00 -0.00000000000E+00 -0.10286441630E+04  0.10286441630E+04  0.00000000000E+00 0.  1.
         21    1    1    2  503  505 -0.90164953442E+02  0.55482535497E+02 -0.51322726491E+01  0.10599231480E+03  0.00000000000E+00 0.  1.
         21    1    1    2  504  503  0.16587678719E+03 -0.13624818822E+03 -0.96683082723E+02  0.23542789938E+03  0.00000000000E+00 0.  1.
         21    1    1    2  505  502 -0.20511803574E+02  0.33476303486E+02  0.13278161460E+03  0.13846427033E+03  0.00000000000E+00 0.  1.
          3    1    1    2  501    0 -0.55200030170E+02  0.47289349238E+02 -0.80254260315E+03  0.80582749752E+03  0.00000000000E+00 0.  1.
<scales pt_clust_3="14000.00000" pt_clust_4="146.58664" pt_clust_5="39.26063" pt_clust_6="73.19189"></scales>
<clustering>
<clus scale="   39.261">  1  5  2 -1</clus>
<clus scale="   73.192">  2  6  1 -1</clus>
<clus scale="  146.587">  2  4  1 -1</clus>
<clus scale="   39.261">  1  3  2 -1</clus>
</clustering>
</event>
<event>
 6    0  0.3584505E+002  0.7811735E+02  0.7546771E-02  0.1334481E+00
          1   -1    0    0  505    0 -0.00000000000E+00  0.00000000000E+00  0.13947711085E+04  0.13947711085E+04  0.00000000000E+00 0.  1.
         21   -1    0    0  504  502  0.00000000000E+00 -0.00000000000E+00 -0.16265415285E+03  0.16265415285E+03  0.00000000000E+00 0. -1.
         21    1    1    2  503  501 -0.29524411090E+02 -0.93207048670E+02  0.21753686689E+03  0.23849849733E+03  0.00000000000E+00 0. -1.
         21    1    1    2  504  503  0.18020833684E+02  0.10640484444E+03 -0.91366467225E+02  0.14140216653E+03  0.00000000000E+00 0. -1.
         21    1    1    2  505  502 -0.24853135003E+02 -0.33087934578E+02 -0.23318138429E+02  0.47499740145E+02  0.00000000000E+00 0. -1.
          1    1    1    2  501    0  0.36356712408E+02  0.19890138808E+02  0.11292646944E+04  0.11300248573E+04  0.00000000000E+00 0.  1.
<scales pt_clust_3="78.11735" pt_clust_4="14000.00000" pt_clust_5="41.38224" pt_clust_6="41.32933"></scales>
<clustering>
<clus scale="   41.382">  2  5  1 -1</clus>
<clus scale="   41.329">  1  6  2 -1</clus>
<clus scale="   78.117">  1  3  2 -1</clus>
<clus scale="   41.382">  2  3  1 -1</clus>
</clustering>
</event>
<event>
 6    0  0.3584505E+002  0.1038196E+03  0.7546771E-02  0.1272463E+00
          2   -1    0    0  504    0 -0.00000000000E+00  0.00000000000E+00  0.12969601230E+04  0.12969601230E+04  0.00000000000E+00 0. -1.
         21   -1    0    0  503  502  0.00000000000E+00 -0.00000000000E+00 -0.19471715158E+03  0.19471715158E+03  0.00000000000E+00 0.  1.
         21    1    1    2  503  505 -0.37432988376E+02  0.50893032348E+02 -0.15647136711E+03  0.16874423868E+03  0.00000000000E+00 0.  1.
         21    1    1    2  504  502 -0.46990038064E+02  0.97559357815E+01  0.13622497398E+03  0.14443159452E+03  0.00000000000E+00 0. -1.
         21    1    1    2  505  501  0.10920917575E+03 -0.12006299773E+03  0.21830029840E+03  0.27202350592E+03  0.00000000000E+00 0. -1.
          2    1    1    2  501    0 -0.24786149305E+02  0.59414029601E+02  0.90418906614E+03  0.90647793544E+03  0.00000000000E+00 0. -1.
<scales pt_clust_3="63.36661" pt_clust_4="47.99210" pt_clust_5="14000.00000" pt_clust_6="103.81961"></scales>
<clustering>
<clus scale="   47.992">  1  4  2 -1</clus>
<clus scale="   63.367">  2  3  1 -1</clus>
<clus scale="  103.820">  1  6  2 -1</clus>
<clus scale="   63.367">  2  3  1 -1</clus>
</clustering>
</event>
<event>
 6    0  0.3584505E+002  0.7826019E+02  0.7546771E-02  0.1334063E+00
          1   -1    0    0  505    0 -0.00000000000E+00  0.00000000000E+00  0.96513314701E+03  0.96513314701E+03  0.00000000000E+00 0. -1.
         21   -1    0    0  503  502  0.00000000000E+00 -0.00000000000E+00 -0.43330153115E+03  0.43330153115E+03  0.00000000000E+00 0. -1.
         21    1    1    2  503  501  0.43034100973E+02 -0.95778780097E+01 -0.91422517775E+02  0.10149751893E+03  0.00000000000E+00 0. -1.
         21    1    1    2  504  502 -0.12253368741E+03  0.93457560020E+01 -0.29794337892E+03  0.32229195576E+03  0.00000000000E+00 0. -1.
         21    1    1    2  505  504  0.57494399248E+02  0.22948978740E+02  0.97728100125E+01  0.62671918637E+02  0.00000000000E+00 0.  1.
          1    1    1    2  501    0  0.22005187184E+02 -0.22716856733E+02  0.91142470254E+03  0.91197328483E+03  0.00000000000E+00 0. -1.
<scales pt_clust_3="46.60618" pt_clust_4="78.26019" pt_clust_5="14000.00000" pt_clust_6="31.62726"></scales>
<clustering>
<clus scale="   31.627">  1  6  2 -1</clus>
<clus scale="   46.606">  2  3  1 -1</clus>
<clus scale="   78.260">  2  4  1 -1</clus>
<clus scale="   46.606">  2  3  1 -1</clus>
</clustering>
</event>
<event>
 6    0  0.3584505E+002  0.9651636E+02  0.7546771E-02  0.1287797E+00
          2   -1    0    0  504    0 -0.00000000000E+00  0.00000000000E+00  0.44501411409E+03  0.44501411409E+03  0.00000000000E+00 0. -1.
         21   -1    0    0  503  502  0.00000000000E+00 -0.00000000000E+00 -0.74628851278E+02  0.74628851278E+02  0.00000000000E+00 0.  1.
         21    1    1    2  503  501  0.63530431328E+02 -0.26789591722E+01  0.31171173916E+02  0.70816203021E+02  0.00000000000E+00 0. -1.
         21    1    1    2  504  505  0.18811314005E+02 -0.62994723203E+02  0.10923723450E+03  0.12749499632E+03  0.00000000000E+00 0. -1.
         21    1    1    2  505  502  0.34803207414E+02  0.97087120655E+02  0.10534533037E+03  0.14742730708E+03  0.00000000000E+00 0.  1.
          2    1    1    2  501    0 -0.11714495275E+03 -0.31413438279E+02  0.12463152403E+03  0.17390445895E+03  0.00000000000E+00 0. -1.
<scales pt_clust_3="63.58689" pt_clust_4="69.91940" pt_clust_5="14000.00000" pt_clust_6="96.51636"></scales>
<clustering>
<clus scale="   63.587">  2  3  1 -1</clus>
<clus scale="   69.919">  1  4  2 -1</clus>
<clus scale="   96.516">  2  6  1 -1</clus>
<clus scale="   63.587">  2  3  1 -1</clus>
</clustering>
</event>
<event>
 6    0  0.3584505E+002  0.9350264E+02  0.7546771E-02  0.1294585E+00
          2   -1    0    0  505    0 -0.00000000000E+00  0.00000000000E+00  0.44852665562E+04  0.44852665562E+04  0.00000000000E+00 0.  1.
         21   -1    0    0  504  502  0.00000000000E+00 -0.00000000000E+00 -0.10809064222E+02  0.10809064222E+02  0.00000000000E+00 0.  1.
         21    1    1    2  503  502  0.23038028864E+02 -0.22472034189E+02  0.46147181401E+02  0.56261047322E+02  0.00000000000E+00 0.  1.
         21    1    1    2  504  501  0.30387957419E+02  0.54313272597E+02  0.36101327743E+03  0.36633856747E+03  0.00000000000E+00 0. -1.
         21    1    1    2  505  503 -0.65057713531E+02 -0.11390913464E+03  0.18581953421E+04  0.18628198320E+04  0.00000000000E+00 0.  1.
          2    1    1    2  501    0  0.11631727248E+02  0.82067896233E+02  0.22091016910E+04  0.22106561736E+04  0.00000000000E+00 0.  1.
<scales pt_clust_3="32.18296" pt_clust_4="60.11207" pt_clust_5="14000.00000" pt_clust_6="93.50264"></scales>
<clustering>
<clus scale="   32.183">  2  3  1 -1</clus>
<clus scale="   60.112">  2  4  1 -1</clus>
<clus scale="   93.503">  1  6  2 -1</clus>
<clus scale="   32.183">  2  3  1 -1</clus>
</clustering>
</event>
<event>
 6    0  0.3584505E+002  0.6620360E+02  0.7546771E-02  0.1373500E+00
         21   -1    0    0  503  502  0.00000000000E+00  0.00000000000E+00  0.10430395360E+04  0.10430395360E+04  0.00000000000E+00 0. -1.
         -3   -1    0    0    0  501 -0.00000000000E+00 -0.00000000000E+00 -0.82139474186E+03  0.82139474186E+03  0.00000000000E+00 0.  1.
         21    1    1    2  503  501 -0.10157232184E+03  0.59392059562E+00  0.21570770275E+02  0.10383923842E+03  0.00000000000E+00 0. -1.
         21    1    1    2  504  502 -0.30812291781E+02 -0.10158386506E+02  0.82023347957E+03  0.82087486936E+03  0.00000000000E+00 0. -1.
         21    1    1    2  505  504  0.79275581658E+02  0.26506675192E+02  0.14776788715E+03  0.16977211240E+03  0.00000000000E+00 0. -1.
         -3    1    1    2    0  505  0.53109031963E+02 -0.16942209282E+02 -0.76792734282E+03  0.76994805771E+03  0.00000000000E+00 0.  1.
<scales pt_clust_3="66.20360" pt_clust_4="32.44365" pt_clust_5="14000.00000" pt_clust_6="55.62670"></scales>
<clustering>
<clus scale="   32.444">  1  4  2 -1</clus>
<clus scale="   55.627">  2  6  1 -1</clus>
<clus scale="   66.204">  2  3  1 -1</clus>
<clus scale="   32.444">  1  3  2 -1</clus>
</clustering>
</event>
<event>
 6    0  0.3584505E+002  0.1519303E+03  0.7546771E-02  0.1198121E+00
          2   -1    0    0  504    0 -0.00000000000E+00  0.00000000000E+00  0.45292716132E+03  0.45292716132E+03  0.00000000000E+00 0.  1.
         21   -1    0    0  505  502  0.00000000000E+00 -0.00000000000E+00 -0.12695247053E+03  0.12695247053E+03  0.00000000000E+00 0. -1.
         21    1    1    2  503  502 -0.35983502663E+02 -0.12529851841E+02  0.22960022095E+02  0.44485641117E+02  0.00000000000E+00 0.  1.
         21    1    1    2  504  503 -0.42410442190E+02 -0.16029994253E+03  0.11555161948E+03  0.20210614525E+03  0.00000000000E+00 0. -1.
         21    1    1    2  505  501  0.21194219742E+02  0.11549146098E+03 -0.11977915869E+02  0.11802941573E+03  0.00000000000E+00 0.  1.
          2    1    1    2  501    0  0.57199725110E+02  0.57338333393E+02  0.19944096508E+03  0.21525842975E+03  0.00000000000E+00 0.  1.
<scales pt_clust_3="35.89242" pt_clust_4="35.89242" pt_clust_5="132.19886" pt_clust_6="80.99070"></scales>
<clustering>
<clus scale="   35.892">  3  4 -1 -1</clus>
<clus scale="   80.991">  1  6  2 -1</clus>
<clus scale="  132.199">  2  5  1 -1</clus>
<clus scale="  132.199">  2  3  1 -1</clus>
</clustering>
</event>
<event>
 6    0  0.3584505E+002  0.3020957E+03  0.7546771E-02  0.1084198E+00
          2   -1    0    0  504    0 -0.00000000000E+00  0.00000000000E+00  0.20879587742E+04  0.20879587742E+04  0.00000000000E+00 0. -1.
         21   -1    0    0  503  502  0.00000000000E+00 -0.00000000000E+00 -0.51523433729E+03  0.51523433729E+03  0.00000000000E+00 0. -1.
         21    1    1    2  503  501  0.23939775440E+03 -0.19608992237E+03 -0.71271617523E+02  0.31755658698E+03  0.00000000000E+00 0. -1.
         21    1    1    2  504  505 -0.27175807804E+03  0.21316212704E+03  0.12221048614E+04  0.12699727704E+04  0.00000000000E+00 0. -1.
         21    1    1    2  505  502  0.35228966703E+02  0.79216568971E+02 -0.28723015685E+03  0.30002917841E+03  0.00000000000E+00 0. -1.
          2    1    1    2  501    0 -0.28686430707E+01 -0.96288773640E+02  0.70912134990E+03  0.71563457569E+03  0.00000000000E+00 0. -1.
<scales pt_clust_3="302.09574" pt_clust_4="14000.00000" pt_clust_5="86.69686" pt_clust_6="95.15369"></scales>
<clustering>
<clus scale="   86.697">  2  5  1 -1</clus>
<clus scale="   95.154">  1  6  2 -1</clus>
<clus scale="  302.096">  2  3  1 -1</clus>
<clus scale="   86.697">  2  3  1 -1</clus>
</clustering>
</event>
<event>
 6    0  0.3584505E+002  0.7948450E+02  0.7546771E-02  0.1330521E+00
          2   -1    0    0  503    0 -0.00000000000E+00  0.00000000000E+00  0.11691547994E+04  0.11691547994E+04  0.00000000000E+00 0. -1.
         21   -1    0    0  504  502  0.00000000000E+00 -0.00000000000E+00 -0.13621295947E+03  0.13621295947E+03  0.00000000000E+00 0.  1.
         21    1    1    2  503  505 -0.56853619483E+02  0.75101214375E+02  0.97772363021E+02  0.13576435990E+03  0.00000000000E+00 0.  1.
         21    1    1    2  504  501  0.66756724498E+02 -0.38502008231E+02  0.34635902773E+02  0.84489707446E+02  0.00000000000E+00 0.  1.
         21    1    1    2  505  502  0.12149616963E+02  0.27721011877E+02 -0.88609620765E+02  0.93636171344E+02  0.00000000000E+00 0.  1.
          2    1    1    2  501    0 -0.22052721978E+02 -0.64320218022E+02  0.98914319488E+03  0.99147752016E+03  0.00000000000E+00 0. -1.
<scales pt_clust_3="14000.00000" pt_clust_4="79.48450" pt_clust_5="30.26661" pt_clust_6="67.21494"></scales>
<clustering>
<clus scale="   30.267">  2  5  1 -1</clus>
<clus scale="   67.215">  1  6  2 -1</clus>
<clus scale="   79.485">  2  4  1 -1</clus>
<clus scale="   30.267">  2  3  1 -1</clus>
</clustering>
</event>
<event>
 6    0  0.3584505E+002  0.1959905E+03  0.7546771E-02  0.1153167E+00
         21   -1    0    0  505  502  0.00000000000E+00  0.00000000000E+00  0.71756690615E+03  0.71756690615E+03  0.00000000000E+00 0. -1.
          2   -1    0    0  504    0 -0.00000000000E+00 -0.00000000000E+00 -0.36174064359E+03  0.36174064359E+03  0.00000000000E+00 0.  1.
         21    1    1    2  503  501 -0.58191740360E+02 -0.47306136789E+02 -0.53823428232E+02  0.92309862153E+02  0.00000000000E+00 0.  1.
         21    1    1    2  504  502  0.76223172422E+02  0.19989194471E+03  0.54574106993E+03  0.58617410125E+03  0.00000000000E+00 0. -1.
         21    1    1    2  505  503 -0.48870482409E+02 -0.14743939711E+03  0.85318402478E+02  0.17721718221E+03  0.00000000000E+00 0.  1.
          2    1    1    2  501    0  0.30839050348E+02 -0.51464108102E+01 -0.22140978161E+03  0.22360640412E+03  0.00000000000E+00 0.  1.
<scales pt_clust_3="65.30971" pt_clust_4="14000.00000" pt_clust_5="195.99047" pt_clust_6="31.26552"></scales>
<clustering>
<clus scale="   31.266">  2  6  1 -1</clus>
<clus scale="   65.310">  2  3  1 -1</clus>
<clus scale="  195.990">  2  5  1 -1</clus>
<clus scale="  195.990">  1  3  2 -1</clus>
</clustering>
</event>
<event>
 6    0  0.3584505E+002  0.8795126E+02  0.7546771E-02  0.1307890E+00
         21   -1    0    0  503  502  0.00000000000E+00  0.00000000000E+00  0.47963314503E+03  0.47963314503E+03  0.00000000000E+00 0.  1.
         -1   -1    0    0    0  501 -0.00000000000E+00 -0.00000000000E+00 -0.18598521738E+03  0.18598521738E+03  0.00000000000E+00 0.  1.
         21    1    1    2  503  504 -0.19140731804E+02  0.37090753788E+02  0.29248230677E+03  0.29544541188E+03  0.00000000000E+00 0.  1.
         21    1    1    2  504  501 -0.28674868749E+02  0.51071684601E+02  0.12283803832E+03  0.13608728347E+03  0.00000000000E+00 0. -1.
         21    1    1    2  505  502  0.90097547581E+02 -0.60591613787E+02 -0.70080746658E+01  0.10880268771E+03  0.00000000000E+00 0.  1.
         -1    1    1    2    0  505 -0.42281947027E+02 -0.27570824601E+02 -0.11466434277E+03  0.12528297936E+03  0.00000000000E+00 0.  1.
<scales pt_clust_3="41.73837" pt_clust_4="87.95126" pt_clust_5="14000.00000" pt_clust_6="50.37001"></scales>
<clustering>
<clus scale="   41.738">  1  3  2 -1</clus>
<clus scale="   50.370">  2  6  1 -1</clus>
<clus scale="   87.951">  1  4  2 -1</clus>
<clus scale="   41.738">  1  3  2 -1</clus>
</clustering>
</event>
<event>
 6    0  0.3584505E+002  0.8251526E+02  0.7546771E-02  0.1322061E+00
         21   -1    0    0  503  502  0.00000000000E+00  0.00000000000E+00  0.15526614646E+03  0.15526614646E+03  0.00000000000E+00 0.  1.
          2   -1    0    0  505    0 -0.00000000000E+00 -0.00000000000E+00 -0.13083729078E+04  0.13083729078E+04  0.00000000000E+00 0.  1.
         21    1    1    2  503  501 -0.55777676297E+02  0.63165530535E+02  0.29103182344E+02  0.89151716997E+02  0.00000000000E+00 0.  1.
         21    1    1    2  504  502  0.25749138379E+02  0.18666979252E+02  0.74651326848E+02  0.81143667910E+02  0.00000000000E+00 0.  1.
         21    1    1    2  505  504  0.74489020198E+02 -0.42342503020E+02 -0.87478727324E+02  0.12245010995E+03  0.00000000000E+00 0.  1.
          2    1    1    2  501    0 -0.44460482281E+02 -0.39490006768E+02 -0.11693825432E+04  0.11708935594E+04  0.00000000000E+00 0.  1.
<scales pt_clust_3="82.51526" pt_clust_4="31.80368" pt_clust_5="14000.00000" pt_clust_6="59.15688"></scales>
<clustering>
<clus scale="   31.804">  1  4  2 -1</clus>
<clus scale="   59.157">  2  6  1 -1</clus>
<clus scale="   82.515">  1  3  2 -1</clus>
<clus scale="   31.804">  1  3  2 -1</clus>
</clustering>
</event>
<event>
 6    0  0.3584505E+002  0.6970421E+02  0.7546771E-02  0.1361102E+00
         21   -1    0    0  504  502  0.00000000000E+00  0.00000000000E+00  0.52239328088E+03  0.52239328088E+03  0.00000000000E+00 0.  1.
          2   -1    0    0  505    0 -0.00000000000E+00 -0.00000000000E+00 -0.11001887174E+03  0.11001887174E+03  0.00000000000E+00 0.  1.
         21    1    1    2  503  502 -0.34295727825E+02  0.16907081824E+01  0.15730758807E+03  0.16101159183E+03  0.00000000000E+00 0.  1.
         21    1    1    2  504  501  0.28538915759E+02  0.46321360505E+02  0.13295487917E+03  0.14365631920E+03  0.00000000000E+00 0.  1.
         21    1    1    2  505  503 -0.26419465221E+02 -0.10727154605E+03  0.19768510046E+03  0.22646097164E+03  0.00000000000E+00 0.  1.
          2    1    1    2  501    0  0.32176277287E+02  0.59259477359E+02 -0.75573158552E+02  0.10128326994E+03  0.00000000000E+00 0.  1.
<scales pt_clust_3="34.33738" pt_clust_4="49.45063" pt_clust_5="14000.00000" pt_clust_6="69.70421"></scales>
<clustering>
<clus scale="   34.337">  1  3  2 -1</clus>
<clus scale="   49.451">  1  4  2 -1</clus>
<clus scale="   69.704">  2  6  1 -1</clus>
<clus scale="   34.337">  1  3  2 -1</clus>
</clustering>
</event>
<event>
 6    0  0.3584505E+002  0.8348470E+02  0.7546771E-02  0.1319443E+00
         21   -1    0    0  503  502  0.00000000000E+00  0.00000000000E+00  0.19500144312E+03  0.19500144312E+03  0.00000000000E+00 0.  1.
          2   -1    0    0  505    0 -0.00000000000E+00 -0.00000000000E+00 -0.14955981888E+03  0.14955981888E+03  0.00000000000E+00 0.  1.
         21    1    1    2  503  501  0.76946199652E+01  0.37671892867E+02 -0.25571762401E+01  0.38534631683E+02  0.00000000000E+00 0.  1.
         21    1    1    2  504  502 -0.74392116710E+02  0.33769068903E+02  0.66787931268E+02  0.10552329035E+03  0.00000000000E+00 0.  1.
         21    1    1    2  505  504  0.38320381337E+02 -0.95235087959E+02  0.56080797538E+02  0.11697533696E+03  0.00000000000E+00 0.  1.
          2    1    1    2  501    0  0.28377115408E+02  0.23794126189E+02 -0.74869928318E+02  0.83528003007E+02  0.00000000000E+00 0.  1.
<scales pt_clust_3="47.39548" pt_clust_4="14000.00000" pt_clust_5="83.48470" pt_clust_6="37.03270"></scales>
<clustering>
<clus scale="   37.033">  2  6  1 -1</clus>
<clus scale="   47.395">  2  3  1 -1</clus>
<clus scale="   83.485">  2  5  1 -1</clus>
<clus scale="   83.485">  1  3  2 -1</clus>
</clustering>
</event>
<event>
 6    0  0.3584505E+002  0.9692885E+02  0.7546771E-02  0.1286890E+00
          2   -1    0    0  503    0 -0.00000000000E+00  0.00000000000E+00  0.29825662380E+04  0.29825662380E+04  0.00000000000E+00 0.  1.
         21   -1    0    0  505  502  0.00000000000E+00 -0.00000000000E+00 -0.66082702473E+02  0.66082702473E+02  0.00000000000E+00 0.  1.
         21    1    1    2  503  504  0.14297112935E+02 -0.31244258960E+02  0.23611737478E+03  0.23860432903E+03  0.00000000000E+00 0. -1.
         21    1    1    2  504  502 -0.99764582458E+02 -0.17549605952E+02 -0.17983796664E+02  0.10288040399E+03  0.00000000000E+00 0.  1.
         21    1    1    2  505  501  0.38651347066E+02  0.74189447799E+02  0.42308275000E+03  0.43127371140E+03  0.00000000000E+00 0. -1.
          2    1    1    2  501    0  0.46816122457E+02 -0.25395582887E+02  0.22752672074E+04  0.22758904961E+04  0.00000000000E+00 0.  1.
<scales pt_clust_3="34.36002" pt_clust_4="14000.00000" pt_clust_5="96.92885" pt_clust_6="77.92962"></scales>
<clustering>
<clus scale="   34.360">  1  3  2 -1</clus>
<clus scale="   77.930">  1  6  2 -1</clus>
<clus scale="   96.929">  1  5  2 -1</clus>
<clus scale="   96.929">  2  3  1 -1</clus>
</clustering>
</event>
<event>
 6    0  0.3584505E+002  0.8060811E+02  0.7546771E-02  0.1327335E+00
         21   -1    0    0  504  502  0.00000000000E+00  0.00000000000E+00  0.37455525889E+03  0.37455525889E+03  0.00000000000E+00 0.  1.
          2   -1    0    0  505    0 -0.00000000000E+00 -0.00000000000E+00 -0.59201290387E+03  0.59201290387E+03  0.00000000000E+00 0.  1.
         21    1    1    2  503  502 -0.91638668513E+02  0.45910073831E+02  0.10247366249E+03  0.14493526814E+03  0.00000000000E+00 0.  1.
         21    1    1    2  504  501  0.11764806042E+02 -0.38029958957E+02  0.23706854909E+03  0.24038757332E+03  0.00000000000E+00 0.  1.
         21    1    1    2  505  503  0.37551847569E+02  0.44477774381E+02 -0.76894446246E+02  0.96442571167E+02  0.00000000000E+00 0.  1.
          2    1    1    2  501    0  0.42322014902E+02 -0.52357889255E+02 -0.48010541032E+03  0.48480275012E+03  0.00000000000E+00 0.  1.
<scales pt_clust_3="14000.00000" pt_clust_4="39.80815" pt_clust_5="56.71652" pt_clust_6="80.60811"></scales>
<clustering>
<clus scale="   39.808">  1  4  2 -1</clus>
<clus scale="   56.717">  2  5  1 -1</clus>
<clus scale="   80.608">  2  6  1 -1</clus>
<clus scale="   39.808">  1  3  2 -1</clus>
</clustering>
</event>
<event>
 6    0  0.3584505E+002  0.6724871E+02  0.7546771E-02  0.1369707E+00
         21   -1    0    0  505  502  0.00000000000E+00  0.00000000000E+00  0.70067649575E+02  0.70067649575E+02  0.00000000000E+00 0. -1.
          2   -1    0    0  503    0 -0.00000000000E+00 -0.00000000000E+00 -0.81126388546E+03  0.81126388546E+03  0.00000000000E+00 0. -1.
         21    1    1    2  503  504 -0.10281671820E+02  0.67067376596E+02 -0.32161916884E+03  0.32869839602E+03  0.00000000000E+00 0. -1.
         21    1    1    2  504  502  0.31493918539E+02 -0.45446256508E+01  0.46194450446E+01  0.32153690298E+02  0.00000000000E+00 0. -1.
         21    1    1    2  505  501 -0.84291393594E+02 -0.35929915809E+02 -0.84962141507E+00  0.91633616870E+02  0.00000000000E+00 0. -1.
          2    1    1    2  501    0  0.63079146875E+02 -0.26592835136E+02 -0.42334689067E+03  0.42884583185E+03  0.00000000000E+00 0. -1.
<scales pt_clust_3="67.24871" pt_clust_4="31.82013" pt_clust_5="14000.00000" pt_clust_6="66.74632"></scales>
<clustering>
<clus scale="   31.820">  1  4  2 -1</clus>
<clus scale="   67.249">  2  3  1 -1</clus>
<clus scale="   66.746">  2  6  1 -1</clus>
<clus scale="   31.820">  1  3  2 -1</clus>
</clustering>
</event>
<event>
 6    0  0.3584505E+002  0.7119818E+02  0.7546771E-02  0.1356065E+00
          2   -1    0    0  504    0 -0.00000000000E+00  0.00000000000E+00  0.33887400242E+04  0.33887400242E+04  0.00000000000E+00 0.  1.
         21   -1    0    0  503  502  0.00000000000E+00 -0.00000000000E+00 -0.14489682772E+03  0.14489682772E+03  0.00000000000E+00 0. -1.
         21    1    1    2  503  501 -0.44219186068E+02 -0.57272798692E+01  0.88825658026E+02  0.99388810613E+02  0.00000000000E+00 0. -1.
         21    1    1    2  504  505 -0.19275800754E+02 -0.85304558073E+02  0.27658085488E+02  0.91724554050E+02  0.00000000000E+00 0. -1.
         21    1    1    2  505  502  0.71879218289E+02  0.41753731757E+02 -0.91301430297E+02  0.12347448041E+03  0.00000000000E+00 0. -1.
          2    1    1    2  501    0 -0.83842314668E+01  0.49278106185E+02  0.32186608833E+04  0.32190490068E+04  0.00000000000E+00 0.  1.
<scales pt_clust_3="44.58854" pt_clust_4="14000.00000" pt_clust_5="71.19818" pt_clust_6="49.98877"></scales>
<clustering>
<clus scale="   44.589">  2  3  1 -1</clus>
<clus scale="   49.989">  1  6  2 -1</clus>
<clus scale="   71.198">  2  5  1 -1</clus>
<clus scale="   44.589">  2  3  1 -1</clus>
</clustering>
</event>
<event>
 6    0  0.3584505E+002  0.1354338E+03  0.7546771E-02  0.1219609E+00
         21   -1    0    0  505  502  0.00000000000E+00  0.00000000000E+00  0.49013573633E+02  0.49013573633E+02  0.00000000000E+00 0. -1.
          1   -1    0    0  503    0 -0.00000000000E+00 -0.00000000000E+00 -0.29779157934E+04  0.29779157934E+04  0.00000000000E+00 0. -1.
         21    1    1    2  503  504 -0.12832829636E+03 -0.36128478965E+01 -0.10580700416E+04  0.10658299194E+04  0.00000000000E+00 0. -1.
         21    1    1    2  504  502  0.59598427492E+02 -0.56477362644E+02 -0.68410139844E+02  0.10687194339E+03  0.00000000000E+00 0. -1.
         21    1    1    2  505  501  0.88369960127E+02  0.34922715442E+02 -0.61880678586E+02  0.11339340496E+03  0.00000000000E+00 0. -1.
          1    1    1    2  501    0 -0.19640091263E+02  0.25167495099E+02 -0.17405413598E+04  0.17408340992E+04  0.00000000000E+00 0. -1.
<scales pt_clust_3="135.43378" pt_clust_4="79.87224" pt_clust_5="14000.00000" pt_clust_6="31.92391"></scales>
<clustering>
<clus scale="   31.924">  2  6  1 -1</clus>
<clus scale="   79.872">  1  4  2 -1</clus>
<clus scale="  135.434">  2  3  1 -1</clus>
<clus scale="   79.872">  1  3  2 -1</clus>
</clustering>
</event>
<event>
 6    0  0.3584505E+002  0.1035081E+03  0.7546771E-02  0.1273087E+00
         21   -1    0    0  501  502  0.00000000000E+00  0.00000000000E+00  0.24770356908E+03  0.24770356908E+03  0.00000000000E+00 0.  1.
          3   -1    0    0  505    0 -0.00000000000E+00 -0.00000000000E+00 -0.12345661459E+03  0.12345661459E+03  0.00000000000E+00 0.  1.
         21    1    1    2  503  502 -0.58101566198E+01  0.32819919663E+02  0.38044024202E+02  0.50579173818E+02  0.00000000000E+00 0.  1.
         21    1    1    2  504  503  0.99843290078E+02 -0.97640087871E+01  0.10826030869E+03  0.14759509775E+03  0.00000000000E+00 0.  1.
         21    1    1    2  505  504 -0.11986549948E+03  0.79538630218E+01  0.11253321911E+02  0.12065504199E+03  0.00000000000E+00 0.  1.
          3    1    1    2  501    0  0.25832366025E+02 -0.31009773897E+02 -0.33310700313E+02  0.52330870115E+02  0.00000000000E+00 0.  1.
<scales pt_clust_3="33.33024" pt_clust_4="103.50811" pt_clust_5="14000.00000" pt_clust_6="39.01457"></scales>
<clustering>
<clus scale="   33.330">  1  3  2 -1</clus>
<clus scale="   39.015">  2  6  1 -1</clus>
<clus scale="  103.508">  1  4  2 -1</clus>
<clus scale="   33.330">  1  3  2 -1</clus>
</clustering>
</event>
<event>
 6    0  0.3584505E+002  0.6404979E+02  0.7546771E-02  0.1381582E+00
          2   -1    0    0  504    0 -0.00000000000E+00  0.00000000000E+00  0.19249432271E+04  0.19249432271E+04  0.00000000000E+00 0. -1.
         21   -1    0    0  503  502  0.00000000000E+00 -0.00000000000E+00 -0.22432210061E+02  0.22432210061E+02  0.00000000000E+00 0. -1.
         21    1    1    2  503  501  0.43328067808E+02 -0.56225215652E+02  0.74601140774E+03  0.74938082228E+03  0.00000000000E+00 0. -1.
         21    1    1    2  504  505 -0.35923550483E+02  0.55820475667E+02  0.24662298650E+03  0.25540032195E+03  0.00000000000E+00 0. -1.
         21    1    1    2  505  502  0.23010034750E+02 -0.51327293187E+02  0.36269676594E+02  0.66928634869E+02  0.00000000000E+00 0. -1.
          2    1    1    2  501    0 -0.30414552075E+02  0.51732033173E+02  0.87360694623E+03  0.87566565808E+03  0.00000000000E+00 0. -1.
<scales pt_clust_3="14000.00000" pt_clust_4="32.43850" pt_clust_5="56.24902" pt_clust_6="64.04979"></scales>
<clustering>
<clus scale="   56.249">  2  5  1 -1</clus>
<clus scale="   32.439">  2  4  1 -1</clus>
<clus scale="   64.050">  1  6  2 -1</clus>
<clus scale="   56.249">  2  3  1 -1</clus>
</clustering>
</event>
<event>
 6    0  0.3584505E+002  0.9924604E+02  0.7546771E-02  0.1281889E+00
         21   -1    0    0  505  502  0.00000000000E+00  0.00000000000E+00  0.41515498559E+03  0.41515498559E+03  0.00000000000E+00 0. -1.
          1   -1    0    0  503    0 -0.00000000000E+00 -0.00000000000E+00 -0.14378979126E+04  0.14378979126E+04  0.00000000000E+00 0. -1.
         21    1    1    2  503  504  0.18136816090E+02 -0.38190081379E+02 -0.63496716991E+02  0.76284070960E+02  0.00000000000E+00 0.  1.
         21    1    1    2  504  502  0.65620244187E+02  0.47495868626E+02  0.30374124866E+03  0.31435747187E+03  0.00000000000E+00 0. -1.
         21    1    1    2  505  501 -0.38076249797E+02  0.49221492825E+02  0.88883788273E+02  0.10850292149E+03  0.00000000000E+00 0. -1.
          1    1    1    2  501    0 -0.45680810480E+02 -0.58527280072E+02 -0.13518712470E+04  0.13539084339E+04  0.00000000000E+00 0. -1.
<scales pt_clust_3="42.27797" pt_clust_4="14000.00000" pt_clust_5="61.93372" pt_clust_6="99.24604"></scales>
<clustering>
<clus scale="   42.278">  2  3  1 -1</clus>
<clus scale="   61.934">  1  5  2 -1</clus>
<clus scale="   99.246">  2  6  1 -1</clus>
<clus scale="   61.934">  1  3  2 -1</clus>
</clustering>
</event>
<event>
 6    0  0.3584505E+002  0.6753422E+02  0.7546771E-02  0.1368685E+00
         21   -1    0    0  505  502  0.00000000000E+00  0.00000000000E+00  0.99045743779E+02  0.99045743779E+02  0.00000000000E+00 0.  1.
          1   -1    0    0  504    0 -0.00000000000E+00 -0.00000000000E+00 -0.36795027693E+03  0.36795027693E+03  0.00000000000E+00 0.  1.
         21    1    1    2  503  502  0.32302727048E+02  0.52109818654E+02  0.41850638802E+02  0.74231902462E+02  0.00000000000E+00 0.  1.
         21    1    1    2  504  503  0.20165239349E+02  0.65612877869E+02 -0.81827715955E+02  0.10680571950E+03  0.00000000000E+00 0.  1.
         21    1    1    2  505  501 -0.16630464436E+01 -0.69639581632E+02 -0.31397489630E+02  0.76408372633E+02  0.00000000000E+00 0.  1.
          1    1    1    2  501    0 -0.50804919954E+02 -0.48083114892E+02 -0.19752996636E+03  0.20955002611E+03  0.00000000000E+00 0.  1.
<scales pt_clust_3="61.30986" pt_clust_4="14000.00000" pt_clust_5="44.07180" pt_clust_6="67.53422"></scales>
<clustering>
<clus scale="   61.310">  1  3  2 -1</clus>
<clus scale="   44.072">  1  5  2 -1</clus>
<clus scale="   67.534">  2  6  1 -1</clus>
<clus scale="   61.310">  1  3  2 -1</clus>
</clustering>
</event>
<event>
 6    0  0.3584505E+002  0.2281979E+03  0.7546771E-02  0.1127915E+00
          4   -1    0    0  505    0 -0.00000000000E+00  0.00000000000E+00  0.36944633265E+03  0.36944633265E+03  0.00000000000E+00 0. -1.
         21   -1    0    0  504  502  0.00000000000E+00 -0.00000000000E+00 -0.73007054394E+03  0.73007054394E+03  0.00000000000E+00 0. -1.
         21    1    1    2  503  501 -0.95683149244E+02  0.95832051637E+02  0.10948330492E+03  0.17414258878E+03  0.00000000000E+00 0. -1.
         21    1    1    2  504  503  0.23140403110E+02 -0.52154707370E+02 -0.47019010930E+03  0.47363945216E+03  0.00000000000E+00 0. -1.
         21    1    1    2  505  502  0.11734608807E+03 -0.11525586104E+03 -0.18545387402E+03  0.24788537124E+03  0.00000000000E+00 0. -1.
          4    1    1    2  501    0 -0.44803341938E+02  0.71578516770E+02  0.18553646711E+03  0.20384946441E+03  0.00000000000E+00 0. -1.
<scales pt_clust_3="71.91496" pt_clust_4="57.05779" pt_clust_5="209.75155" pt_clust_6="71.91496"></scales>
<clustering>
<clus scale="   57.058">  2  4  1 -1</clus>
<clus scale="   71.915">  3  6 -1 -1</clus>
<clus scale="  209.752">  2  5  1 -1</clus>
<clus scale="   57.058">  2  3  1 -1</clus>
</clustering>
</event>
<event>
 6    0  0.3584505E+002  0.1078311E+03  0.7546771E-02  0.1264640E+00
         21   -1    0    0  503  502  0.00000000000E+00  0.00000000000E+00  0.25663028476E+03  0.25663028476E+03  0.00000000000E+00 0.  1.
          1   -1    0    0  504    0 -0.00000000000E+00 -0.00000000000E+00 -0.12171554084E+04  0.12171554084E+04  0.00000000000E+00 0.  1.
         21    1    1    2  503  505  0.22837282338E+02 -0.96346329464E+02  0.14564372154E+03  0.17611431029E+03  0.00000000000E+00 0.  1.
         21    1    1    2  504  502  0.51077451142E+02  0.16605711639E+03  0.94512646590E+01  0.17399194901E+03  0.00000000000E+00 0.  1.
         21    1    1    2  505  501 -0.20023434420E+02 -0.71535815284E+02 -0.47262723532E+03  0.47842952915E+03  0.00000000000E+00 0.  1.
          1    1    1    2  501    0 -0.53891299059E+02  0.18250283608E+01 -0.64299287455E+03  0.64524990474E+03  0.00000000000E+00 0.  1.
<scales pt_clust_3="107.83113" pt_clust_4="14000.00000" pt_clust_5="95.36703" pt_clust_6="53.92219"></scales>
<clustering>
<clus scale="   53.922">  2  6  1 -1</clus>
<clus scale="   95.367">  2  5  1 -1</clus>
<clus scale="  107.831">  1  3  2 -1</clus>
<clus scale="  107.831">  1  3  2 -1</clus>
</clustering>
</event>
<event>
 6    0  0.3584505E+002  0.9671744E+02  0.7546771E-02  0.1287354E+00
         21   -1    0    0  503  502  0.00000000000E+00  0.00000000000E+00  0.14258336473E+04  0.14258336473E+04  0.00000000000E+00 0.  1.
          2   -1    0    0  505    0 -0.00000000000E+00 -0.00000000000E+00 -0.67889759255E+02  0.67889759255E+02  0.00000000000E+00 0. -1.
         21    1    1    2  503  501  0.27954944248E+02  0.39513864301E+02  0.97034448102E+03  0.97155094372E+03  0.00000000000E+00 0.  1.
         21    1    1    2  504  502  0.65649801320E+02 -0.56914176787E+01  0.20871879603E+03  0.21887399221E+03  0.00000000000E+00 0. -1.
         21    1    1    2  505  504 -0.60121113675E+02 -0.12159243173E+03  0.15578137372E+03  0.20656017080E+03  0.00000000000E+00 0. -1.
          2    1    1    2  501    0 -0.33483631894E+02  0.87769985104E+02  0.23099237256E+02  0.96738299818E+02  0.00000000000E+00 0. -1.
<scales pt_clust_3="48.40273" pt_clust_4="79.83448" pt_clust_5="96.71744" pt_clust_6="14000.00000"></scales>
<clustering>
<clus scale="   48.403">  1  3  2 -1</clus>
<clus scale="   79.834">  1  4  2 -1</clus>
<clus scale="   96.717">  1  5  2 -1</clus>
<clus scale="   48.403">  1  3  2 -1</clus>
</clustering>
</event>
<event>
 6    0  0.3584505E+002  0.6723075E+02  0.7546771E-02  0.1369771E+00
          1   -1    0    0  504    0 -0.00000000000E+00  0.00000000000E+00  0.15962577016E+04  0.15962577016E+04  0.00000000000E+00 0.  1.
         21   -1    0    0  505  502  0.00000000000E+00 -0.00000000000E+00 -0.78140199643E+02  0.78140199643E+02  0.00000000000E+00 0. -1.
         21    1    1    2  503  501  0.30507514592E+02 -0.79203339047E+02  0.18025729752E+03  0.19923998261E+03  0.00000000000E+00 0. -1.
         21    1    1    2  504  502 -0.54840033279E+02  0.43330332624E+02 -0.26879953072E+02  0.74883101248E+02  0.00000000000E+00 0. -1.
         21    1    1    2  505  503  0.10416691653E+02 -0.29450341486E+02 -0.25612874366E+01  0.31343105653E+02  0.00000000000E+00 0. -1.
          1    1    1    2  501    0  0.13915827034E+02  0.65323347910E+02  0.13673014449E+04  0.13689317117E+04  0.00000000000E+00 0.  1.
<scales pt_clust_3="67.23075" pt_clust_4="49.87353" pt_clust_5="31.23828" pt_clust_6="14000.00000"></scales>
<clustering>
<clus scale="   31.238">  2  5  1 -1</clus>
<clus scale="   49.874">  2  4  1 -1</clus>
<clus scale="   67.231">  2  3  1 -1</clus>
<clus scale="   31.238">  2  3  1 -1</clus>
</clustering>
</event>
<event>
 6    0  0.3584505E+002  0.8715899E+02  0.7546771E-02  0.1309881E+00
          2   -1    0    0  503    0 -0.00000000000E+00  0.00000000000E+00  0.21741356568E+04  0.21741356568E+04  0.00000000000E+00 0.  1.
         21   -1    0    0  504  502  0.00000000000E+00 -0.00000000000E+00 -0.19308062344E+02  0.19308062344E+02  0.00000000000E+00 0.  1.
         21    1    1    2  503  505 -0.10372582700E+03  0.61357974866E+02  0.68536096773E+03  0.69587606968E+03  0.00000000000E+00 0.  1.
         21    1    1    2  504  501  0.74806934897E+02  0.69948354053E+01  0.12126132506E+03  0.14265102238E+03  0.00000000000E+00 0.  1.
         21    1    1    2  505  502 -0.27858623960E+02 -0.12463969361E+02  0.11013130249E+03  0.11428192005E+03  0.00000000000E+00 0.  1.
          2    1    1    2  501    0  0.56777516060E+02 -0.55888840910E+02  0.12380739992E+04  0.12406347070E+04  0.00000000000E+00 0.  1.
<scales pt_clust_3="87.15899" pt_clust_4="57.52231" pt_clust_5="30.51972" pt_clust_6="14000.00000"></scales>
<clustering>
<clus scale="   30.520">  2  5  1 -1</clus>
<clus scale="   57.522">  2  4  1 -1</clus>
<clus scale="   87.159">  2  3  1 -1</clus>
<clus scale="   30.520">  2  3  1 -1</clus>
</clustering>
</event>
<event>
 6    0  0.3584505E+002  0.1408627E+03  0.7546771E-02  0.1212173E+00
         21   -1    0    0  504  502  0.00000000000E+00  0.00000000000E+00  0.12099383970E+04  0.12099383970E+04  0.00000000000E+00 0. -1.
          2   -1    0    0  503    0 -0.00000000000E+00 -0.00000000000E+00 -0.39382297439E+03  0.39382297439E+03  0.00000000000E+00 0. -1.
         21    1    1    2  503  505  0.49556754904E+02 -0.16085899890E+03  0.67538295146E+03  0.69604139288E+03  0.00000000000E+00 0. -1.
         21    1    1    2  504  501 -0.25594332880E+02  0.18263043701E+02  0.57695494194E+02  0.65706762902E+02  0.00000000000E+00 0. -1.
         21    1    1    2  505  502 -0.58057834936E+02  0.59951250653E+01  0.44750588143E+03  0.45129609752E+03  0.00000000000E+00 0. -1.
          2    1    1    2  501    0  0.34095412912E+02  0.13660083013E+03 -0.36446890451E+03  0.39071711804E+03  0.00000000000E+00 0. -1.
<scales pt_clust_3="140.86268" pt_clust_4="31.44215" pt_clust_5="69.33216" pt_clust_6="14000.00000"></scales>
<clustering>
<clus scale="   31.442">  1  4  2 -1</clus>
<clus scale="   69.332">  1  5  2 -1</clus>
<clus scale="  140.863">  1  3  2 -1</clus>
<clus scale="   31.442">  1  3  2 -1</clus>
</clustering>
</event>
<event>
 6    0  0.3584505E+002  0.1480569E+03  0.7546771E-02  0.1202881E+00
         21   -1    0    0  501  502  0.00000000000E+00  0.00000000000E+00  0.11640859159E+03  0.11640859159E+03  0.00000000000E+00 0.  1.
          2   -1    0    0  503    0 -0.00000000000E+00 -0.00000000000E+00 -0.11439586858E+04  0.11439586858E+04  0.00000000000E+00 0.  1.
         21    1    1    2  503  504 -0.79142036443E+02 -0.12390108561E+03 -0.73232635914E+03  0.74693830885E+03  0.00000000000E+00 0.  1.
         21    1    1    2  504  505  0.17450639021E+03  0.65595727868E+02 -0.13426861850E+03  0.22974625493E+03  0.00000000000E+00 0.  1.
         21    1    1    2  505  502  0.39831656229E+02  0.22298900232E+02  0.24156788835E+02  0.51646415523E+02  0.00000000000E+00 0.  1.
          2    1    1    2  501    0 -0.13519601000E+03  0.36006457509E+02 -0.18511190542E+03  0.23203629809E+03  0.00000000000E+00 0.  1.
<scales pt_clust_3="14000.00000" pt_clust_4="148.05690" pt_clust_5="45.64868" pt_clust_6="130.46734"></scales>
<clustering>
<clus scale="   45.649">  1  5  2 -1</clus>
<clus scale="  130.467">  1  6  2 -1</clus>
<clus scale="  148.057">  1  4  2 -1</clus>
<clus scale="   45.649">  1  3  2 -1</clus>
</clustering>
</event>
<event>
 6    0  0.3584505E+002  0.1407512E+03  0.7546771E-02  0.1212322E+00
         21   -1    0    0  504  502  0.00000000000E+00  0.00000000000E+00  0.47592264660E+03  0.47592264660E+03  0.00000000000E+00 0.  1.
          2   -1    0    0  505    0 -0.00000000000E+00 -0.00000000000E+00 -0.30732605634E+04  0.30732605634E+04  0.00000000000E+00 0.  1.
         21    1    1    2  503  502 -0.27229880982E+02  0.28050276243E+02  0.32866025952E+03  0.33097711492E+03  0.00000000000E+00 0.  1.
         21    1    1    2  504  501  0.42146320115E+02  0.16740377053E+03 -0.65186917107E+02  0.18452552357E+03  0.00000000000E+00 0.  1.
         21    1    1    2  505  503  0.19884934466E+02 -0.59991684817E+02  0.72988393858E+02  0.96549047141E+02  0.00000000000E+00 0.  1.
          2    1    1    2  501    0 -0.34801373599E+02 -0.13546236196E+03 -0.29337996531E+04  0.29371315244E+04  0.00000000000E+00 0.  1.
<scales pt_clust_3="39.09328" pt_clust_4="14000.00000" pt_clust_5="43.90763" pt_clust_6="140.75123"></scales>
<clustering>
<clus scale="   39.093">  1  3  2 -1</clus>
<clus scale="   43.908">  1  5  2 -1</clus>
<clus scale="  140.751">  2  6  1 -1</clus>
<clus scale="   39.093">  1  3  2 -1</clus>
</clustering>
</event>
<event>
 6    0  0.3584505E+002  0.6928328E+02  0.7546771E-02  0.1362547E+00
         -2   -1    0    0    0  501 -0.00000000000E+00  0.00000000000E+00  0.48599218790E+03  0.48599218790E+03  0.00000000000E+00 0.  1.
         21   -1    0    0  503  502  0.00000000000E+00 -0.00000000000E+00 -0.14345591130E+03  0.14345591130E+03  0.00000000000E+00 0. -1.
         21    1    1    2  503  504  0.19971709971E+02  0.44400663846E+02  0.12699237700E+02  0.50314598153E+02  0.00000000000E+00 0.  1.
         21    1    1    2  504  501 -0.21812226004E+02  0.50145398081E+02  0.21940753332E+03  0.22611943709E+03  0.00000000000E+00 0.  1.
         21    1    1    2  505  502 -0.30514625382E+02 -0.11501864755E+03 -0.89849175533E+02  0.14910836995E+03  0.00000000000E+00 0. -1.
         -2    1    1    2    0  505  0.32355141415E+02  0.20472585623E+02  0.20027868112E+03  0.20390569401E+03  0.00000000000E+00 0.  1.
<scales pt_clust_3="52.28316" pt_clust_4="69.28328" pt_clust_5="14000.00000" pt_clust_6="38.28814"></scales>
<clustering>
<clus scale="   38.288">  1  6  2 -1</clus>
<clus scale="   52.283">  2  3  1 -1</clus>
<clus scale="   69.283">  1  4  2 -1</clus>
<clus scale="   52.283">  2  3  1 -1</clus>
</clustering>
</event>
<event>
 6    0  0.3584505E+002  0.3944109E+03  0.7546771E-02  0.1045732E+00
         21   -1    0    0  503  502  0.00000000000E+00  0.00000000000E+00  0.53171846227E+03  0.53171846227E+03  0.00000000000E+00 0.  1.
          1   -1    0    0  505    0 -0.00000000000E+00 -0.00000000000E+00 -0.39239658779E+03  0.39239658779E+03  0.00000000000E+00 0.  1.
         21    1    1    2  503  504 -0.27186488240E+01  0.35375247301E+02  0.95443909111E+02  0.10182504093E+03  0.00000000000E+00 0.  1.
         21    1    1    2  504  501  0.92274973203E+02 -0.62224767513E+02  0.26500591238E+02  0.11440661566E+03  0.00000000000E+00 0. -1.
         21    1    1    2  505  502 -0.34155365795E+03  0.80868447325E+02  0.18860999335E+03  0.39846246576E+03  0.00000000000E+00 0.  1.
          1    1    1    2  501    0  0.25199733357E+03 -0.54018927113E+02 -0.17123261922E+03  0.30942092770E+03  0.00000000000E+00 0.  1.
<scales pt_clust_3="35.47956" pt_clust_4="105.89469" pt_clust_5="359.04530" pt_clust_6="105.89469"></scales>
<clustering>
<clus scale="   35.480">  1  3  2 -1</clus>
<clus scale="  105.895">  4  6 -1 -1</clus>
<clus scale="  359.045">  1  5  2 -1</clus>
<clus scale="   35.480">  1  3  2 -1</clus>
</clustering>
</event>
<event>
 6    0  0.3584505E+002  0.1521690E+03  0.7546771E-02  0.1197833E+00
         21   -1    0    0  504  502  0.00000000000E+00  0.00000000000E+00  0.35026901924E+02  0.35026901924E+02  0.00000000000E+00 0. -1.
          2   -1    0    0  503    0 -0.00000000000E+00 -0.00000000000E+00 -0.36872529196E+04  0.36872529196E+04  0.00000000000E+00 0. -1.
         21    1    1    2  503  502 -0.70117155817E+02 -0.77095520269E+02 -0.91394169959E+03  0.91986388397E+03  0.00000000000E+00 0.  1.
         21    1    1    2  504  505  0.35847604014E+02 -0.38701296784E+02 -0.18496213299E+02  0.55901261101E+02  0.00000000000E+00 0. -1.
         21    1    1    2  505  501  0.11368502285E+03 -0.50630562726E+02 -0.38852853523E+03  0.40797323563E+03  0.00000000000E+00 0. -1.
          2    1    1    2  501    0 -0.79415471048E+02  0.16642737978E+03 -0.23312595695E+04  0.23385414408E+04  0.00000000000E+00 0. -1.
<scales pt_clust_3="105.46215" pt_clust_4="52.75264" pt_clust_5="14000.00000" pt_clust_6="152.16898"></scales>
<clustering>
<clus scale="   52.753">  1  4  2 -1</clus>
<clus scale="  105.462">  2  3  1 -1</clus>
<clus scale="  152.169">  2  6  1 -1</clus>
<clus scale="   52.753">  1  3  2 -1</clus>
</clustering>
</event>
<event>
 6    0  0.3584505E+002  0.1215706E+03  0.7546771E-02  0.1240528E+00
         -4   -1    0    0    0  501 -0.00000000000E+00  0.00000000000E+00  0.10060119870E+04  0.10060119870E+04  0.00000000000E+00 0.  1.
         21   -1    0    0  504  502  0.00000000000E+00 -0.00000000000E+00 -0.15332657970E+03  0.15332657970E+03  0.00000000000E+00 0. -1.
         21    1    1    2  503  505 -0.77559804628E+01  0.90335566651E+02  0.14393935182E+03  0.17011527514E+03  0.00000000000E+00 0.  1.
         21    1    1    2  504  501 -0.51434788848E+02 -0.15934872041E+03  0.20076125140E+03  0.26142423809E+03  0.00000000000E+00 0.  1.
         21    1    1    2  505  502  0.41650540028E+02  0.21069970790E+02 -0.10383983499E+03  0.11384824322E+03  0.00000000000E+00 0. -1.
         -4    1    1    2    0  503  0.17540229283E+02  0.47943182968E+02  0.61182463905E+03  0.61395081023E+03  0.00000000000E+00 0.  1.
<scales pt_clust_3="14000.00000" pt_clust_4="121.57060" pt_clust_5="46.67667" pt_clust_6="51.87153"></scales>
<clustering>
<clus scale="   46.677">  2  5  1 -1</clus>
<clus scale="   51.872">  1  6  2 -1</clus>
<clus scale="  121.571">  2  4  1 -1</clus>
<clus scale="   46.677">  2  3  1 -1</clus>
</clustering>
</event>
<event>
 6    0  0.3584505E+002  0.3694828E+03  0.7546771E-02  0.1054891E+00
          2   -1    0    0  503    0 -0.00000000000E+00  0.00000000000E+00  0.16440409685E+04  0.16440409685E+04  0.00000000000E+00 0.  1.
         21   -1    0    0  505  502  0.00000000000E+00 -0.00000000000E+00 -0.60491819137E+03  0.60491819137E+03  0.00000000000E+00 0.  1.
         21    1    1    2  503  502  0.36642838369E+02  0.78078837104E+01  0.27582780301E+02  0.46523869367E+02  0.00000000000E+00 0. -1.
         21    1    1    2  504  501  0.46224240505E+02 -0.33637524267E+03  0.10969206204E+04  0.11482681881E+04  0.00000000000E+00 0.  1.
         21    1    1    2  505  504 -0.10807639275E+03  0.35524208251E+03 -0.50839820964E+03  0.62956030960E+03  0.00000000000E+00 0.  1.
          2    1    1    2  501    0  0.25209313880E+02 -0.26674723558E+02  0.42301758604E+03  0.42460679279E+03  0.00000000000E+00 0.  1.
<scales pt_clust_3="38.05725" pt_clust_4="369.48277" pt_clust_5="14000.00000" pt_clust_6="36.70218"></scales>
<clustering>
<clus scale="   36.702">  1  6  2 -1</clus>
<clus scale="   38.057">  1  3  2 -1</clus>
<clus scale="  369.483">  1  4  2 -1</clus>
<clus scale="  369.483">  2  3  1 -1</clus>
</clustering>
</event>
<event>
 6    0  0.3584505E+002  0.8767732E+02  0.7546771E-02  0.1308576E+00
         -1   -1    0    0    0  501 -0.00000000000E+00  0.00000000000E+00  0.23754465048E+04  0.23754465048E+04  0.00000000000E+00 0.  1.
         21   -1    0    0  505  502  0.00000000000E+00 -0.00000000000E+00 -0.16255222759E+03  0.16255222759E+03  0.00000000000E+00 0. -1.
         21    1    1    2  503  501 -0.11058949796E+02 -0.53182448938E+02  0.62979756213E+02  0.83169242742E+02  0.00000000000E+00 0.  1.
         21    1    1    2  504  503  0.11215985659E+03  0.53307166359E+02 -0.51487051713E+01  0.12428996975E+03  0.00000000000E+00 0. -1.
         21    1    1    2  505  504 -0.74180956906E+02 -0.22310516995E+02 -0.70476819555E+02  0.10472609814E+03  0.00000000000E+00 0.  1.
         -1    1    1    2    0  502 -0.26919949891E+02  0.22185799575E+02  0.22255400457E+04  0.22258134217E+04  0.00000000000E+00 0.  1.
<scales pt_clust_3="48.78015" pt_clust_4="14000.00000" pt_clust_5="87.67732" pt_clust_6="34.88400"></scales>
<clustering>
<clus scale="   34.884">  1  6  2 -1</clus>
<clus scale="   48.780">  1  3  2 -1</clus>
<clus scale="   87.677">  2  5  1 -1</clus>
<clus scale="   87.677">  2  3  1 -1</clus>
</clustering>
</event>
<event>
 6    0  0.4029083E+002  0.1453438E+03  0.7546771E-02  0.1206314E+00
         21   -1    0    0  504  502  0.00000000000E+00  0.00000000000E+00  0.94061158182E+03  0.94061158182E+03  0.00000000000E+00 0. -1.
          2   -1    0    0  503    0 -0.00000000000E+00 -0.00000000000E+00 -0.34894353838E+04  0.34894353838E+04  0.00000000000E+00 0. -1.
         21    1    1    2  503  505 -0.63849687338E+01 -0.52387577574E+02 -0.37508066443E+02  0.64746282968E+02  0.00000000000E+00 0. -1.
         21    1    1    2  504  501 -0.11039339764E+03  0.10300933323E+02 -0.12943307175E+04  0.12990707517E+04  0.00000000000E+00 0. -1.
         21    1    1    2  505  502  0.14547121197E+03  0.28480987606E+01  0.91862021297E+03  0.93007154609E+03  0.00000000000E+00 0. -1.
          2    1    1    2  501    0 -0.28692845594E+02  0.39238545490E+02 -0.21356052310E+04  0.21361583849E+04  0.00000000000E+00 0. -1.
<scales pt_clust_3="51.45042" pt_clust_4="145.34379" pt_clust_5="14000.00000" pt_clust_6="48.61011"></scales>
<clustering>
<clus scale="   48.610">  2  6  1 -1</clus>
<clus scale="   51.450">  2  3  1 -1</clus>
<clus scale="  145.344">  2  4  1 -1</clus>
<clus scale="  145.344">  1  3  2 -1</clus>
</clustering>
</event>
<event>
 6    0  0.3584505E+002  0.8218429E+02  0.7546771E-02  0.1322965E+00
          1   -1    0    0  503    0 -0.00000000000E+00  0.00000000000E+00  0.28986013827E+04  0.28986013827E+04  0.00000000000E+00 0.  1.
         21   -1    0    0  504  502  0.00000000000E+00 -0.00000000000E+00 -0.15832698857E+03  0.15832698857E+03  0.00000000000E+00 0. -1.
         21    1    1    2  503  505 -0.18102388025E+01  0.76746124879E+02  0.14403909668E+04  0.14424352262E+04  0.00000000000E+00 0.  1.
         21    1    1    2  504  501 -0.10884364551E+03 -0.41643886267E+01 -0.12272323007E+03  0.16408922115E+03  0.00000000000E+00 0. -1.
         21    1    1    2  505  502  0.35814550117E+02 -0.36343652068E+02  0.38800149477E+02  0.64101440273E+02  0.00000000000E+00 0.  1.
          1    1    1    2  501    0  0.74839334197E+02 -0.36238084184E+02  0.13838065079E+04  0.13863024836E+04  0.00000000000E+00 0.  1.
<scales pt_clust_3="76.50701" pt_clust_4="82.18429" pt_clust_5="51.02493" pt_clust_6="14000.00000"></scales>
<clustering>
<clus scale="   51.025">  2  5  1 -1</clus>
<clus scale="   76.507">  1  3  2 -1</clus>
<clus scale="   82.184">  2  4  1 -1</clus>
<clus scale="   51.025">  2  3  1 -1</clus>
</clustering>
</event>
<event>
 6    0  0.3584505E+002  0.9744758E+02  0.7546771E-02  0.1285757E+00
         21   -1    0    0  501  502  0.00000000000E+00  0.00000000000E+00  0.61042488542E+03  0.61042488542E+03  0.00000000000E+00 0. -1.
          2   -1    0    0  504    0 -0.00000000000E+00 -0.00000000000E+00 -0.60037432183E+03  0.60037432183E+03  0.00000000000E+00 0.  1.
         21    1    1    2  503  502  0.13758549232E+01 -0.10158474397E+03  0.57261760808E+03  0.58156021035E+03  0.00000000000E+00 0. -1.
         21    1    1    2  504  505 -0.41675809002E+02  0.15666600644E+02 -0.72742090923E+02  0.85286149072E+02  0.00000000000E+00 0.  1.
         21    1    1    2  505  503  0.58371421081E+00  0.62531225224E+02 -0.11709302825E+02  0.63620771945E+02  0.00000000000E+00 0.  1.
          2    1    1    2  501    0  0.39716239868E+02  0.23386918102E+02 -0.47811565073E+03  0.48033207588E+03  0.00000000000E+00 0.  1.
<scales pt_clust_3="97.44758" pt_clust_4="44.52320" pt_clust_5="14000.00000" pt_clust_6="37.81359"></scales>
<clustering>
<clus scale="   44.523">  2  4  1 -1</clus>
<clus scale="   37.814">  2  6  1 -1</clus>
<clus scale="   97.448">  1  3  2 -1</clus>
<clus scale="   97.448">  1  3  2 -1</clus>
</clustering>
</event>
<event>
 6    0  0.3584505E+002  0.3073022E+03  0.7546771E-02  0.1081646E+00
         21   -1    0    0  504  502  0.00000000000E+00  0.00000000000E+00  0.63785874445E+03  0.63785874445E+03  0.00000000000E+00 0.  1.
          2   -1    0    0  505    0 -0.00000000000E+00 -0.00000000000E+00 -0.70474627679E+03  0.70474627679E+03  0.00000000000E+00 0.  1.
         21    1    1    2  503  501 -0.85556914927E+02  0.72358320071E+02 -0.78491692537E+02  0.13680883733E+03  0.00000000000E+00 0.  1.
         21    1    1    2  504  503 -0.10341208968E+03  0.17991613056E+03 -0.17976112783E+03  0.27455042780E+03  0.00000000000E+00 0.  1.
         21    1    1    2  505  502  0.15826642827E+03 -0.25562650777E+03  0.52026987212E+03  0.60089426160E+03  0.00000000000E+00 0.  1.
          2    1    1    2  501    0  0.30702576336E+02  0.33520571383E+01 -0.32890458410E+03  0.33035149451E+03  0.00000000000E+00 0.  1.
<scales pt_clust_3="40.94152" pt_clust_4="40.94152" pt_clust_5="302.10000" pt_clust_6="30.88502"></scales>
<clustering>
<clus scale="   30.885">  2  6  1 -1</clus>
<clus scale="   40.942">  3  4 -1 -1</clus>
<clus scale="  302.100">  1  5  2 -1</clus>
<clus scale="  302.100">  1  3  2 -1</clus>
</clustering>
</event>
<event>
 6    0  0.4283367E+002  0.1091953E+03  0.7546771E-02  0.1262067E+00
         21   -1    0    0  504  502  0.00000000000E+00  0.00000000000E+00  0.18607636623E+03  0.18607636623E+03  0.00000000000E+00 0. -1.
          2   -1    0    0  503    0 -0.00000000000E+00 -0.00000000000E+00 -0.13538849267E+04  0.13538849267E+04  0.00000000000E+00 0.  1.
         21    1    1    2  503  502  0.96045795879E+02  0.31555799347E+02  0.13559054311E+03  0.16913118801E+03  0.00000000000E+00 0. -1.
         21    1    1    2  504  505  0.31139006511E+02 -0.33051776139E+02 -0.62040999425E+01  0.45831741060E+02  0.00000000000E+00 0. -1.
         21    1    1    2  505  501 -0.76729499651E+02 -0.84700023418E+01 -0.98240966894E+02  0.12494176497E+03  0.00000000000E+00 0.  1.
          2    1    1    2  501    0 -0.50455302740E+02  0.99659791343E+01 -0.11989540367E+04  0.12000565988E+04  0.00000000000E+00 0.  1.
<scales pt_clust_3="14000.00000" pt_clust_4="45.40988" pt_clust_5="109.19527" pt_clust_6="51.30768"></scales>
<clustering>
<clus scale="   45.410">  1  4  2 -1</clus>
<clus scale="   51.308">  2  6  1 -1</clus>
<clus scale="  109.195">  2  5  1 -1</clus>
<clus scale="   45.410">  1  3  2 -1</clus>
</clustering>
</event>
<event>
 6    0  0.3584505E+002  0.1978085E+03  0.7546771E-02  0.1151601E+00
          2   -1    0    0  503    0 -0.00000000000E+00  0.00000000000E+00  0.31734958487E+04  0.31734958487E+04  0.00000000000E+00 0. -1.
         21   -1    0    0  504  502  0.00000000000E+00 -0.00000000000E+00 -0.18465604136E+04  0.18465604136E+04  0.00000000000E+00 0.  1.
         21    1    1    2  503  502 -0.77619666267E+02  0.20440800521E+03 -0.16297132116E+04  0.16443152366E+04  0.00000000000E+00 0.  1.
         21    1    1    2  504  505  0.27372377270E+02 -0.13736478163E+02 -0.11275820797E+03  0.11684327681E+03  0.00000000000E+00 0.  1.
         21    1    1    2  505  501  0.15571279000E+03 -0.15174277195E+03  0.32414106109E+02  0.21982496692E+03  0.00000000000E+00 0.  1.
          2    1    1    2  501    0 -0.10546550100E+03 -0.38928755095E+02  0.30369927485E+04  0.30390727820E+04  0.00000000000E+00 0. -1.
<scales pt_clust_3="197.80845" pt_clust_4="30.62577" pt_clust_5="14000.00000" pt_clust_6="112.40816"></scales>
<clustering>
<clus scale="   30.626">  2  4  1 -1</clus>
<clus scale="  112.408">  1  6  2 -1</clus>
<clus scale="  197.808">  2  3  1 -1</clus>
<clus scale="   30.626">  2  3  1 -1</clus>
</clustering>
</event>
<event>
 6    0  0.3584505E+002  0.9064924E+02  0.7546771E-02  0.1301287E+00
          1   -1    0    0  504    0 -0.00000000000E+00  0.00000000000E+00  0.16643313040E+04  0.16643313040E+04  0.00000000000E+00 0.  1.
         21   -1    0    0  505  502  0.00000000000E+00 -0.00000000000E+00 -0.27533225786E+02  0.27533225786E+02  0.00000000000E+00 0.  1.
         21    1    1    2  503  502  0.41131528909E+02  0.17843198703E+02  0.48994653923E+02  0.66412788855E+02  0.00000000000E+00 0.  1.
         21    1    1    2  504  503  0.12608560888E+03 -0.15971257168E+02  0.47911080783E+03  0.49568117576E+03  0.00000000000E+00 0.  1.
         21    1    1    2  505  501 -0.84839780972E+02 -0.61765282894E+01  0.19995798629E+03  0.21729964156E+03  0.00000000000E+00 0.  1.
          1    1    1    2  501    0 -0.82377356819E+02  0.43045867547E+01  0.90873463013E+03  0.91247092358E+03  0.00000000000E+00 0.  1.
<scales pt_clust_3="44.83506" pt_clust_4="90.64924" pt_clust_5="65.92533" pt_clust_6="14000.00000"></scales>
<clustering>
<clus scale="   44.835">  2  3  1 -1</clus>
<clus scale="   65.925">  2  5  1 -1</clus>
<clus scale="   90.649">  2  4  1 -1</clus>
<clus scale="   44.835">  2  3  1 -1</clus>
</clustering>
</event>
<event>
 6    0  0.3584505E+002  0.6752888E+02  0.7546771E-02  0.1368704E+00
          2   -1    0    0  504    0 -0.00000000000E+00  0.00000000000E+00  0.42597530313E+04  0.42597530313E+04  0.00000000000E+00 0. -1.
         21   -1    0    0  505  502  0.00000000000E+00 -0.00000000000E+00 -0.18655608167E+02  0.18655608167E+02  0.00000000000E+00 0.  1.
         21    1    1    2  503  501  0.50182430348E+02 -0.37354556503E+02  0.10372736909E+04  0.10391584812E+04  0.00000000000E+00 0.  1.
         21    1    1    2  504  502  0.14925694660E+02 -0.42362140751E+02  0.80304694623E+02  0.92011799833E+02  0.00000000000E+00 0.  1.
         21    1    1    2  505  503 -0.83757270540E+02  0.22960309808E+02  0.15156354757E+03  0.17468246949E+03  0.00000000000E+00 0.  1.
          2    1    1    2  501    0  0.18649145532E+02  0.56756387446E+02  0.29719554901E+04  0.29725558890E+04  0.00000000000E+00 0. -1.
<scales pt_clust_3="14000.00000" pt_clust_4="44.91467" pt_clust_5="67.52888" pt_clust_6="58.91080"></scales>
<clustering>
<clus scale="   44.915">  2  4  1 -1</clus>
<clus scale="   58.911">  1  6  2 -1</clus>
<clus scale="   67.529">  2  5  1 -1</clus>
<clus scale="   44.915">  2  3  1 -1</clus>
</clustering>
</event>
<event>
 6    0  0.3584505E+002  0.2125482E+03  0.7546771E-02  0.1139564E+00
         21   -1    0    0  501  502  0.00000000000E+00  0.00000000000E+00  0.27846642728E+03  0.27846642728E+03  0.00000000000E+00 0.  1.
         -2   -1    0    0    0  501 -0.00000000000E+00 -0.00000000000E+00 -0.17600295813E+04  0.17600295813E+04  0.00000000000E+00 0.  1.
         21    1    1    2  503  504  0.13162256221E+03 -0.21447228894E+03 -0.14682287691E+03  0.29134141276E+03  0.00000000000E+00 0.  1.
         21    1    1    2  504  505  0.42192536532E+02  0.13902686635E+03  0.62150797892E+02  0.15802342037E+03  0.00000000000E+00 0.  1.
         21    1    1    2  505  502 -0.75669599402E+01  0.50943999469E+02  0.84110621853E+02  0.98626298081E+02  0.00000000000E+00 0.  1.
         -2    1    1    2    0  503 -0.16624813881E+03  0.24501423119E+02 -0.14810016968E+04  0.14905048773E+04  0.00000000000E+00 0.  1.
<scales pt_clust_3="194.90494" pt_clust_4="50.48115" pt_clust_5="50.48115" pt_clust_6="168.04393"></scales>
<clustering>
<clus scale="   50.481">  4  5 -1 -1</clus>
<clus scale="  168.044">  2  6  1 -1</clus>
<clus scale="  194.905">  2  3  1 -1</clus>
<clus scale="  212.548">  1  3  2 -1</clus>
</clustering>
</event>
<event>
 6    0  0.3584505E+002  0.1096985E+03  0.7546771E-02  0.1261129E+00
         -1   -1    0    0    0  501 -0.00000000000E+00  0.00000000000E+00  0.20202789749E+04  0.20202789749E+04  0.00000000000E+00 0. -1.
         21   -1    0    0  504  502  0.00000000000E+00 -0.00000000000E+00 -0.22730714036E+03  0.22730714036E+03  0.00000000000E+00 0. -1.
         21    1    1    2  503  501  0.16791221217E+03  0.10379001474E+02  0.16410942958E+03  0.23501944504E+03  0.00000000000E+00 0. -1.
         21    1    1    2  504  505 -0.52186943274E+02  0.73839062218E+01 -0.12291440945E+03  0.13373836835E+03  0.00000000000E+00 0. -1.
         21    1    1    2  505  503 -0.55719478849E+02 -0.50154457444E+02 -0.40531793447E+02  0.85222979323E+02  0.00000000000E+00 0. -1.
         -1    1    1    2    0  502 -0.60005790044E+02  0.32391549748E+02  0.17923086079E+04  0.17936053226E+04  0.00000000000E+00 0. -1.
<scales pt_clust_3="109.69854" pt_clust_4="52.70673" pt_clust_5="14000.00000" pt_clust_6="68.51412"></scales>
<clustering>
<clus scale="   52.707">  2  4  1 -1</clus>
<clus scale="   68.514">  1  6  2 -1</clus>
<clus scale="  109.699">  1  3  2 -1</clus>
<clus scale="   52.707">  2  3  1 -1</clus>
</clustering>
</event>
<event>
 6    0  0.3584505E+002  0.7753616E+02  0.7546771E-02  0.1336193E+00
         21   -1    0    0  505  502  0.00000000000E+00  0.00000000000E+00  0.82430042773E+03  0.82430042773E+03  0.00000000000E+00 0.  1.
          2   -1    0    0  504    0 -0.00000000000E+00 -0.00000000000E+00 -0.13028877529E+04  0.13028877529E+04  0.00000000000E+00 0. -1.
         21    1    1    2  503  501 -0.35376338903E+02 -0.47057736374E+02  0.39846956234E+03  0.40279511916E+03  0.00000000000E+00 0.  1.
         21    1    1    2  504  502  0.93677052658E+02  0.45803351417E+02  0.57621513765E+02  0.11913679551E+03  0.00000000000E+00 0.  1.
         21    1    1    2  505  503  0.89887382872E+01  0.39061551940E+02  0.33291297129E+03  0.33531723592E+03  0.00000000000E+00 0.  1.
          2    1    1    2  501    0 -0.67289452042E+02 -0.37807166983E+02 -0.12675913726E+04  0.12699390301E+04  0.00000000000E+00 0. -1.
<scales pt_clust_3="31.85370" pt_clust_4="77.53616" pt_clust_5="40.08244" pt_clust_6="14000.00000"></scales>
<clustering>
<clus scale="   40.082">  1  5  2 -1</clus>
<clus scale="   31.854">  1  3  2 -1</clus>
<clus scale="   77.536">  1  4  2 -1</clus>
<clus scale="   40.082">  1  3  2 -1</clus>
</clustering>
</event>
<event>
 6    0  0.3584505E+002  0.7956657E+02  0.7546771E-02  0.1330286E+00
          2   -1    0    0  504    0 -0.00000000000E+00  0.00000000000E+00  0.21164783964E+04  0.21164783964E+04  0.00000000000E+00 0. -1.
         21   -1    0    0  505  502  0.00000000000E+00 -0.00000000000E+00 -0.47483192604E+02  0.47483192604E+02  0.00000000000E+00 0. -1.
         21    1    1    2  503  501 -0.79303856078E+02 -0.35178866993E+02  0.12356700770E+03  0.15098165340E+03  0.00000000000E+00 0. -1.
         21    1    1    2  504  502  0.54536778877E+02  0.52973708789E+02  0.35405040149E+03  0.36212174868E+03  0.00000000000E+00 0.  1.
         21    1    1    2  505  503 -0.84078482580E+01  0.38096721938E+02 -0.15999923558E+02  0.42166926478E+02  0.00000000000E+00 0. -1.
          2    1    1    2  501    0  0.33174925458E+02 -0.55891563734E+02  0.16073777182E+04  0.16086912605E+04  0.00000000000E+00 0. -1.
<scales pt_clust_3="14000.00000" pt_clust_4="79.56657" pt_clust_5="39.01349" pt_clust_6="63.67465"></scales>
<clustering>
<clus scale="   39.013">  2  5  1 -1</clus>
<clus scale="   63.675">  1  6  2 -1</clus>
<clus scale="   79.567">  1  4  2 -1</clus>
<clus scale="   39.013">  2  3  1 -1</clus>
</clustering>
</event>
<event>
 6    0  0.3584505E+002  0.7738598E+02  0.7546771E-02  0.1336638E+00
          2   -1    0    0  503    0 -0.00000000000E+00  0.00000000000E+00  0.48599962907E+03  0.48599962907E+03  0.00000000000E+00 0. -1.
         21   -1    0    0  505  502  0.00000000000E+00 -0.00000000000E+00 -0.46018536293E+03  0.46018536293E+03  0.00000000000E+00 0. -1.
         21    1    1    2  503  502 -0.81607295271E+02 -0.37823650625E+01 -0.31544433338E+03  0.32585147596E+03  0.00000000000E+00 0. -1.
         21    1    1    2  504  501  0.62497658401E+02  0.28279947053E+01 -0.14705864535E+02  0.64266766773E+02  0.00000000000E+00 0. -1.
         21    1    1    2  505  504  0.65327251729E+02 -0.33206704332E+02 -0.84510233504E+02  0.11185845787E+03  0.00000000000E+00 0. -1.
          2    1    1    2  501    0 -0.46217614860E+02  0.34161074689E+02  0.44047469756E+03  0.44420829139E+03  0.00000000000E+00 0. -1.
<scales pt_clust_3="77.38598" pt_clust_4="42.52934" pt_clust_5="14000.00000" pt_clust_6="57.47214"></scales>
<clustering>
<clus scale="   57.472">  1  6  2 -1</clus>
<clus scale="   42.529">  1  4  2 -1</clus>
<clus scale="   77.386">  2  3  1 -1</clus>
<clus scale="   77.386">  2  3  1 -1</clus>
</clustering>
</event>
<event>
 6    0  0.3584505E+002  0.8660644E+02  0.7546771E-02  0.1311284E+00
          2   -1    0    0  503    0 -0.00000000000E+00  0.00000000000E+00  0.96704215258E+03  0.96704215258E+03  0.00000000000E+00 0.  1.
         21   -1    0    0  505  502  0.00000000000E+00 -0.00000000000E+00 -0.11506600000E+03  0.11506600000E+03  0.00000000000E+00 0.  1.
         21    1    1    2  503  504 -0.12377896092E+03 -0.13523622015E+02  0.69615278503E+03  0.70720069261E+03  0.00000000000E+00 0.  1.
         21    1    1    2  504  502  0.55807755640E+02  0.48950961089E+01 -0.21129102067E+02  0.59874088800E+02  0.00000000000E+00 0.  1.
         21    1    1    2  505  501  0.33039850995E+02 -0.10855880102E+02 -0.62897087507E+02  0.71871590378E+02  0.00000000000E+00 0.  1.
          2    1    1    2  501    0  0.34931354284E+02  0.19484406008E+02  0.23984955712E+03  0.24316178080E+03  0.00000000000E+00 0.  1.
<scales pt_clust_3="14000.00000" pt_clust_4="86.60644" pt_clust_5="34.77761" pt_clust_6="40.82621"></scales>
<clustering>
<clus scale="   34.778">  2  5  1 -1</clus>
<clus scale="   40.826">  1  6  2 -1</clus>
<clus scale="   86.606">  2  4  1 -1</clus>
<clus scale="   34.778">  2  3  1 -1</clus>
</clustering>
</event>
<event>
 6    0  0.3584505E+002  0.6992071E+02  0.7546771E-02  0.1360363E+00
         21   -1    0    0  505  502  0.00000000000E+00  0.00000000000E+00  0.55971021464E+02  0.55971021464E+02  0.00000000000E+00 0. -1.
          1   -1    0    0  504    0 -0.00000000000E+00 -0.00000000000E+00 -0.18619323022E+04  0.18619323022E+04  0.00000000000E+00 0. -1.
         21    1    1    2  503  502 -0.68444754129E+02 -0.18369427443E+02  0.16305928208E+02  0.72718660102E+02  0.00000000000E+00 0. -1.
         21    1    1    2  504  503  0.53659685355E+02  0.63586776688E+01 -0.16464218412E+03  0.17328255366E+03  0.00000000000E+00 0.  1.
         21    1    1    2  505  501  0.39061866146E+02 -0.51809011928E+02 -0.15909705961E+03  0.17181931638E+03  0.00000000000E+00 0.  1.
          1    1    1    2  501    0 -0.24276797373E+02  0.63819761702E+02 -0.14985279652E+04  0.15000827935E+04  0.00000000000E+00 0. -1.
<scales pt_clust_3="69.92071" pt_clust_4="54.03512" pt_clust_5="67.69935" pt_clust_6="14000.00000"></scales>
<clustering>
<clus scale="   54.035">  2  4  1 -1</clus>
<clus scale="   67.699">  1  5  2 -1</clus>
<clus scale="   69.921">  1  3  2 -1</clus>
<clus scale="   67.699">  1  3  2 -1</clus>
</clustering>
</event>
<event>
 6    0  0.3584505E+002  0.1941804E+03  0.7546771E-02  0.1154744E+00
         21   -1    0    0  503  502  0.00000000000E+00  0.00000000000E+00  0.17202172328E+03  0.17202172328E+03  0.00000000000E+00 0. -1.
          2   -1    0    0  504    0 -0.00000000000E+00 -0.00000000000E+00 -0.95230851060E+03  0.95230851060E+03  0.00000000000E+00 0.  1.
         21    1    1    2  503  501 -0.60511253946E+01 -0.36885041916E+02 -0.34305740511E+02  0.50734665345E+02  0.00000000000E+00 0. -1.
         21    1    1    2  504  505  0.10530538224E+02  0.44498851949E+02 -0.12355374572E+02  0.47367661340E+02  0.00000000000E+00 0.  1.
         21    1    1    2  505  502  0.62294944040E+02  0.15940156577E+03  0.82873567461E+02  0.19015138024E+03  0.00000000000E+00 0. -1.
          2    1    1    2  501    0 -0.66774356870E+02 -0.16701537580E+03 -0.81649923970E+03  0.83607652695E+03  0.00000000000E+00 0.  1.
<scales pt_clust_3="37.37810" pt_clust_4="34.91917" pt_clust_5="34.91917" pt_clust_6="182.05077"></scales>
<clustering>
<clus scale="   34.919">  4  5 -1 -1</clus>
<clus scale="   37.378">  1  3  2 -1</clus>
<clus scale="  182.051">  2  6  1 -1</clus>
<clus scale="   37.378">  1  3  2 -1</clus>
</clustering>
</event>
<event>
 6    0  0.3584505E+002  0.1150643E+03  0.7546771E-02  0.1251469E+00
         21   -1    0    0  504  502  0.00000000000E+00  0.00000000000E+00  0.11291934747E+03  0.11291934747E+03  0.00000000000E+00 0. -1.
         -1   -1    0    0    0  501 -0.00000000000E+00 -0.00000000000E+00 -0.17286891842E+04  0.17286891842E+04  0.00000000000E+00 0.  1.
         21    1    1    2  503  502 -0.96812279781E+02 -0.63700547504E+02  0.62303251244E+02  0.13157534870E+03  0.00000000000E+00 0. -1.
         21    1    1    2  504  505  0.56721002613E+02  0.39535413966E+01 -0.80876233197E+02  0.98862873330E+02  0.00000000000E+00 0.  1.
         21    1    1    2  505  501 -0.10134997535E+02 -0.47705675469E+02 -0.10561117262E+04  0.10572372145E+04  0.00000000000E+00 0.  1.
         -1    1    1    2    0  503  0.50226274703E+02  0.10745268158E+03 -0.54108512861E+03  0.55393309510E+03  0.00000000000E+00 0.  1.
<scales pt_clust_3="14000.00000" pt_clust_4="55.41877" pt_clust_5="48.77038" pt_clust_6="115.06433"></scales>
<clustering>
<clus scale="   48.770">  2  5  1 -1</clus>
<clus scale="   55.419">  2  4  1 -1</clus>
<clus scale="  115.064">  2  6  1 -1</clus>
<clus scale="  115.064">  1  3  2 -1</clus>
</clustering>
</event>
<event>
 6    0  0.3584505E+002  0.1000576E+03  0.7546771E-02  0.1280175E+00
         -1   -1    0    0    0  501 -0.00000000000E+00  0.00000000000E+00  0.17784321954E+04  0.17784321954E+04  0.00000000000E+00 0.  1.
         21   -1    0    0  504  502  0.00000000000E+00 -0.00000000000E+00 -0.30654343611E+02  0.30654343611E+02  0.00000000000E+00 0.  1.
         21    1    1    2  503  502 -0.20672184734E+02 -0.25311111755E+02 -0.55415251420E+01  0.33146645394E+02  0.00000000000E+00 0.  1.
         21    1    1    2  504  505  0.42092974012E+02 -0.10136827925E+02  0.88478905906E+02  0.98504266567E+02  0.00000000000E+00 0.  1.
         21    1    1    2  505  501  0.45421732349E+02  0.99591816023E+02  0.10437561973E+04  0.10494801871E+04  0.00000000000E+00 0.  1.
         -1    1    1    2    0  503 -0.66842521626E+02 -0.64143876342E+02  0.62108427366E+03  0.62795543995E+03  0.00000000000E+00 0.  1.
<scales pt_clust_3="32.68014" pt_clust_4="39.24894" pt_clust_5="14000.00000" pt_clust_6="100.05760"></scales>
<clustering>
<clus scale="   32.680">  2  3  1 -1</clus>
<clus scale="   39.249">  2  4  1 -1</clus>
<clus scale="  100.058">  2  6  1 -1</clus>
<clus scale="   32.680">  2  3  1 -1</clus>
</clustering>
</event>
<event>
 6    0  0.3584505E+002  0.1870971E+03  0.7546771E-02  0.1161106E+00
          2   -1    0    0  504    0 -0.00000000000E+00  0.00000000000E+00  0.23133236026E+04  0.23133236026E+04  0.00000000000E+00 0.  1.
         21   -1    0    0  503  502  0.00000000000E+00 -0.00000000000E+00 -0.31222138461E+03  0.31222138461E+03  0.00000000000E+00 0.  1.
         21    1    1    2  503  501  0.17466253794E+03  0.50646065661E+02 -0.16265796020E+03  0.24398696306E+03  0.00000000000E+00 0.  1.
         21    1    1    2  504  505 -0.38920188366E+02  0.54904204565E+02  0.83422896007E+03  0.83693919167E+03  0.00000000000E+00 0. -1.
         21    1    1    2  505  502 -0.15357046804E+03 -0.16429611454E+03  0.11530316973E+02  0.22518892095E+03  0.00000000000E+00 0.  1.
          2    1    1    2  501    0  0.17828118463E+02  0.58745844318E+02  0.13180009012E+04  0.13194299116E+04  0.00000000000E+00 0.  1.
<scales pt_clust_3="14000.00000" pt_clust_4="106.97126" pt_clust_5="187.09715" pt_clust_6="61.39150"></scales>
<clustering>
<clus scale="   61.391">  1  6  2 -1</clus>
<clus scale="  106.971">  1  4  2 -1</clus>
<clus scale="  187.097">  1  5  2 -1</clus>
<clus scale="  187.097">  2  3  1 -1</clus>
</clustering>
</event>
<event>
 6    0  0.3584505E+002  0.7279734E+02  0.7546771E-02  0.1350831E+00
          1   -1    0    0  505    0 -0.00000000000E+00  0.00000000000E+00  0.14972346353E+04  0.14972346353E+04  0.00000000000E+00 0.  1.
         21   -1    0    0  504  502  0.00000000000E+00 -0.00000000000E+00 -0.24153960492E+03  0.24153960492E+03  0.00000000000E+00 0. -1.
         21    1    1    2  503  502 -0.64034576240E+02 -0.24017051897E+02 -0.16686379822E+03  0.18033516821E+03  0.00000000000E+00 0. -1.
         21    1    1    2  504  501  0.84629078678E+02  0.86125928570E+02 -0.30419243127E+01  0.12078497354E+03  0.00000000000E+00 0.  1.
         21    1    1    2  505  503  0.20317255104E+02 -0.55570138802E+02  0.14810137638E+03  0.15948306765E+03  0.00000000000E+00 0.  1.
          1    1    1    2  501    0 -0.40911757542E+02 -0.65387378711E+01  0.12774993766E+04  0.12781710309E+04  0.00000000000E+00 0.  1.
<scales pt_clust_3="72.79734" pt_clust_4="14000.00000" pt_clust_5="60.73183" pt_clust_6="41.43099"></scales>
<clustering>
<clus scale="   41.431">  1  6  2 -1</clus>
<clus scale="   60.732">  1  5  2 -1</clus>
<clus scale="   72.797">  2  3  1 -1</clus>
<clus scale="   72.797">  2  3  1 -1</clus>
</clustering>
</event>
<event>
 6    0  0.3584505E+002  0.9333097E+02  0.7546771E-02  0.1294980E+00
         21   -1    0    0  504  502  0.00000000000E+00  0.00000000000E+00  0.14105348001E+03  0.14105348001E+03  0.00000000000E+00 0.  1.
          2   -1    0    0  505    0 -0.00000000000E+00 -0.00000000000E+00 -0.84274362837E+03  0.84274362837E+03  0.00000000000E+00 0. -1.
         21    1    1    2  503  501  0.66457858711E+02 -0.17307579298E+02 -0.22354717155E+01  0.68710964332E+02  0.00000000000E+00 0. -1.
         21    1    1    2  504  503 -0.10092301404E+02  0.47392378666E+02 -0.16354785736E+02  0.51140699249E+02  0.00000000000E+00 0. -1.
         21    1    1    2  505  502  0.14928032350E+02 -0.94857227309E+02  0.60918272530E+02  0.11371796538E+03  0.00000000000E+00 0.  1.
          2    1    1    2  501    0 -0.71293589657E+02  0.64772427942E+02 -0.74401816344E+03  0.75022747942E+03  0.00000000000E+00 0. -1.
<scales pt_clust_3="93.33097" pt_clust_4="48.45505" pt_clust_5="61.88666" pt_clust_6="14000.00000"></scales>
<clustering>
<clus scale="   48.455">  1  4  2 -1</clus>
<clus scale="   61.887">  1  5  2 -1</clus>
<clus scale="   93.331">  1  3  2 -1</clus>
<clus scale="   48.455">  1  3  2 -1</clus>
</clustering>
</event>
<event>
 6    0  0.3584505E+002  0.9132903E+02  0.7546771E-02  0.1299665E+00
         -1   -1    0    0    0  501 -0.00000000000E+00  0.00000000000E+00  0.24611687261E+02  0.24611687261E+02  0.00000000000E+00 0.  1.
         21   -1    0    0  504  502  0.00000000000E+00 -0.00000000000E+00 -0.14402640421E+04  0.14402640421E+04  0.00000000000E+00 0.  1.
         21    1    1    2  503  505  0.35696859048E+02 -0.13485049481E+03 -0.44113129585E+03  0.46266158461E+03  0.00000000000E+00 0.  1.
         21    1    1    2  504  501 -0.38143248410E+02  0.53044430985E+02 -0.42262416062E+03  0.42764447874E+03  0.00000000000E+00 0.  1.
         21    1    1    2  505  502  0.27916650357E+02  0.38408036353E+02 -0.50011944391E+03  0.50236836564E+03  0.00000000000E+00 0.  1.
         -1    1    1    2    0  503 -0.25470260995E+02  0.43398027475E+02 -0.51777454455E+02  0.72201300360E+02  0.00000000000E+00 0.  1.
<scales pt_clust_3="91.32903" pt_clust_4="14000.00000" pt_clust_5="47.48175" pt_clust_6="51.65405"></scales>
<clustering>
<clus scale="   47.482">  2  5  1 -1</clus>
<clus scale="   51.654">  1  6  2 -1</clus>
<clus scale="   91.329">  1  3  2 -1</clus>
<clus scale="   47.482">  2  3  1 -1</clus>
</clustering>
</event>
<event>
 6    0  0.3584505E+002  0.1137726E+03  0.7546771E-02  0.1253739E+00
          2   -1    0    0  504    0 -0.00000000000E+00  0.00000000000E+00  0.69545981013E+03  0.69545981013E+03  0.00000000000E+00 0. -1.
         21   -1    0    0  503  502  0.00000000000E+00 -0.00000000000E+00 -0.61426403294E+03  0.61426403294E+03  0.00000000000E+00 0.  1.
         21    1    1    2  503  501 -0.17705685436E+02  0.12635797108E+03 -0.41882563211E+03  0.43782957674E+03  0.00000000000E+00 0.  1.
         21    1    1    2  504  505  0.59719193488E+02 -0.57633319517E+02  0.17479182250E+03  0.19349460665E+03  0.00000000000E+00 0.  1.
         21    1    1    2  505  502 -0.46797698266E+02 -0.29642775615E+02 -0.17144213610E+03  0.18016971093E+03  0.00000000000E+00 0.  1.
          2    1    1    2  501    0  0.47841902142E+01 -0.39081875947E+02  0.49667172289E+03  0.49822994874E+03  0.00000000000E+00 0. -1.
<scales pt_clust_3="113.77261" pt_clust_4="14000.00000" pt_clust_5="55.77334" pt_clust_6="39.37361"></scales>
<clustering>
<clus scale="   39.374">  1  6  2 -1</clus>
<clus scale="   55.773">  2  5  1 -1</clus>
<clus scale="  113.773">  2  3  1 -1</clus>
<clus scale="   55.773">  2  3  1 -1</clus>
</clustering>
</event>
<event>
 6    0  0.3584505E+002  0.1964454E+03  0.7546771E-02  0.1152773E+00
          2   -1    0    0  503    0 -0.00000000000E+00  0.00000000000E+00  0.13824299080E+04  0.13824299080E+04  0.00000000000E+00 0.  1.
         21   -1    0    0  504  502  0.00000000000E+00 -0.00000000000E+00 -0.11466168137E+04  0.11466168137E+04  0.00000000000E+00 0.  1.
         21    1    1    2  503  505 -0.19112461715E+03 -0.91975616408E+02  0.10223844887E+03  0.23545877287E+03  0.00000000000E+00 0. -1.
         21    1    1    2  504  501  0.15295135548E+03  0.24385495099E+02  0.28929905038E+03  0.32815043816E+03  0.00000000000E+00 0. -1.
         21    1    1    2  505  502 -0.23474044352E+02 -0.24703524960E+02 -0.10569018607E+04  0.10574511043E+04  0.00000000000E+00 0.  1.
          2    1    1    2  501    0  0.61647306024E+02  0.92293646270E+02  0.90117745571E+03  0.90798640637E+03  0.00000000000E+00 0.  1.
<scales pt_clust_3="196.44543" pt_clust_4="14000.00000" pt_clust_5="34.07778" pt_clust_6="109.71077"></scales>
<clustering>
<clus scale="   34.078">  2  5  1 -1</clus>
<clus scale="  109.711">  1  6  2 -1</clus>
<clus scale="  196.445">  2  3  1 -1</clus>
<clus scale="   34.078">  2  3  1 -1</clus>
</clustering>
</event>
<event>
 6    0  0.3584505E+002  0.1302081E+03  0.7546771E-02  0.1227147E+00
         21   -1    0    0  505  502  0.00000000000E+00  0.00000000000E+00  0.24524632887E+03  0.24524632887E+03  0.00000000000E+00 0.  1.
          2   -1    0    0  504    0 -0.00000000000E+00 -0.00000000000E+00 -0.74258822494E+03  0.74258822494E+03  0.00000000000E+00 0.  1.
         21    1    1    2  503  502 -0.23087281335E+02  0.25762526355E+02  0.17677337335E+03  0.18012649958E+03  0.00000000000E+00 0.  1.
         21    1    1    2  504  503  0.32909154301E+02  0.13937652838E+03 -0.20320318934E+03  0.24859679253E+03  0.00000000000E+00 0.  1.
         21    1    1    2  505  501 -0.17358844182E+02 -0.13551712552E+03 -0.63684123316E+02  0.15073781325E+03  0.00000000000E+00 0.  1.
          2    1    1    2  501    0  0.75369712155E+01 -0.29621929212E+02 -0.40722795677E+03  0.40837344845E+03  0.00000000000E+00 0.  1.
<scales pt_clust_3="34.45820" pt_clust_4="14000.00000" pt_clust_5="130.20806" pt_clust_6="30.56574"></scales>
<clustering>
<clus scale="   30.566">  2  6  1 -1</clus>
<clus scale="   34.458">  1  3  2 -1</clus>
<clus scale="  130.208">  1  5  2 -1</clus>
<clus scale="   34.458">  1  3  2 -1</clus>
</clustering>
</event>
<event>
 6    0  0.3584505E+002  0.8291415E+02  0.7546771E-02  0.1320979E+00
          2   -1    0    0  505    0 -0.00000000000E+00  0.00000000000E+00  0.11584783296E+04  0.11584783296E+04  0.00000000000E+00 0. -1.
         21   -1    0    0  503  502  0.00000000000E+00 -0.00000000000E+00 -0.87872715228E+02  0.87872715228E+02  0.00000000000E+00 0.  1.
         21    1    1    2  503  504  0.50484544718E+02  0.62586681347E+02 -0.23776822133E+02  0.83851769261E+02  0.00000000000E+00 0.  1.
         21    1    1    2  504  501  0.30403195288E+02 -0.20145153065E+02  0.10146392055E+03  0.10781979711E+03  0.00000000000E+00 0.  1.
         21    1    1    2  505  502 -0.10826857119E+03 -0.20596673325E+02  0.68852606816E+02  0.12994994392E+03  0.00000000000E+00 0.  1.
          2    1    1    2  501    0  0.27380831187E+02 -0.21844854958E+02  0.92406590912E+03  0.92472953451E+03  0.00000000000E+00 0. -1.
<scales pt_clust_3="14000.00000" pt_clust_4="52.08738" pt_clust_5="82.91415" pt_clust_6="35.02724"></scales>
<clustering>
<clus scale="   35.027">  1  6  2 -1</clus>
<clus scale="   52.087">  1  4  2 -1</clus>
<clus scale="   82.914">  1  5  2 -1</clus>
<clus scale="   82.914">  2  3  1 -1</clus>
</clustering>
</event>
<event>
 6    0  0.3584505E+002  0.1283500E+03  0.7546771E-02  0.1229925E+00
         21   -1    0    0  503  502  0.00000000000E+00  0.00000000000E+00  0.58208540995E+03  0.58208540995E+03  0.00000000000E+00 0. -1.
          1   -1    0    0  505    0 -0.00000000000E+00 -0.00000000000E+00 -0.12055773556E+04  0.12055773556E+04  0.00000000000E+00 0. -1.
         21    1    1    2  503  504 -0.28110187091E+02 -0.39368444790E+02  0.43434585479E+03  0.43703132455E+03  0.00000000000E+00 0. -1.
         21    1    1    2  504  501  0.95791067759E+02  0.38539889985E+02 -0.18275652517E+03  0.20990759699E+03  0.00000000000E+00 0. -1.
         21    1    1    2  505  502 -0.10676722171E+03  0.97797988580E+01  0.11071109580E+03  0.15411628996E+03  0.00000000000E+00 0. -1.
          1    1    1    2  501    0  0.39086341044E+02 -0.89512440532E+01 -0.98579237103E+03  0.98660755400E+03  0.00000000000E+00 0. -1.
<scales pt_clust_3="48.28024" pt_clust_4="14000.00000" pt_clust_5="128.35004" pt_clust_6="40.09821"></scales>
<clustering>
<clus scale="   40.098">  2  6  1 -1</clus>
<clus scale="   48.280">  1  3  2 -1</clus>
<clus scale="  128.350">  1  5  2 -1</clus>
<clus scale="   48.280">  1  3  2 -1</clus>
</clustering>
</event>
<event>
 6    0  0.3584505E+002  0.1439409E+03  0.7546771E-02  0.1208122E+00
          4   -1    0    0  504    0 -0.00000000000E+00  0.00000000000E+00  0.53776713157E+03  0.53776713157E+03  0.00000000000E+00 0.  1.
         21   -1    0    0  503  502  0.00000000000E+00 -0.00000000000E+00 -0.43306997607E+03  0.43306997607E+03  0.00000000000E+00 0. -1.
         21    1    1    2  503  505  0.67817462526E+01  0.43434973425E+02 -0.93046790246E+02  0.10290915496E+03  0.00000000000E+00 0. -1.
         21    1    1    2  504  502  0.12516125476E+03  0.46082803046E+01 -0.85778128741E+02  0.15180402930E+03  0.00000000000E+00 0.  1.
         21    1    1    2  505  501 -0.61032953077E+02  0.67107238867E+02 -0.19702895142E+03  0.21690737785E+03  0.00000000000E+00 0. -1.
          4    1    1    2  501    0 -0.70910047935E+02 -0.11515049260E+03  0.48055102590E+03  0.49921654554E+03  0.00000000000E+00 0.  1.
<scales pt_clust_3="37.97655" pt_clust_4="125.24606" pt_clust_5="37.97655" pt_clust_6="133.20314"></scales>
<clustering>
<clus scale="   37.977">  3  5 -1 -1</clus>
<clus scale="  125.246">  2  4  1 -1</clus>
<clus scale="  133.203">  1  6  2 -1</clus>
<clus scale="  125.246">  2  3  1 -1</clus>
</clustering>
</event>
<event>
 6    0  0.3584505E+002  0.1159396E+03  0.7546771E-02  0.1249950E+00
         -2   -1    0    0    0  501 -0.00000000000E+00  0.00000000000E+00  0.39478825598E+03  0.39478825598E+03  0.00000000000E+00 0. -1.
         21   -1    0    0  504  502  0.00000000000E+00 -0.00000000000E+00 -0.12760742905E+03  0.12760742905E+03  0.00000000000E+00 0. -1.
         21    1    1    2  503  501  0.58252943100E+02 -0.42227408097E+02  0.11335027425E+03  0.13425663502E+03  0.00000000000E+00 0. -1.
         21    1    1    2  504  503  0.11613708418E+03  0.40858716015E+02 -0.19777461218E+02  0.12469324348E+03  0.00000000000E+00 0. -1.
         21    1    1    2  505  502 -0.10918424403E+03  0.11947504219E+01  0.42786794000E+02  0.11727461922E+03  0.00000000000E+00 0. -1.
         -2    1    1    2    0  505 -0.65205783254E+02  0.17394166012E+00  0.13082121990E+03  0.14617118731E+03  0.00000000000E+00 0. -1.
<scales pt_clust_3="49.91882" pt_clust_4="115.93961" pt_clust_5="14000.00000" pt_clust_6="65.20602"></scales>
<clustering>
<clus scale="   65.206">  1  6  2 -1</clus>
<clus scale="   49.919">  1  3  2 -1</clus>
<clus scale="  115.940">  2  4  1 -1</clus>
<clus scale="  115.940">  2  3  1 -1</clus>
</clustering>
</event>
<event>
 6    0  0.3584505E+002  0.1331855E+03  0.7546771E-02  0.1222804E+00
         21   -1    0    0  505  502  0.00000000000E+00  0.00000000000E+00  0.25069542352E+03  0.25069542352E+03  0.00000000000E+00 0.  1.
         -2   -1    0    0    0  501 -0.00000000000E+00 -0.00000000000E+00 -0.25178461234E+03  0.25178461234E+03  0.00000000000E+00 0.  1.
         21    1    1    2  503  502  0.85431482735E+02 -0.73002315046E+02  0.27358920586E+02  0.11565633048E+03  0.00000000000E+00 0. -1.
         21    1    1    2  504  501 -0.17072343903E+03  0.83636983863E+02 -0.14032863908E+01  0.19011472041E+03  0.00000000000E+00 0.  1.
         21    1    1    2  505  504 -0.32388752011E+02 -0.92698189251E+01  0.46879480122E+02  0.57729078082E+02  0.00000000000E+00 0.  1.
         -2    1    1    2    0  503  0.11768070831E+03 -0.13648498922E+01 -0.73924303141E+02  0.13897990689E+03  0.00000000000E+00 0.  1.
<scales pt_clust_3="106.15309" pt_clust_4="14000.00000" pt_clust_5="33.68918" pt_clust_6="133.18550"></scales>
<clustering>
<clus scale="   33.689">  1  5  2 -1</clus>
<clus scale="  106.153">  1  3  2 -1</clus>
<clus scale="  133.186">  2  6  1 -1</clus>
<clus scale="   33.689">  1  3  2 -1</clus>
</clustering>
</event>
<event>
 6    0  0.3584505E+002  0.1320486E+03  0.7546771E-02  0.1224447E+00
         -3   -1    0    0    0  501 -0.00000000000E+00  0.00000000000E+00  0.23163915007E+04  0.23163915007E+04  0.00000000000E+00 0.  1.
         21   -1    0    0  503  502  0.00000000000E+00 -0.00000000000E+00 -0.15698583892E+02  0.15698583892E+02  0.00000000000E+00 0. -1.
         21    1    1    2  503  504 -0.68505649340E+01 -0.12641457547E+03  0.37307093641E+03  0.39396636750E+03  0.00000000000E+00 0. -1.
         21    1    1    2  504  505 -0.34147675778E+01  0.50168512293E+02  0.45102375087E+03  0.45381820602E+03  0.00000000000E+00 0.  1.
         21    1    1    2  505  501  0.38580334059E+02  0.53514743572E+02  0.30092196915E+03  0.30806866357E+03  0.00000000000E+00 0. -1.
         -3    1    1    2    0  502 -0.28315001548E+02  0.22731319607E+02  0.11756762603E+04  0.11762368475E+04  0.00000000000E+00 0.  1.
<scales pt_clust_3="119.89341" pt_clust_4="52.72191" pt_clust_5="52.72191" pt_clust_6="36.31050"></scales>
<clustering>
<clus scale="   36.310">  1  6  2 -1</clus>
<clus scale="   52.722">  4  5 -1 -1</clus>
<clus scale="  119.893">  2  3  1 -1</clus>
<clus scale="  119.893">  2  3  1 -1</clus>
</clustering>
</event>
<event>
 6    0  0.3584505E+002  0.8935406E+02  0.7546771E-02  0.1304424E+00
          2   -1    0    0  503    0 -0.00000000000E+00  0.00000000000E+00  0.33201710524E+03  0.33201710524E+03  0.00000000000E+00 0. -1.
         21   -1    0    0  501  502  0.00000000000E+00 -0.00000000000E+00 -0.69093033550E+02  0.69093033550E+02  0.00000000000E+00 0. -1.
         21    1    1    2  503  505  0.34436235610E+02 -0.89735519104E+02  0.16817105679E+03  0.19370034087E+03  0.00000000000E+00 0. -1.
         21    1    1    2  504  502  0.29439642651E+02  0.12642237970E+02 -0.22528755148E+00  0.32040123202E+02  0.00000000000E+00 0. -1.
         21    1    1    2  505  504  0.11826473533E+01  0.79802361575E+02  0.36151930648E+02  0.87617222378E+02  0.00000000000E+00 0. -1.
          2    1    1    2  501    0 -0.65058525614E+02 -0.27090804406E+01  0.58826371802E+02  0.87752452337E+02  0.00000000000E+00 0. -1.
<scales pt_clust_3="89.35406" pt_clust_4="32.03933" pt_clust_5="14000.00000" pt_clust_6="57.02364"></scales>
<clustering>
<clus scale="   32.039">  2  4  1 -1</clus>
<clus scale="   57.024">  2  6  1 -1</clus>
<clus scale="   89.354">  1  3  2 -1</clus>
<clus scale="   32.039">  2  3  1 -1</clus>
</clustering>
</event>
<event>
 6    0  0.3584505E+002  0.1935702E+03  0.7546771E-02  0.1155280E+00
         21   -1    0    0  504  502  0.00000000000E+00  0.00000000000E+00  0.20865258131E+03  0.20865258131E+03  0.00000000000E+00 0.  1.
          1   -1    0    0  503    0 -0.00000000000E+00 -0.00000000000E+00 -0.14845468109E+04  0.14845468109E+04  0.00000000000E+00 0.  1.
         21    1    1    2  503  502  0.35813845738E+02 -0.43620953093E+02  0.31675986584E+02  0.64720840703E+02  0.00000000000E+00 0. -1.
         21    1    1    2  504  505 -0.71943416851E+02 -0.12293090812E+02  0.97797645348E+02  0.12203013868E+03  0.00000000000E+00 0.  1.
         21    1    1    2  505  501  0.22017084384E+03  0.81477690626E+01 -0.24049083438E+03  0.32615552738E+03  0.00000000000E+00 0.  1.
          1    1    1    2  501    0 -0.18404127273E+03  0.47766274842E+02 -0.11648770271E+04  0.11802928854E+04  0.00000000000E+00 0.  1.
<scales pt_clust_3="56.43952" pt_clust_4="63.45393" pt_clust_5="14000.00000" pt_clust_6="193.57020"></scales>
<clustering>
<clus scale="   56.440">  1  3  2 -1</clus>
<clus scale="   63.454">  1  4  2 -1</clus>
<clus scale="  193.570">  2  6  1 -1</clus>
<clus scale="   56.440">  1  3  2 -1</clus>
</clustering>
</event>
<event>
 6    0  0.3584505E+002  0.8454694E+02  0.7546771E-02  0.1316622E+00
          2   -1    0    0  504    0 -0.00000000000E+00  0.00000000000E+00  0.22559328554E+04  0.22559328554E+04  0.00000000000E+00 0. -1.
         21   -1    0    0  505  502  0.00000000000E+00 -0.00000000000E+00 -0.39703673154E+02  0.39703673154E+02  0.00000000000E+00 0.  1.
         21    1    1    2  503  501 -0.63813641329E+02  0.15140735878E+02  0.36035838955E+03  0.36627802503E+03  0.00000000000E+00 0. -1.
         21    1    1    2  504  502  0.56211688874E+02  0.76281172812E+02  0.46561521616E+02  0.10557720676E+03  0.00000000000E+00 0.  1.
         21    1    1    2  505  503  0.44543519355E+02 -0.78661457297E+02  0.28547056970E+03  0.29944147365E+03  0.00000000000E+00 0. -1.
          2    1    1    2  501    0 -0.36941566900E+02 -0.12760451394E+02  0.15238387013E+04  0.15243398231E+04  0.00000000000E+00 0. -1.
<scales pt_clust_3="82.62360" pt_clust_4="14000.00000" pt_clust_5="84.54694" pt_clust_6="39.08335"></scales>
<clustering>
<clus scale="   39.083">  1  6  2 -1</clus>
<clus scale="   82.624">  1  3  2 -1</clus>
<clus scale="   84.547">  1  5  2 -1</clus>
<clus scale="   84.547">  2  3  1 -1</clus>
</clustering>
</event>
<event>
 6    0  0.3584505E+002  0.1559016E+03  0.7546771E-02  0.1193403E+00
         21   -1    0    0  501  502  0.00000000000E+00  0.00000000000E+00  0.18841464233E+03  0.18841464233E+03  0.00000000000E+00 0. -1.
          1   -1    0    0  504    0 -0.00000000000E+00 -0.00000000000E+00 -0.12963735162E+04  0.12963735162E+04  0.00000000000E+00 0. -1.
         21    1    1    2  503  505  0.86559308538E+02  0.11816283797E+03 -0.12394807057E+03  0.19188041685E+03  0.00000000000E+00 0. -1.
         21    1    1    2  504  503 -0.30000783174E+02 -0.15634400334E+03 -0.30053848999E+03  0.34009833628E+03  0.00000000000E+00 0. -1.
         21    1    1    2  505  502  0.86177002179E+01  0.42782835187E+02  0.12978778743E+03  0.13692883374E+03  0.00000000000E+00 0. -1.
          1    1    1    2  501    0 -0.65176225583E+02 -0.46016698229E+01 -0.81326010070E+03  0.81588057161E+03  0.00000000000E+00 0. -1.
<scales pt_clust_3="14000.00000" pt_clust_4="155.90156" pt_clust_5="43.64213" pt_clust_6="65.06989"></scales>
<clustering>
<clus scale="   43.642">  1  5  2 -1</clus>
<clus scale="   65.070">  2  6  1 -1</clus>
<clus scale="  155.902">  2  4  1 -1</clus>
<clus scale="   43.642">  1  3  2 -1</clus>
</clustering>
</event>
<event>
 6    0  0.3584505E+002  0.6101878E+02  0.7546771E-02  0.1393605E+00
         21   -1    0    0  505  502  0.00000000000E+00  0.00000000000E+00  0.22412741213E+03  0.22412741213E+03  0.00000000000E+00 0. -1.
          2   -1    0    0  503    0 -0.00000000000E+00 -0.00000000000E+00 -0.20619248675E+04  0.20619248675E+04  0.00000000000E+00 0.  1.
         21    1    1    2  503  502  0.58135713520E+02  0.12479786644E+02  0.16949986058E+03  0.17962658211E+03  0.00000000000E+00 0. -1.
         21    1    1    2  504  501 -0.33949523677E+02 -0.46259900006E+02 -0.66456289126E+03  0.66703552001E+03  0.00000000000E+00 0.  1.
         21    1    1    2  505  504 -0.79195578910E+02  0.32618663127E+02  0.93751738578E+01  0.86161538914E+02  0.00000000000E+00 0. -1.
          2    1    1    2  501    0  0.55009389066E+02  0.11614502352E+01 -0.13521095985E+04  0.13532286386E+04  0.00000000000E+00 0.  1.
<scales pt_clust_3="61.01878" pt_clust_4="48.50989" pt_clust_5="14000.00000" pt_clust_6="55.02165"></scales>
<clustering>
<clus scale="   55.022">  2  6  1 -1</clus>
<clus scale="   48.510">  2  4  1 -1</clus>
<clus scale="   61.019">  1  3  2 -1</clus>
<clus scale="   61.019">  1  3  2 -1</clus>
</clustering>
</event>
<event>
 6    0  0.3584505E+002  0.9060544E+02  0.7546771E-02  0.1301392E+00
          1   -1    0    0  504    0 -0.00000000000E+00  0.00000000000E+00  0.70960236912E+02  0.70960236912E+02  0.00000000000E+00 0. -1.
         21   -1    0    0  503  502  0.00000000000E+00 -0.00000000000E+00 -0.13463392262E+04  0.13463392262E+04  0.00000000000E+00 0.  1.
         21    1    1    2  503  501  0.66211922040E+02 -0.39248965098E+01 -0.99938820307E+03  0.10015868429E+04  0.00000000000E+00 0.  1.
         21    1    1    2  504  505 -0.99069026666E+02 -0.61729426301E+02 -0.14900279707E+03  0.18928028860E+03  0.00000000000E+00 0. -1.
         21    1    1    2  505  502  0.25664749182E+02  0.15562606683E+02 -0.16208934891E+03  0.16484486982E+03  0.00000000000E+00 0.  1.
          1    1    1    2  501    0  0.71923554434E+01  0.50091716128E+02  0.35101359718E+02  0.61587461837E+02  0.00000000000E+00 0. -1.
<scales pt_clust_3="90.60544" pt_clust_4="14000.00000" pt_clust_5="30.01456" pt_clust_6="50.81940"></scales>
<clustering>
<clus scale="   30.015">  2  5  1 -1</clus>
<clus scale="   50.819">  1  6  2 -1</clus>
<clus scale="   90.605">  2  3  1 -1</clus>
<clus scale="   30.015">  2  3  1 -1</clus>
</clustering>
</event>
<event>
 6    0  0.3584505E+002  0.9053817E+02  0.7546771E-02  0.1301554E+00
         21   -1    0    0  501  502  0.00000000000E+00  0.00000000000E+00  0.15659211094E+02  0.15659211094E+02  0.00000000000E+00 0.  1.
          2   -1    0    0  505    0 -0.00000000000E+00 -0.00000000000E+00 -0.32783474989E+04  0.32783474989E+04  0.00000000000E+00 0. -1.
         21    1    1    2  503  502  0.25675054961E+02  0.25480394773E+02 -0.50969140577E+02  0.62500498047E+02  0.00000000000E+00 0.  1.
         21    1    1    2  504  503  0.25957705426E+02 -0.97012939922E+02 -0.30210170884E+03  0.31835633410E+03  0.00000000000E+00 0.  1.
         21    1    1    2  505  504 -0.30878210850E+02 -0.27978017439E+02 -0.89552510816E+03  0.89649397807E+03  0.00000000000E+00 0. -1.
          2    1    1    2  501    0 -0.20754549537E+02  0.99510562587E+02 -0.20140923302E+04  0.20166558998E+04  0.00000000000E+00 0. -1.
<scales pt_clust_3="36.17263" pt_clust_4="14000.00000" pt_clust_5="39.89886" pt_clust_6="90.53817"></scales>
<clustering>
<clus scale="   36.173">  1  3  2 -1</clus>
<clus scale="   39.899">  2  5  1 -1</clus>
<clus scale="   90.538">  2  6  1 -1</clus>
<clus scale="   36.173">  1  3  2 -1</clus>
</clustering>
</event>
<event>
 6    0  0.3584505E+002  0.1444895E+03  0.7546771E-02  0.1207413E+00
          1   -1    0    0  504    0 -0.00000000000E+00  0.00000000000E+00  0.35439478739E+03  0.35439478739E+03  0.00000000000E+00 0.  1.
         21   -1    0    0  505  502  0.00000000000E+00 -0.00000000000E+00 -0.21318829759E+03  0.21318829759E+03  0.00000000000E+00 0.  1.
         21    1    1    2  503  502  0.13932772068E+03  0.17558849072E+02  0.31306664164E+02  0.14387714951E+03  0.00000000000E+00 0.  1.
         21    1    1    2  504  503 -0.14439267409E+03  0.13121053530E+03  0.11826131871E+03  0.22814729542E+03  0.00000000000E+00 0.  1.
         21    1    1    2  505  501 -0.11575920393E+02 -0.36563572855E+02 -0.59772675525E+02  0.71018797035E+02  0.00000000000E+00 0. -1.
          1    1    1    2  501    0  0.16640873799E+02 -0.11220581151E+03  0.51411182445E+02  0.12453984302E+03  0.00000000000E+00 0.  1.
<scales pt_clust_3="14000.00000" pt_clust_4="144.48948" pt_clust_5="38.35227" pt_clust_6="122.03193"></scales>
<clustering>
<clus scale="   38.352">  2  5  1 -1</clus>
<clus scale="  122.032">  1  6  2 -1</clus>
<clus scale="  144.489">  1  4  2 -1</clus>
<clus scale="   38.352">  2  3  1 -1</clus>
</clustering>
</event>
<event>
 6    0  0.3584505E+002  0.1399838E+03  0.7546771E-02  0.1213351E+00
         21   -1    0    0  504  502  0.00000000000E+00  0.00000000000E+00  0.12840398210E+03  0.12840398210E+03  0.00000000000E+00 0.  1.
          1   -1    0    0  505    0 -0.00000000000E+00 -0.00000000000E+00 -0.24291929964E+04  0.24291929964E+04  0.00000000000E+00 0.  1.
         21    1    1    2  503  501 -0.16613354962E+02  0.29168812762E+02 -0.29894460743E+03  0.30082337262E+03  0.00000000000E+00 0. -1.
         21    1    1    2  504  503 -0.50998338750E+01 -0.39110627201E+02 -0.78530461738E+02  0.87878796569E+02  0.00000000000E+00 0.  1.
         21    1    1    2  505  502  0.35656371235E+02 -0.87006506014E+02  0.10343149076E+03  0.13978405553E+03  0.00000000000E+00 0.  1.
          1    1    1    2  501    0 -0.13943182398E+02  0.96948320453E+02 -0.20267454359E+04  0.20291107538E+04  0.00000000000E+00 0.  1.
<scales pt_clust_3="31.63256" pt_clust_4="39.44172" pt_clust_5="129.13499" pt_clust_6="31.63256"></scales>
<clustering>
<clus scale="   31.633">  3  6 -1 -1</clus>
<clus scale="   39.442">  1  4  2 -1</clus>
<clus scale="  129.135">  1  5  2 -1</clus>
<clus scale="   39.442">  1  3  2 -1</clus>
</clustering>
</event>
<event>
 6    0  0.3584505E+002  0.1332902E+03  0.7546771E-02  0.1222654E+00
         21   -1    0    0  503  502  0.00000000000E+00  0.00000000000E+00  0.15872931453E+03  0.15872931453E+03  0.00000000000E+00 0. -1.
          2   -1    0    0  505    0 -0.00000000000E+00 -0.00000000000E+00 -0.47320579689E+03  0.47320579689E+03  0.00000000000E+00 0. -1.
         21    1    1    2  503  504 -0.43103170683E+02 -0.15227449179E+02  0.91391789699E+02  0.10218717021E+03  0.00000000000E+00 0. -1.
         21    1    1    2  504  501 -0.92478792421E+02  0.40009395924E+02 -0.85859713910E+02  0.13238190693E+03  0.00000000000E+00 0. -1.
         21    1    1    2  505  502  0.17287451256E+03 -0.43196614796E+02 -0.18829690884E+03  0.25924365084E+03  0.00000000000E+00 0. -1.
          2    1    1    2  501    0 -0.37292549456E+02  0.18414668051E+02 -0.13171164930E+03  0.13812238344E+03  0.00000000000E+00 0. -1.
<scales pt_clust_3="46.17950" pt_clust_4="133.29018" pt_clust_5="14000.00000" pt_clust_6="41.59128"></scales>
<clustering>
<clus scale="   41.591">  2  6  1 -1</clus>
<clus scale="   46.180">  1  3  2 -1</clus>
<clus scale="  133.290">  1  4  2 -1</clus>
<clus scale="   46.180">  1  3  2 -1</clus>
</clustering>
</event>
<event>
 6    0  0.3584505E+002  0.1104379E+03  0.7546771E-02  0.1259761E+00
         21   -1    0    0  505  502  0.00000000000E+00  0.00000000000E+00  0.10383190973E+03  0.10383190973E+03  0.00000000000E+00 0. -1.
          2   -1    0    0  503    0 -0.00000000000E+00 -0.00000000000E+00 -0.83832356586E+03  0.83832356586E+03  0.00000000000E+00 0. -1.
         21    1    1    2  503  504  0.10304508922E+03 -0.22097800548E+02 -0.74726814708E+02  0.12919249219E+03  0.00000000000E+00 0. -1.
         21    1    1    2  504  502 -0.11547064520E+03  0.11797213854E+02 -0.76483893129E+02  0.13900514402E+03  0.00000000000E+00 0. -1.
         21    1    1    2  505  501  0.13769191171E+02  0.56009663779E+02  0.25784294090E+02  0.63178341889E+02  0.00000000000E+00 0. -1.
          2    1    1    2  501    0 -0.13436351983E+01 -0.45709077085E+02 -0.60906524238E+03  0.61077949749E+03  0.00000000000E+00 0. -1.
<scales pt_clust_3="14000.00000" pt_clust_4="110.43788" pt_clust_5="54.02321" pt_clust_6="45.72882"></scales>
<clustering>
<clus scale="   45.729">  2  6  1 -1</clus>
<clus scale="   54.023">  1  5  2 -1</clus>
<clus scale="  110.438">  1  4  2 -1</clus>
<clus scale="   54.023">  1  3  2 -1</clus>
</clustering>
</event>
<event>
 6    0  0.3584505E+002  0.4565301E+03  0.7546771E-02  0.1025792E+00
          1   -1    0    0  503    0 -0.00000000000E+00  0.00000000000E+00  0.61217168452E+03  0.61217168452E+03  0.00000000000E+00 0.  1.
         21   -1    0    0  505  502  0.00000000000E+00 -0.00000000000E+00 -0.13887444052E+04  0.13887444052E+04  0.00000000000E+00 0.  1.
         21    1    1    2  503  502  0.46989180972E+03  0.13063876484E+03 -0.67777005209E+03  0.83500721148E+03  0.00000000000E+00 0.  1.
         21    1    1    2  504  501 -0.40244267054E+03 -0.14278028468E+03  0.39210197218E+01  0.42703827364E+03  0.00000000000E+00 0.  1.
         21    1    1    2  505  504 -0.37035674266E+02  0.17802551184E+02 -0.41903755638E+03  0.42104755747E+03  0.00000000000E+00 0.  1.
          1    1    1    2  501    0 -0.30413464914E+02 -0.56610313434E+01  0.31631386809E+03  0.31782304710E+03  0.00000000000E+00 0.  1.
<scales pt_clust_3="456.53008" pt_clust_4="14000.00000" pt_clust_5="41.17728" pt_clust_6="30.93584"></scales>
<clustering>
<clus scale="   30.936">  1  6  2 -1</clus>
<clus scale="   41.177">  2  5  1 -1</clus>
<clus scale="  456.530">  2  3  1 -1</clus>
<clus scale="   41.177">  2  3  1 -1</clus>
</clustering>
</event>
<event>
 6    0  0.3584505E+002  0.1279304E+03  0.7546771E-02  0.1230559E+00
         21   -1    0    0  503  502  0.00000000000E+00  0.00000000000E+00  0.22219891582E+03  0.22219891582E+03  0.00000000000E+00 0.  1.
          2   -1    0    0  502    0 -0.00000000000E+00 -0.00000000000E+00 -0.29457918595E+04  0.29457918595E+04  0.00000000000E+00 0.  1.
         21    1    1    2  503  505 -0.43564846064E+02 -0.34582196095E+02  0.13616702820E+03  0.14708937306E+03  0.00000000000E+00 0.  1.
         21    1    1    2  504  501  0.77949609295E+02  0.17237967775E+03 -0.38010818394E+03  0.42458582923E+03  0.00000000000E+00 0.  1.
         21    1    1    2  505  504 -0.76824559554E+02 -0.36542136448E+02  0.25458810013E+02  0.88800291070E+02  0.00000000000E+00 0.  1.
          2    1    1    2  501    0  0.42439796323E+02 -0.10125534521E+03 -0.25051105979E+04  0.25075152819E+04  0.00000000000E+00 0.  1.
<scales pt_clust_3="55.62215" pt_clust_4="14000.00000" pt_clust_5="127.93044" pt_clust_6="110.01726"></scales>
<clustering>
<clus scale="   55.622">  1  3  2 -1</clus>
<clus scale="  110.017">  2  6  1 -1</clus>
<clus scale="  127.930">  1  5  2 -1</clus>
<clus scale="   55.622">  1  3  2 -1</clus>
</clustering>
</event>
<event>
 6    0  0.3584505E+002  0.7264654E+02  0.7546771E-02  0.1351318E+00
         21   -1    0    0  505  502  0.00000000000E+00  0.00000000000E+00  0.21047806103E+03  0.21047806103E+03  0.00000000000E+00 0.  1.
          2   -1    0    0  503    0 -0.00000000000E+00 -0.00000000000E+00 -0.17045984528E+04  0.17045984528E+04  0.00000000000E+00 0. -1.
         21    1    1    2  503  502 -0.40063221495E+02 -0.31558330803E+02  0.16903238770E+02  0.53728106616E+02  0.00000000000E+00 0.  1.
         21    1    1    2  504  501  0.11907367232E+03  0.43688276092E+01  0.70516643483E+02  0.13845657479E+03  0.00000000000E+00 0.  1.
         21    1    1    2  505  504 -0.87026816730E+01  0.44090174980E+02  0.62655707742E+02  0.77106536109E+02  0.00000000000E+00 0.  1.
          2    1    1    2  501    0 -0.70307769147E+02 -0.16900671786E+02 -0.16441959817E+04  0.16457852963E+04  0.00000000000E+00 0. -1.
<scales pt_clust_3="46.95287" pt_clust_4="72.64654" pt_clust_5="44.94085" pt_clust_6="14000.00000"></scales>
<clustering>
<clus scale="   44.941">  1  5  2 -1</clus>
<clus scale="   46.953">  1  3  2 -1</clus>
<clus scale="   72.647">  1  4  2 -1</clus>
<clus scale="   44.941">  1  3  2 -1</clus>
</clustering>
</event>
<event>
 6    0  0.3584505E+002  0.1963609E+03  0.7546771E-02  0.1152846E+00
          1   -1    0    0  502    0 -0.00000000000E+00  0.00000000000E+00  0.76693206907E+03  0.76693206907E+03  0.00000000000E+00 0.  1.
         21   -1    0    0  504  502  0.00000000000E+00 -0.00000000000E+00 -0.56129625956E+02  0.56129625956E+02  0.00000000000E+00 0.  1.
         21    1    1    2  503  505 -0.54602710859E+02  0.78398681451E+02  0.91034776888E+02  0.13196643471E+03  0.00000000000E+00 0.  1.
         21    1    1    2  504  503  0.34718215174E+01  0.94327577489E+02  0.11075737178E+03  0.14552299071E+03  0.00000000000E+00 0.  1.
         21    1    1    2  505  501 -0.18061627480E+02 -0.71302118895E+02  0.18620072739E+03  0.20020221134E+03  0.00000000000E+00 0.  1.
          1    1    1    2  501    0  0.69192516821E+02 -0.10142414004E+03  0.32280956706E+03  0.34537005827E+03  0.00000000000E+00 0.  1.
<scales pt_clust_3="190.47391" pt_clust_4="61.52671" pt_clust_5="60.49569" pt_clust_6="60.49569"></scales>
<clustering>
<clus scale="   60.496">  5  6 -1 -1</clus>
<clus scale="   61.527">  3  4 -1 -1</clus>
<clus scale="  190.474">  2  3  1 -1</clus>
<clus scale="  190.474">  2  3  1 -1</clus>
</clustering>
</event>
<event>
 6    0  0.3584505E+002  0.3578215E+03  0.7546771E-02  0.1059450E+00
         21   -1    0    0  505  502  0.00000000000E+00  0.00000000000E+00  0.19875393358E+04  0.19875393358E+04  0.00000000000E+00 0.  1.
          2   -1    0    0  504    0 -0.00000000000E+00 -0.00000000000E+00 -0.27718419337E+03  0.27718419337E+03  0.00000000000E+00 0. -1.
         21    1    1    2  503  502 -0.12878959434E+03  0.61885998550E+02  0.66237159532E+03  0.67760812179E+03  0.00000000000E+00 0.  1.
         21    1    1    2  504  503 -0.32423594331E+03  0.25083385024E+03  0.39813327350E+03  0.57145137223E+03  0.00000000000E+00 0.  1.
         21    1    1    2  505  501  0.30284108081E+03 -0.26525772679E+03  0.73394987120E+03  0.83711217604E+03  0.00000000000E+00 0.  1.
          2    1    1    2  501    0  0.15018445684E+03 -0.47462121998E+02 -0.84099597541E+02  0.17855185915E+03  0.00000000000E+00 0. -1.
<scales pt_clust_3="142.88680" pt_clust_4="357.82152" pt_clust_5="14000.00000" pt_clust_6="152.43717"></scales>
<clustering>
<clus scale="  142.887">  1  3  2 -1</clus>
<clus scale="  152.437">  2  6  1 -1</clus>
<clus scale="  357.822">  2  4  1 -1</clus>
<clus scale="  142.887">  1  3  2 -1</clus>
</clustering>
</event>
<event>
 6    0  0.3584505E+002  0.2198851E+03  0.7546771E-02  0.1133969E+00
          2   -1    0    0  504    0 -0.00000000000E+00  0.00000000000E+00  0.28195089884E+04  0.28195089884E+04  0.00000000000E+00 0.  1.
         21   -1    0    0  505  502  0.00000000000E+00 -0.00000000000E+00 -0.13885397800E+03  0.13885397800E+03  0.00000000000E+00 0.  1.
         21    1    1    2  503  502  0.21930606774E+03  0.10839503443E+03  0.79306175066E+02  0.25716551915E+03  0.00000000000E+00 0.  1.
         21    1    1    2  504  503  0.31248387409E+02  0.39273311083E+02  0.26774822806E+03  0.27241139534E+03  0.00000000000E+00 0. -1.
         21    1    1    2  505  501 -0.10158028604E+02 -0.58128014463E+02 -0.19190643813E+02  0.62051046892E+02  0.00000000000E+00 0.  1.
          2    1    1    2  501    0 -0.24039642655E+03 -0.89540331048E+02  0.23527912511E+04  0.23667350050E+04  0.00000000000E+00 0.  1.
<scales pt_clust_3="14000.00000" pt_clust_4="50.18819" pt_clust_5="58.63884" pt_clust_6="219.88505"></scales>
<clustering>
<clus scale="   50.188">  1  4  2 -1</clus>
<clus scale="   58.639">  2  5  1 -1</clus>
<clus scale="  219.885">  1  6  2 -1</clus>
<clus scale="   58.639">  2  3  1 -1</clus>
</clustering>
</event>
<event>
 6    0  0.3584505E+002  0.1138042E+03  0.7546771E-02  0.1253683E+00
          2   -1    0    0  505    0 -0.00000000000E+00  0.00000000000E+00  0.27028258708E+04  0.27028258708E+04  0.00000000000E+00 0.  1.
         21   -1    0    0  504  502  0.00000000000E+00 -0.00000000000E+00 -0.22132551394E+03  0.22132551394E+03  0.00000000000E+00 0.  1.
         21    1    1    2  503  502  0.51578547863E+02 -0.28529253512E+01 -0.85108711611E+02  0.99558920117E+02  0.00000000000E+00 0.  1.
         21    1    1    2  504  501 -0.65657981249E+02  0.96236717254E+02 -0.41698965673E+02  0.12373875702E+03  0.00000000000E+00 0.  1.
         21    1    1    2  505  503  0.47528390013E+02  0.16027331991E+02 -0.31067202634E+02  0.58999951758E+02  0.00000000000E+00 0.  1.
          2    1    1    2  501    0 -0.33448956628E+02 -0.10941112389E+03  0.26393752368E+04  0.26418537558E+04  0.00000000000E+00 0.  1.
<scales pt_clust_3="107.90771" pt_clust_4="14000.00000" pt_clust_5="40.00598" pt_clust_6="113.80417"></scales>
<clustering>
<clus scale="   40.006">  3  5 -1 -1</clus>
<clus scale="  107.908">  2  3  1 -1</clus>
<clus scale="  113.804">  1  6  2 -1</clus>
<clus scale="  107.908">  2  3  1 -1</clus>
</clustering>
</event>
<event>
 6    0  0.3584505E+002  0.1660514E+03  0.7546771E-02  0.1182029E+00
         -2   -1    0    0    0  501 -0.00000000000E+00  0.00000000000E+00  0.26314948133E+03  0.26314948133E+03  0.00000000000E+00 0.  1.
         21   -1    0    0  503  502  0.00000000000E+00 -0.00000000000E+00 -0.12074034654E+04  0.12074034654E+04  0.00000000000E+00 0.  1.
         21    1    1    2  503  505 -0.41323499768E+02  0.10445346303E+02 -0.36927633627E+03  0.37172805843E+03  0.00000000000E+00 0. -1.
         21    1    1    2  504  502 -0.15247381288E+02 -0.34872762623E+02 -0.11419871235E+03  0.12037415882E+03  0.00000000000E+00 0. -1.
         21    1    1    2  505  501  0.38002251241E+01  0.18164214390E+03 -0.67984015901E+03  0.70369805453E+03  0.00000000000E+00 0.  1.
         -2    1    1    2    0  504  0.52770655932E+02 -0.15721472758E+03  0.21906122358E+03  0.27475267492E+03  0.00000000000E+00 0.  1.
<scales pt_clust_3="46.52696" pt_clust_4="38.06038" pt_clust_5="14000.00000" pt_clust_6="166.05141"></scales>
<clustering>
<clus scale="   38.060">  2  4  1 -1</clus>
<clus scale="   46.527">  2  3  1 -1</clus>
<clus scale="  166.051">  1  6  2 -1</clus>
<clus scale="   38.060">  2  3  1 -1</clus>
</clustering>
</event>
<event>
 6    0  0.3584505E+002  0.3133723E+03  0.7546771E-02  0.1078741E+00
         21   -1    0    0  505  502  0.00000000000E+00  0.00000000000E+00  0.56535195860E+03  0.56535195860E+03  0.00000000000E+00 0.  1.
          2   -1    0    0  504    0 -0.00000000000E+00 -0.00000000000E+00 -0.16817211756E+04  0.16817211756E+04  0.00000000000E+00 0. -1.
         21    1    1    2  503  501 -0.17074073601E+03 -0.19590708272E+03  0.40752009232E+02  0.26304507266E+03  0.00000000000E+00 0.  1.
         21    1    1    2  504  502 -0.55746994824E+01 -0.10972124844E+03 -0.32081264675E+03  0.33910261566E+03  0.00000000000E+00 0.  1.
         21    1    1    2  505  503  0.12217766753E+03  0.33935484399E+03  0.32281754184E+03  0.48404571881E+03  0.00000000000E+00 0.  1.
          2    1    1    2  501    0  0.54137767964E+02 -0.33726512833E+02 -0.11591261213E+04  0.11608797271E+04  0.00000000000E+00 0. -1.
<scales pt_clust_3="313.37233" pt_clust_4="134.14959" pt_clust_5="14000.00000" pt_clust_6="63.78382"></scales>
<clustering>
<clus scale="   63.784">  2  6  1 -1</clus>
<clus scale="  134.150">  2  4  1 -1</clus>
<clus scale="  313.372">  2  3  1 -1</clus>
<clus scale="  313.372">  1  3  2 -1</clus>
</clustering>
</event>
<event>
 6    0  0.3584505E+002  0.7748163E+02  0.7546771E-02  0.1336354E+00
         21   -1    0    0  503  502  0.00000000000E+00  0.00000000000E+00  0.13664772549E+03  0.13664772549E+03  0.00000000000E+00 0. -1.
          2   -1    0    0  502    0 -0.00000000000E+00 -0.00000000000E+00 -0.69711087626E+03  0.69711087626E+03  0.00000000000E+00 0.  1.
         21    1    1    2  503  505 -0.16620461766E+02 -0.25286292173E+02  0.49494462222E+02  0.58011534299E+02  0.00000000000E+00 0.  1.
         21    1    1    2  504  501 -0.70291834662E+02  0.64184456233E+02 -0.85023086099E+02  0.12763037104E+03  0.00000000000E+00 0.  1.
         21    1    1    2  505  504  0.85311607309E+02  0.26966877140E+01  0.30862929849E+02  0.90762673523E+02  0.00000000000E+00 0. -1.
          2    1    1    2  501    0  0.16006891196E+01 -0.41594851774E+02 -0.55579745675E+03  0.55735402289E+03  0.00000000000E+00 0.  1.
<scales pt_clust_3="30.25948" pt_clust_4="14000.00000" pt_clust_5="77.48163" pt_clust_6="41.85720"></scales>
<clustering>
<clus scale="   30.259">  1  3  2 -1</clus>
<clus scale="   41.857">  2  6  1 -1</clus>
<clus scale="   77.482">  1  5  2 -1</clus>
<clus scale="   30.259">  1  3  2 -1</clus>
</clustering>
</event>
<event>
 6    0  0.3584505E+002  0.8698507E+02  0.7546771E-02  0.1310322E+00
          1   -1    0    0  505    0 -0.00000000000E+00  0.00000000000E+00  0.17478296864E+04  0.17478296864E+04  0.00000000000E+00 0. -1.
         21   -1    0    0  504  502  0.00000000000E+00 -0.00000000000E+00 -0.33517032202E+03  0.33517032202E+03  0.00000000000E+00 0. -1.
         21    1    1    2  503  502 -0.55647690740E+02  0.63101659067E+01 -0.29887975484E+03  0.30408155408E+03  0.00000000000E+00 0. -1.
         21    1    1    2  504  501  0.10969979064E+03  0.65466195969E+02  0.16842289930E+03  0.21139096454E+03  0.00000000000E+00 0. -1.
         21    1    1    2  505  503 -0.39549350714E+02 -0.45491169576E+02  0.63311223123E+02  0.87418010870E+02  0.00000000000E+00 0. -1.
          1    1    1    2  501    0 -0.14502749182E+02 -0.26285192300E+02  0.14798049968E+04  0.14801094789E+04  0.00000000000E+00 0. -1.
<scales pt_clust_3="56.11613" pt_clust_4="14000.00000" pt_clust_5="86.98507" pt_clust_6="30.02068"></scales>
<clustering>
<clus scale="   30.021">  1  6  2 -1</clus>
<clus scale="   56.116">  2  3  1 -1</clus>
<clus scale="   86.985">  2  5  1 -1</clus>
<clus scale="   56.116">  2  3  1 -1</clus>
</clustering>
</event>
<event>
 6    0  0.3584505E+002  0.2344541E+03  0.7546771E-02  0.1123543E+00
         21   -1    0    0  505  502  0.00000000000E+00  0.00000000000E+00  0.60779362167E+03  0.60779362167E+03  0.00000000000E+00 0. -1.
         -4   -1    0    0    0  501 -0.00000000000E+00 -0.00000000000E+00 -0.12030191055E+04  0.12030191055E+04  0.00000000000E+00 0. -1.
         21    1    1    2  503  502 -0.32607062001E+02  0.17401208269E+02  0.15804557555E+03  0.16230966235E+03  0.00000000000E+00 0.  1.
         21    1    1    2  504  503 -0.22220184394E+03 -0.20243977035E+02  0.33845840537E+03  0.40538570550E+03  0.00000000000E+00 0. -1.
         21    1    1    2  505  501  0.19664617474E+03 -0.37589775605E+02 -0.60063378486E+02  0.20902229236E+03  0.00000000000E+00 0. -1.
         -4    1    1    2    0  504  0.58162731210E+02  0.40432544372E+02 -0.10316660863E+04  0.10340950670E+04  0.00000000000E+00 0. -1.
<scales pt_clust_3="36.95974" pt_clust_4="14000.00000" pt_clust_5="234.45407" pt_clust_6="70.79005"></scales>
<clustering>
<clus scale="   36.960">  1  3  2 -1</clus>
<clus scale="   70.790">  2  6  1 -1</clus>
<clus scale="  234.454">  2  5  1 -1</clus>
<clus scale="   36.960">  1  3  2 -1</clus>
</clustering>
</event>
<event>
 6    0  0.3584505E+002  0.1050452E+03  0.7546771E-02  0.1270031E+00
          1   -1    0    0  504    0 -0.00000000000E+00  0.00000000000E+00  0.12216636125E+04  0.12216636125E+04  0.00000000000E+00 0. -1.
         21   -1    0    0  505  502  0.00000000000E+00 -0.00000000000E+00 -0.61096750572E+03  0.61096750572E+03  0.00000000000E+00 0. -1.
         21    1    1    2  503  502  0.19464853237E+02  0.73482911571E+02 -0.54940416424E+03  0.55463821946E+03  0.00000000000E+00 0. -1.
         21    1    1    2  504  503 -0.53183292951E+02 -0.77494529843E+01  0.92155355175E+02  0.10668236104E+03  0.00000000000E+00 0. -1.
         21    1    1    2  505  501  0.21052489904E+02  0.24243891058E+02 -0.44658325825E+02  0.55003087643E+02  0.00000000000E+00 0.  1.
          1    1    1    2  501    0  0.12665949809E+02 -0.89977349645E+02  0.11126032417E+04  0.11163074501E+04  0.00000000000E+00 0. -1.
<scales pt_clust_3="14000.00000" pt_clust_4="53.43070" pt_clust_5="32.10878" pt_clust_6="105.04522"></scales>
<clustering>
<clus scale="   32.109">  2  5  1 -1</clus>
<clus scale="   53.431">  1  4  2 -1</clus>
<clus scale="  105.045">  1  6  2 -1</clus>
<clus scale="   32.109">  2  3  1 -1</clus>
</clustering>
</event>
<event>
 6    0  0.3584505E+002  0.5592964E+02  0.7546771E-02  0.1415753E+00
          2   -1    0    0  503    0 -0.00000000000E+00  0.00000000000E+00  0.80710766426E+03  0.80710766426E+03  0.00000000000E+00 0.  1.
         21   -1    0    0  504  502  0.00000000000E+00 -0.00000000000E+00 -0.24128220459E+03  0.24128220459E+03  0.00000000000E+00 0. -1.
         21    1    1    2  503  502  0.44604909983E+02  0.32616770038E+02 -0.21246944857E+03  0.21953750991E+03  0.00000000000E+00 0. -1.
         21    1    1    2  504  505 -0.34920831779E+02 -0.80825367248E+02  0.90099668737E+02  0.12597680258E+03  0.00000000000E+00 0.  1.
         21    1    1    2  505  501 -0.51901942539E+02  0.44798997837E+02  0.17524532050E+03  0.18817992508E+03  0.00000000000E+00 0.  1.
          2    1    1    2  501    0  0.42217864335E+02  0.34095993733E+01  0.51294991901E+03  0.51469563127E+03  0.00000000000E+00 0.  1.
<scales pt_clust_3="55.92964" pt_clust_4="14000.00000" pt_clust_5="53.51149" pt_clust_6="42.35532"></scales>
<clustering>
<clus scale="   42.355">  1  6  2 -1</clus>
<clus scale="   53.511">  1  5  2 -1</clus>
<clus scale="   55.930">  2  3  1 -1</clus>
<clus scale="   55.930">  2  3  1 -1</clus>
</clustering>
</event>
<event>
 6    0  0.3584505E+002  0.1499770E+03  0.7546771E-02  0.1200501E+00
          2   -1    0    0  504    0 -0.00000000000E+00  0.00000000000E+00  0.25886585041E+04  0.25886585041E+04  0.00000000000E+00 0. -1.
         21   -1    0    0  503  502  0.00000000000E+00 -0.00000000000E+00 -0.48750780970E+02  0.48750780970E+02  0.00000000000E+00 0.  1.
         21    1    1    2  503  505  0.25011938573E+02  0.50629534992E+02  0.50637368075E+02  0.75849126101E+02  0.00000000000E+00 0.  1.
         21    1    1    2  504  502  0.57318699048E+02 -0.30782258842E+02  0.13551288424E+03  0.15032206263E+03  0.00000000000E+00 0. -1.
         21    1    1    2  505  501  0.50709904955E+02  0.34249118696E+02  0.87241728378E+01  0.61811065221E+02  0.00000000000E+00 0.  1.
          2    1    1    2  501    0 -0.13304054258E+03 -0.54096394846E+02  0.23450332980E+04  0.23494270311E+04  0.00000000000E+00 0. -1.
<scales pt_clust_3="47.92029" pt_clust_4="65.06136" pt_clust_5="47.92029" pt_clust_6="141.43816"></scales>
<clustering>
<clus scale="   47.920">  3  5 -1 -1</clus>
<clus scale="   65.061">  2  4  1 -1</clus>
<clus scale="  141.438">  1  6  2 -1</clus>
<clus scale="   65.061">  2  3  1 -1</clus>
</clustering>
</event>
<event>
 6    0  0.3584505E+002  0.8441000E+02  0.7546771E-02  0.1316983E+00
         -2   -1    0    0    0  501 -0.00000000000E+00  0.00000000000E+00  0.57551353225E+03  0.57551353225E+03  0.00000000000E+00 0. -1.
         21   -1    0    0  505  502  0.00000000000E+00 -0.00000000000E+00 -0.16482048117E+03  0.16482048117E+03  0.00000000000E+00 0.  1.
         21    1    1    2  503  504 -0.80612504020E+01  0.78510611107E+02 -0.19678623998E+02  0.81339707751E+02  0.00000000000E+00 0.  1.
         21    1    1    2  504  502  0.76070288529E+02 -0.35312323044E+02 -0.37126033184E+02  0.91716908450E+02  0.00000000000E+00 0.  1.
         21    1    1    2  505  501 -0.67488094761E+02 -0.88850995771E+02  0.15112903086E+02  0.11259459234E+03  0.00000000000E+00 0.  1.
         -2    1    1    2    0  503 -0.52094336536E+00  0.45652707707E+02  0.45238480517E+03  0.45468280488E+03  0.00000000000E+00 0. -1.
<scales pt_clust_3="14000.00000" pt_clust_4="79.99254" pt_clust_5="84.41000" pt_clust_6="45.65568"></scales>
<clustering>
<clus scale="   45.656">  1  6  2 -1</clus>
<clus scale="   79.993">  2  4  1 -1</clus>
<clus scale="   84.410">  1  5  2 -1</clus>
<clus scale="   79.993">  2  3  1 -1</clus>
</clustering>
</event>
<event>
 6    0  0.3584505E+002  0.7556619E+02  0.7546771E-02  0.1342127E+00
         21   -1    0    0  504  502  0.00000000000E+00  0.00000000000E+00  0.13709336632E+02  0.13709336632E+02  0.00000000000E+00 0.  1.
          2   -1    0    0  503    0 -0.00000000000E+00 -0.00000000000E+00 -0.25955003774E+04  0.25955003774E+04  0.00000000000E+00 0.  1.
         21    1    1    2  503  502 -0.61502978585E+02 -0.12336274182E+02 -0.32523476344E+03  0.33122869952E+03  0.00000000000E+00 0.  1.
         21    1    1    2  504  505  0.34781251216E+02 -0.89095867872E+02 -0.27781593614E+03  0.29381882765E+03  0.00000000000E+00 0.  1.
         21    1    1    2  505  501  0.31670668443E+02  0.54534081893E+02 -0.41995239751E+03  0.42466105720E+03  0.00000000000E+00 0.  1.
          2    1    1    2  501    0 -0.49489410746E+01  0.46898060160E+02 -0.15587879437E+04  0.15595011297E+04  0.00000000000E+00 0.  1.
<scales pt_clust_3="63.12060" pt_clust_4="14000.00000" pt_clust_5="75.56619" pt_clust_6="47.15846"></scales>
<clustering>
<clus scale="   47.158">  2  6  1 -1</clus>
<clus scale="   63.121">  2  3  1 -1</clus>
<clus scale="   75.566">  2  5  1 -1</clus>
<clus scale="   75.566">  1  3  2 -1</clus>
</clustering>
</event>
<event>
 6    0  0.3584505E+002  0.1323449E+03  0.7546771E-02  0.1224017E+00
          1   -1    0    0  504    0 -0.00000000000E+00  0.00000000000E+00  0.21176647350E+03  0.21176647350E+03  0.00000000000E+00 0.  1.
         21   -1    0    0  505  502  0.00000000000E+00 -0.00000000000E+00 -0.57359140695E+03  0.57359140695E+03  0.00000000000E+00 0. -1.
         21    1    1    2  503  501 -0.13565779988E+03 -0.10715133343E+03 -0.96054742294E+02  0.19776491206E+03  0.00000000000E+00 0. -1.
         21    1    1    2  504  502  0.38557151533E+02 -0.13363192668E+02 -0.97236973689E+02  0.10545263347E+03  0.00000000000E+00 0. -1.
         21    1    1    2  505  503  0.92607085367E+01  0.30785547159E+02 -0.29919850670E+03  0.30092068232E+03  0.00000000000E+00 0. -1.
          1    1    1    2  501    0  0.87839939808E+02  0.89728978937E+02  0.13066528923E+03  0.18121965262E+03  0.00000000000E+00 0.  1.
<scales pt_clust_3="132.34488" pt_clust_4="42.03387" pt_clust_5="32.14826" pt_clust_6="14000.00000"></scales>
<clustering>
<clus scale="   32.148">  2  5  1 -1</clus>
<clus scale="   42.034">  2  4  1 -1</clus>
<clus scale="  132.345">  2  3  1 -1</clus>
<clus scale="   32.148">  2  3  1 -1</clus>
</clustering>
</event>
<event>
 6    0  0.3584505E+002  0.1231785E+03  0.7546771E-02  0.1237944E+00
          2   -1    0    0  505    0 -0.00000000000E+00  0.00000000000E+00  0.43364310955E+04  0.43364310955E+04  0.00000000000E+00 0. -1.
         21   -1    0    0  504  502  0.00000000000E+00 -0.00000000000E+00 -0.64592259745E+03  0.64592259745E+03  0.00000000000E+00 0. -1.
         21    1    1    2  503  502  0.37199441659E+02  0.16801322943E+02 -0.60787168242E+03  0.60924056431E+03  0.00000000000E+00 0. -1.
         21    1    1    2  504  501 -0.13383211583E+03 -0.95153300642E+02  0.69180216455E+03  0.71102420544E+03  0.00000000000E+00 0. -1.
         21    1    1    2  505  503  0.42739311577E+02  0.82033198277E+02  0.50090195712E+02  0.10519088402E+03  0.00000000000E+00 0. -1.
          2    1    1    2  501    0  0.53893362593E+02 -0.36812205781E+01  0.35564878202E+04  0.35568980391E+04  0.00000000000E+00 0. -1.
<scales pt_clust_3="40.81768" pt_clust_4="14000.00000" pt_clust_5="123.17848" pt_clust_6="54.21648"></scales>
<clustering>
<clus scale="   40.818">  2  3  1 -1</clus>
<clus scale="   54.216">  1  6  2 -1</clus>
<clus scale="  123.178">  2  5  1 -1</clus>
<clus scale="   40.818">  2  3  1 -1</clus>
</clustering>
</event>
<event>
 6    0  0.3584505E+002  0.1237761E+03  0.7546771E-02  0.1236995E+00
          2   -1    0    0  503    0 -0.00000000000E+00  0.00000000000E+00  0.54596019260E+03  0.54596019260E+03  0.00000000000E+00 0.  1.
         21   -1    0    0  501  502  0.00000000000E+00 -0.00000000000E+00 -0.12390719349E+03  0.12390719349E+03  0.00000000000E+00 0.  1.
         21    1    1    2  503  504  0.29601420664E+02 -0.26027754287E+02  0.65658602051E+02  0.76581591273E+02  0.00000000000E+00 0.  1.
         21    1    1    2  504  505 -0.97372437416E+02 -0.34816821730E+02 -0.26498837683E+02  0.10675107045E+03  0.00000000000E+00 0.  1.
         21    1    1    2  505  502 -0.36612638903E+02  0.40762839232E+02 -0.28409102643E+02  0.61718485907E+02  0.00000000000E+00 0. -1.
          2    1    1    2  501    0  0.10438365566E+03  0.20081736785E+02  0.41130233739E+03  0.42481623846E+03  0.00000000000E+00 0.  1.
<scales pt_clust_3="39.41685" pt_clust_4="14000.00000" pt_clust_5="53.41867" pt_clust_6="123.77608"></scales>
<clustering>
<clus scale="   39.417">  1  3  2 -1</clus>
<clus scale="   53.419">  2  5  1 -1</clus>
<clus scale="  123.776">  1  6  2 -1</clus>
<clus scale="   53.419">  2  3  1 -1</clus>
</clustering>
</event>
<event>
 6    0  0.3584505E+002  0.1245215E+03  0.7546771E-02  0.1235819E+00
         21   -1    0    0  504  502  0.00000000000E+00  0.00000000000E+00  0.13713367483E+04  0.13713367483E+04  0.00000000000E+00 0. -1.
         -3   -1    0    0    0  501 -0.00000000000E+00 -0.00000000000E+00 -0.18538373221E+03  0.18538373221E+03  0.00000000000E+00 0.  1.
         21    1    1    2  503  505  0.54415139193E+02  0.17089489382E+02  0.68447679565E+03  0.68684899491E+03  0.00000000000E+00 0. -1.
         21    1    1    2  504  503 -0.17616187071E+02 -0.43376739041E+02  0.55168100748E+03  0.55366398253E+03  0.00000000000E+00 0. -1.
         21    1    1    2  505  501 -0.28800014904E+02 -0.10360093294E+03  0.78533403945E+02  0.13315438295E+03  0.00000000000E+00 0. -1.
         -3    1    1    2    0  502 -0.79989372181E+01  0.12988818260E+03 -0.12873819097E+03  0.18305312013E+03  0.00000000000E+00 0.  1.
<scales pt_clust_3="44.08143" pt_clust_4="46.81743" pt_clust_5="124.52155" pt_clust_6="14000.00000"></scales>
<clustering>
<clus scale="   46.817">  1  4  2 -1</clus>
<clus scale="   44.081">  1  3  2 -1</clus>
<clus scale="  124.522">  1  5  2 -1</clus>
<clus scale="   46.817">  1  3  2 -1</clus>
</clustering>
</event>
<event>
 6    0  0.3584505E+002  0.1318736E+03  0.7546771E-02  0.1224702E+00
          2   -1    0    0  505    0 -0.00000000000E+00  0.00000000000E+00  0.29718171703E+04  0.29718171703E+04  0.00000000000E+00 0.  1.
         21   -1    0    0  504  502  0.00000000000E+00 -0.00000000000E+00 -0.27322733961E+02  0.27322733961E+02  0.00000000000E+00 0.  1.
         21    1    1    2  503  502  0.10343271978E+03 -0.26061622788E+02  0.20799373299E+03  0.23374971372E+03  0.00000000000E+00 0.  1.
         21    1    1    2  504  501 -0.34055933630E+02  0.24186886258E+02  0.11086352533E+03  0.11847165623E+03  0.00000000000E+00 0. -1.
         21    1    1    2  505  503  0.35273748880E+02 -0.48389987706E+02  0.86933300550E+02  0.10556148452E+03  0.00000000000E+00 0.  1.
          2    1    1    2  501    0 -0.10465053503E+03  0.50264724236E+02  0.25387038775E+04  0.25413570498E+04  0.00000000000E+00 0.  1.
<scales pt_clust_3="41.80877" pt_clust_4="41.77095" pt_clust_5="41.80877" pt_clust_6="118.41890"></scales>
<clustering>
<clus scale="   41.771">  2  4  1 -1</clus>
<clus scale="   41.809">  3  5 -1 -1</clus>
<clus scale="  118.419">  1  6  2 -1</clus>
<clus scale="   41.771">  2  3  1 -1</clus>
</clustering>
</event>
<event>
 6    0  0.3584505E+002  0.6842559E+02  0.7546771E-02  0.1365530E+00
         21   -1    0    0  503  502  0.00000000000E+00  0.00000000000E+00  0.10028392055E+03  0.10028392055E+03  0.00000000000E+00 0. -1.
          1   -1    0    0  504    0 -0.00000000000E+00 -0.00000000000E+00 -0.54155012972E+03  0.54155012972E+03  0.00000000000E+00 0.  1.
         21    1    1    2  503  501  0.98191350540E+01  0.52500558505E+02 -0.26256488806E+02  0.59515773212E+02  0.00000000000E+00 0. -1.
         21    1    1    2  504  505 -0.38874226068E+02 -0.39841658086E+02 -0.14040741274E+03  0.15103908343E+03  0.00000000000E+00 0. -1.
         21    1    1    2  505  502  0.63243735420E+02 -0.59092657859E+02  0.51099119064E+02  0.10051284620E+03  0.00000000000E+00 0. -1.
          1    1    1    2  501    0 -0.34188644406E+02  0.46433757439E+02 -0.32570142670E+03  0.33076634742E+03  0.00000000000E+00 0.  1.
<scales pt_clust_3="53.41090" pt_clust_4="52.87470" pt_clust_5="14000.00000" pt_clust_6="68.42559"></scales>
<clustering>
<clus scale="   53.411">  1  3  2 -1</clus>
<clus scale="   52.875">  2  4  1 -1</clus>
<clus scale="   68.426">  2  6  1 -1</clus>
<clus scale="   53.411">  1  3  2 -1</clus>
</clustering>
</event>
<event>
 6    0  0.3584505E+002  0.1258350E+03  0.7546771E-02  0.1233770E+00
         21   -1    0    0  504  502  0.00000000000E+00  0.00000000000E+00  0.46379741498E+02  0.46379741498E+02  0.00000000000E+00 0.  1.
          1   -1    0    0  503    0 -0.00000000000E+00 -0.00000000000E+00 -0.12017843179E+04  0.12017843179E+04  0.00000000000E+00 0.  1.
         21    1    1    2  503  505  0.22427352023E+02  0.46181679153E+02 -0.17801910502E+03  0.18527421667E+03  0.00000000000E+00 0.  1.
         21    1    1    2  504  501 -0.81151943863E+02  0.66738375759E+02 -0.45754486675E+03  0.46945388899E+03  0.00000000000E+00 0.  1.
         21    1    1    2  505  502  0.13192383286E+03 -0.31849268242E+02 -0.12763033499E+03  0.18630023074E+03  0.00000000000E+00 0.  1.
          1    1    1    2  501    0 -0.73199241021E+02 -0.81070786670E+02 -0.39221026960E+03  0.40713572297E+03  0.00000000000E+00 0.  1.
<scales pt_clust_3="51.33940" pt_clust_4="125.83496" pt_clust_5="14000.00000" pt_clust_6="90.08415"></scales>
<clustering>
<clus scale="   51.339">  2  3  1 -1</clus>
<clus scale="   90.084">  2  6  1 -1</clus>
<clus scale="  125.835">  2  4  1 -1</clus>
<clus scale="  125.835">  1  3  2 -1</clus>
</clustering>
</event>
<event>
 6    0  0.3584505E+002  0.9711378E+02  0.7546771E-02  0.1286485E+00
         21   -1    0    0  503  502  0.00000000000E+00  0.00000000000E+00  0.26124938858E+03  0.26124938858E+03  0.00000000000E+00 0.  1.
          1   -1    0    0  505    0 -0.00000000000E+00 -0.00000000000E+00 -0.25502703735E+03  0.25502703735E+03  0.00000000000E+00 0.  1.
         21    1    1    2  503  501 -0.87119255666E+02 -0.80726095782E+02  0.12990462057E+03  0.17601612907E+03  0.00000000000E+00 0.  1.
         21    1    1    2  504  502  0.64648833702E+02  0.48874654143E+02  0.77400111772E+02  0.11206685870E+03  0.00000000000E+00 0.  1.
         21    1    1    2  505  504  0.54854405050E+02  0.72469334932E+01 -0.61135129892E+02  0.82456218112E+02  0.00000000000E+00 0.  1.
          1    1    1    2  501    0 -0.32383983087E+02  0.24604508145E+02 -0.13994725122E+03  0.14573722004E+03  0.00000000000E+00 0.  1.
<scales pt_clust_3="97.11378" pt_clust_4="14000.00000" pt_clust_5="41.15223" pt_clust_6="40.67068"></scales>
<clustering>
<clus scale="   40.671">  2  6  1 -1</clus>
<clus scale="   41.152">  2  5  1 -1</clus>
<clus scale="   97.114">  2  3  1 -1</clus>
<clus scale="   97.114">  1  3  2 -1</clus>
</clustering>
</event>
<event>
 6    0  0.3584505E+002  0.7381728E+02  0.7546771E-02  0.1347573E+00
         21   -1    0    0  504  502  0.00000000000E+00  0.00000000000E+00  0.63594013623E+03  0.63594013623E+03  0.00000000000E+00 0. -1.
          3   -1    0    0  505    0 -0.00000000000E+00 -0.00000000000E+00 -0.76571947002E+03  0.76571947002E+03  0.00000000000E+00 0.  1.
         21    1    1    2  503  501  0.14450160656E+03 -0.32683912834E+02  0.51039662384E+02  0.15669715886E+03  0.00000000000E+00 0.  1.
         21    1    1    2  504  503 -0.62125452708E+02  0.33554262556E+02  0.50722263380E+03  0.51211352320E+03  0.00000000000E+00 0. -1.
         21    1    1    2  505  502 -0.44721679618E+02  0.22982838983E+01 -0.10235131508E+01  0.44792391272E+02  0.00000000000E+00 0.  1.
          3    1    1    2  501    0 -0.37654474238E+02 -0.31686336206E+01 -0.68701811681E+03  0.68805653292E+03  0.00000000000E+00 0.  1.
<scales pt_clust_3="14000.00000" pt_clust_4="73.81728" pt_clust_5="55.77155" pt_clust_6="37.78756"></scales>
<clustering>
<clus scale="   37.788">  2  6  1 -1</clus>
<clus scale="   55.772">  2  5  1 -1</clus>
<clus scale="   73.817">  1  4  2 -1</clus>
<clus scale="   73.817">  1  3  2 -1</clus>
</clustering>
</event>
<event>
 6    0  0.3584505E+002  0.1114938E+03  0.7546771E-02  0.1257828E+00
         21   -1    0    0  503  502  0.00000000000E+00  0.00000000000E+00  0.22564621719E+04  0.22564621719E+04  0.00000000000E+00 0.  1.
         -1   -1    0    0    0  501 -0.00000000000E+00 -0.00000000000E+00 -0.58117831422E+03  0.58117831422E+03  0.00000000000E+00 0.  1.
         21    1    1    2  503  501 -0.10557045836E+02 -0.40792939165E+02  0.18664742865E+04  0.18669498594E+04  0.00000000000E+00 0.  1.
         21    1    1    2  504  502  0.38816546353E+00  0.13560402855E+03  0.28588270407E+03  0.31641353277E+03  0.00000000000E+00 0. -1.
         21    1    1    2  505  504  0.10551047771E+02 -0.15995878061E+03  0.12120937367E+02  0.16076396743E+03  0.00000000000E+00 0. -1.
         -1    1    1    2    0  505 -0.38216739857E+00  0.65147691216E+02 -0.48919407027E+03  0.49351312658E+03  0.00000000000E+00 0.  1.
<scales pt_clust_3="42.13686" pt_clust_4="14000.00000" pt_clust_5="111.49384" pt_clust_6="64.92316"></scales>
<clustering>
<clus scale="   42.137">  1  3  2 -1</clus>
<clus scale="   64.923">  2  6  1 -1</clus>
<clus scale="  111.494">  2  5  1 -1</clus>
<clus scale="   42.137">  1  3  2 -1</clus>
</clustering>
</event>
<event>
 6    0  0.3584505E+002  0.8407221E+02  0.7546771E-02  0.1317877E+00
          1   -1    0    0  505    0 -0.00000000000E+00  0.00000000000E+00  0.26618509440E+04  0.26618509440E+04  0.00000000000E+00 0.  1.
         21   -1    0    0  503  502  0.00000000000E+00 -0.00000000000E+00 -0.55097040689E+02  0.55097040689E+02  0.00000000000E+00 0.  1.
         21    1    1    2  503  504 -0.47501601441E+02 -0.11158059110E+02  0.97096758649E+01  0.49751203282E+02  0.00000000000E+00 0.  1.
         21    1    1    2  504  501 -0.41872845086E+02  0.91646438112E+02  0.19143067914E+03  0.21632870750E+03  0.00000000000E+00 0.  1.
         21    1    1    2  505  502  0.51716157339E+02 -0.66161352008E+02  0.56058375508E+02  0.10096745463E+03  0.00000000000E+00 0.  1.
          1    1    1    2  501    0  0.37658289188E+02 -0.14327026994E+02  0.23495551728E+04  0.23499006192E+04  0.00000000000E+00 0.  1.
<scales pt_clust_3="45.66517" pt_clust_4="14000.00000" pt_clust_5="84.07221" pt_clust_6="40.29157"></scales>
<clustering>
<clus scale="   40.292">  1  6  2 -1</clus>
<clus scale="   45.665">  2  3  1 -1</clus>
<clus scale="   84.072">  2  5  1 -1</clus>
<clus scale="   45.665">  2  3  1 -1</clus>
</clustering>
</event>
<event>
 6    0  0.3584505E+002  0.1415673E+03  0.7546771E-02  0.1211235E+00
         21   -1    0    0  501  502  0.00000000000E+00  0.00000000000E+00  0.11758169111E+04  0.11758169111E+04  0.00000000000E+00 0.  1.
          2   -1    0    0  504    0 -0.00000000000E+00 -0.00000000000E+00 -0.13507979539E+04  0.13507979539E+04  0.00000000000E+00 0. -1.
         21    1    1    2  503  502  0.41685976519E+02  0.58091525936E+01  0.10706769834E+04  0.10715039289E+04  0.00000000000E+00 0.  1.
         21    1    1    2  504  505 -0.91763346534E+02  0.35991976903E+02 -0.25014359560E+03  0.26886381793E+03  0.00000000000E+00 0.  1.
         21    1    1    2  505  503  0.93104885379E+02  0.59116957252E+02  0.59656453973E+02  0.12538830415E+03  0.00000000000E+00 0.  1.
          2    1    1    2  501    0 -0.43027515364E+02 -0.10091808675E+03 -0.10551708846E+04  0.10608588139E+04  0.00000000000E+00 0. -1.
<scales pt_clust_3="42.08880" pt_clust_4="95.30836" pt_clust_5="14000.00000" pt_clust_6="141.56729"></scales>
<clustering>
<clus scale="   42.089">  1  3  2 -1</clus>
<clus scale="   95.308">  2  4  1 -1</clus>
<clus scale="  141.567">  2  6  1 -1</clus>
<clus scale="   42.089">  1  3  2 -1</clus>
</clustering>
</event>
<event>
 6    0  0.3584505E+002  0.1059847E+03  0.7546771E-02  0.1268192E+00
          1   -1    0    0  502    0 -0.00000000000E+00  0.00000000000E+00  0.98760382347E+03  0.98760382347E+03  0.00000000000E+00 0.  1.
         21   -1    0    0  504  502  0.00000000000E+00 -0.00000000000E+00 -0.52025764292E+02  0.52025764292E+02  0.00000000000E+00 0. -1.
         21    1    1    2  503  501  0.21098736990E+01  0.99054707428E+02  0.29510073890E+03  0.31128882526E+03  0.00000000000E+00 0.  1.
         21    1    1    2  504  505  0.13941868868E+02 -0.39255306625E+02 -0.38530890581E+01  0.41835404875E+02  0.00000000000E+00 0. -1.
         21    1    1    2  505  503 -0.25699312372E+02 -0.90579528559E+02  0.86854080061E+02  0.12809659197E+03  0.00000000000E+00 0. -1.
          1    1    1    2  501    0  0.96475698048E+01  0.30780127756E+02  0.55747632927E+03  0.55840876566E+03  0.00000000000E+00 0.  1.
<scales pt_clust_3="14000.00000" pt_clust_4="40.52734" pt_clust_5="105.98470" pt_clust_6="32.25666"></scales>
<clustering>
<clus scale="   32.257">  1  6  2 -1</clus>
<clus scale="   40.527">  2  4  1 -1</clus>
<clus scale="  105.985">  2  5  1 -1</clus>
<clus scale="   40.527">  2  3  1 -1</clus>
</clustering>
</event>
<event>
 6    0  0.3584505E+002  0.1558057E+03  0.7546771E-02  0.1193515E+00
          4   -1    0    0  505    0 -0.00000000000E+00  0.00000000000E+00  0.10178484679E+03  0.10178484679E+03  0.00000000000E+00 0. -1.
         21   -1    0    0  504  502  0.00000000000E+00 -0.00000000000E+00 -0.90030317999E+03  0.90030317999E+03  0.00000000000E+00 0. -1.
         21    1    1    2  503  501 -0.10415062064E+03  0.15377700728E+03 -0.30419288211E+03  0.35640991747E+03  0.00000000000E+00 0. -1.
         21    1    1    2  504  503  0.31635375019E+02 -0.15379652690E+00 -0.17029542136E+03  0.17320898113E+03  0.00000000000E+00 0. -1.
         21    1    1    2  505  502  0.24012511223E+02 -0.13847339251E+03 -0.37501629168E+03  0.40048558045E+03  0.00000000000E+00 0. -1.
          4    1    1    2  501    0  0.48502734395E+02 -0.15149818242E+02  0.50986261947E+02  0.71983547730E+02  0.00000000000E+00 0. -1.
<scales pt_clust_3="14000.00000" pt_clust_4="31.63575" pt_clust_5="155.80572" pt_clust_6="51.24968"></scales>
<clustering>
<clus scale="   31.636">  2  4  1 -1</clus>
<clus scale="   51.250">  1  6  2 -1</clus>
<clus scale="  155.806">  2  5  1 -1</clus>
<clus scale="   31.636">  2  3  1 -1</clus>
</clustering>
</event>
<event>
 6    0  0.3584505E+002  0.1025405E+03  0.7546771E-02  0.1275042E+00
         21   -1    0    0  505  502  0.00000000000E+00  0.00000000000E+00  0.19848309564E+03  0.19848309564E+03  0.00000000000E+00 0.  1.
          1   -1    0    0  503    0 -0.00000000000E+00 -0.00000000000E+00 -0.60192019337E+03  0.60192019337E+03  0.00000000000E+00 0.  1.
         21    1    1    2  503  502 -0.21414089989E+02  0.22564419307E+02  0.14548033150E+03  0.14876909330E+03  0.00000000000E+00 0.  1.
         21    1    1    2  504  501 -0.17791806395E+02 -0.83287202280E+02 -0.11630956780E+03  0.14415693532E+03  0.00000000000E+00 0.  1.
         21    1    1    2  505  504 -0.19184175988E+02 -0.35993428548E+02  0.16781813259E+02  0.44104294159E+02  0.00000000000E+00 0.  1.
          1    1    1    2  501    0  0.58390072372E+02  0.96716211522E+02 -0.44938967469E+03  0.46337296623E+03  0.00000000000E+00 0.  1.
<scales pt_clust_3="31.10814" pt_clust_4="14000.00000" pt_clust_5="39.08657" pt_clust_6="102.54054"></scales>
<clustering>
<clus scale="   31.108">  1  3  2 -1</clus>
<clus scale="   39.087">  1  5  2 -1</clus>
<clus scale="  102.541">  2  6  1 -1</clus>
<clus scale="   31.108">  1  3  2 -1</clus>
</clustering>
</event>
<event>
 6    0  0.3584505E+002  0.1024949E+03  0.7546771E-02  0.1275135E+00
         21   -1    0    0  501  502  0.00000000000E+00  0.00000000000E+00  0.28429555687E+02  0.28429555687E+02  0.00000000000E+00 0. -1.
          2   -1    0    0  505    0 -0.00000000000E+00 -0.00000000000E+00 -0.12196929866E+04  0.12196929866E+04  0.00000000000E+00 0.  1.
         21    1    1    2  503  502 -0.96871802572E+01 -0.35252904101E+02 -0.96624177961E+02  0.10330944040E+03  0.00000000000E+00 0. -1.
         21    1    1    2  504  503  0.45687084442E+02  0.78532702207E+02 -0.14140715826E+03  0.16807938424E+03  0.00000000000E+00 0. -1.
         21    1    1    2  505  504  0.80068850168E+02  0.13021657268E+02 -0.29332145212E+03  0.30433215177E+03  0.00000000000E+00 0. -1.
          2    1    1    2  501    0 -0.11606875435E+03 -0.56301455374E+02 -0.65991064257E+03  0.67240156588E+03  0.00000000000E+00 0.  1.
<scales pt_clust_3="36.55966" pt_clust_4="72.23858" pt_clust_5="102.49492" pt_clust_6="14000.00000"></scales>
<clustering>
<clus scale="   36.560">  1  3  2 -1</clus>
<clus scale="   72.239">  1  4  2 -1</clus>
<clus scale="  102.495">  2  5  1 -1</clus>
<clus scale="   36.560">  1  3  2 -1</clus>
</clustering>
</event>
<event>
 6    0  0.3584505E+002  0.6578665E+02  0.7546771E-02  0.1375037E+00
          1   -1    0    0  504    0 -0.00000000000E+00  0.00000000000E+00  0.41997087015E+03  0.41997087015E+03  0.00000000000E+00 0.  1.
         21   -1    0    0  505  502  0.00000000000E+00 -0.00000000000E+00 -0.98381214265E+02  0.98381214265E+02  0.00000000000E+00 0.  1.
         21    1    1    2  503  501  0.16562098074E+02  0.79116344268E+02  0.96592682460E+02  0.12595175794E+03  0.00000000000E+00 0.  1.
         21    1    1    2  504  502 -0.51382483175E+01 -0.79152322438E+02  0.16082726812E+02  0.80932971309E+02  0.00000000000E+00 0.  1.
         21    1    1    2  505  503  0.41963600114E+02  0.34317069922E+02 -0.31585484977E+02  0.62739524096E+02  0.00000000000E+00 0.  1.
          1    1    1    2  501    0 -0.53387449871E+02 -0.34281091752E+02  0.24049973159E+03  0.24872783108E+03  0.00000000000E+00 0.  1.
<scales pt_clust_3="14000.00000" pt_clust_4="65.78665" pt_clust_5="54.20890" pt_clust_6="59.12261"></scales>
<clustering>
<clus scale="   54.209">  2  5  1 -1</clus>
<clus scale="   59.123">  1  6  2 -1</clus>
<clus scale="   65.787">  2  4  1 -1</clus>
<clus scale="   54.209">  2  3  1 -1</clus>
</clustering>
</event>
<event>
 6    0  0.3584505E+002  0.7277001E+02  0.7546771E-02  0.1350919E+00
         21   -1    0    0  504  502  0.00000000000E+00  0.00000000000E+00  0.46581938484E+03  0.46581938484E+03  0.00000000000E+00 0.  1.
          4   -1    0    0  505    0 -0.00000000000E+00 -0.00000000000E+00 -0.20902621799E+03  0.20902621799E+03  0.00000000000E+00 0. -1.
         21    1    1    2  503  501  0.30497612323E+02  0.56047032786E+02  0.79578507643E+02  0.10200055451E+03  0.00000000000E+00 0.  1.
         21    1    1    2  504  503 -0.30870043392E+02 -0.10773408943E+02  0.19593771945E+02  0.38117473924E+02  0.00000000000E+00 0.  1.
         21    1    1    2  505  502  0.60297099522E+02 -0.85602771682E+02  0.33086007232E+03  0.34703308514E+03  0.00000000000E+00 0.  1.
          4    1    1    2  501    0 -0.59924668453E+02  0.40329147840E+02 -0.17323918506E+03  0.18769448925E+03  0.00000000000E+00 0. -1.
<scales pt_clust_3="58.95241" pt_clust_4="32.69596" pt_clust_5="14000.00000" pt_clust_6="72.77001"></scales>
<clustering>
<clus scale="   32.696">  1  4  2 -1</clus>
<clus scale="   58.952">  1  3  2 -1</clus>
<clus scale="   72.770">  2  6  1 -1</clus>
<clus scale="   32.696">  1  3  2 -1</clus>
</clustering>
</event>
<event>
 6    0  0.3584505E+002  0.8757413E+02  0.7546771E-02  0.1308835E+00
          2   -1    0    0  505    0 -0.00000000000E+00  0.00000000000E+00  0.62706441454E+03  0.62706441454E+03  0.00000000000E+00 0. -1.
         21   -1    0    0  503  502  0.00000000000E+00 -0.00000000000E+00 -0.72523256902E+02  0.72523256902E+02  0.00000000000E+00 0. -1.
         21    1    1    2  503  501 -0.56467402681E+00  0.43959133097E+02  0.61194177557E+02  0.75348865992E+02  0.00000000000E+00 0. -1.
         21    1    1    2  504  502 -0.18059563200E+02  0.85243566272E+02 -0.17666402030E+02  0.88908465145E+02  0.00000000000E+00 0. -1.
         21    1    1    2  505  504  0.14386415116E+02 -0.88778963489E+02  0.17394459747E+03  0.19581980566E+03  0.00000000000E+00 0. -1.
          2    1    1    2  501    0  0.42378221111E+01 -0.40423735881E+02  0.33706878464E+03  0.33951053464E+03  0.00000000000E+00 0. -1.
<scales pt_clust_3="34.40502" pt_clust_4="87.57413" pt_clust_5="14000.00000" pt_clust_6="40.64526"></scales>
<clustering>
<clus scale="   40.645">  1  6  2 -1</clus>
<clus scale="   34.405">  1  3  2 -1</clus>
<clus scale="   87.574">  2  4  1 -1</clus>
<clus scale="   87.574">  2  3  1 -1</clus>
</clustering>
</event>
<event>
 6    0  0.3584505E+002  0.9627772E+02  0.7546771E-02  0.1288324E+00
         21   -1    0    0  505  502  0.00000000000E+00  0.00000000000E+00  0.98164090968E+03  0.98164090968E+03  0.00000000000E+00 0.  1.
          2   -1    0    0  504    0 -0.00000000000E+00 -0.00000000000E+00 -0.15549201571E+04  0.15549201571E+04  0.00000000000E+00 0. -1.
         21    1    1    2  503  501 -0.80734620303E+02  0.28755294262E+02 -0.29591305952E+01  0.85753730633E+02  0.00000000000E+00 0.  1.
         21    1    1    2  504  502  0.77519600270E+02 -0.76299507629E+02 -0.56967370251E+02  0.12278511540E+03  0.00000000000E+00 0.  1.
         21    1    1    2  505  503 -0.56511767070E+02  0.77560369133E+02  0.90400741044E+03  0.90908667838E+03  0.00000000000E+00 0.  1.
          2    1    1    2  501    0  0.59726787102E+02 -0.30016155766E+02 -0.14173601570E+04  0.14189355423E+04  0.00000000000E+00 0. -1.
<scales pt_clust_3="64.24499" pt_clust_4="96.27772" pt_clust_5="14000.00000" pt_clust_6="66.84504"></scales>
<clustering>
<clus scale="   66.845">  2  6  1 -1</clus>
<clus scale="   64.245">  2  3  1 -1</clus>
<clus scale="   96.278">  2  4  1 -1</clus>
<clus scale="   96.278">  1  3  2 -1</clus>
</clustering>
</event>
<event>
 6    0  0.3584505E+002  0.3587675E+03  0.7546771E-02  0.1059073E+00
          2   -1    0    0  505    0 -0.00000000000E+00  0.00000000000E+00  0.11363373812E+04  0.11363373812E+04  0.00000000000E+00 0. -1.
         21   -1    0    0  504  502  0.00000000000E+00 -0.00000000000E+00 -0.64407616019E+03  0.64407616019E+03  0.00000000000E+00 0.  1.
         21    1    1    2  503  502 -0.37830159911E+02  0.15939943708E+02 -0.79567092168E+02  0.89532814992E+02  0.00000000000E+00 0.  1.
         21    1    1    2  504  501  0.31436460705E+03  0.22654699802E+03  0.18410271539E+03  0.42900169964E+03  0.00000000000E+00 0.  1.
         21    1    1    2  505  503 -0.24996294943E+03 -0.22754682449E+03 -0.37137091792E+03  0.50217068025E+03  0.00000000000E+00 0.  1.
          2    1    1    2  501    0 -0.26571497704E+02 -0.14940117244E+02  0.75909651572E+03  0.75970834652E+03  0.00000000000E+00 0. -1.
<scales pt_clust_3="41.29946" pt_clust_4="14000.00000" pt_clust_5="358.76753" pt_clust_6="30.48363"></scales>
<clustering>
<clus scale="   30.484">  1  6  2 -1</clus>
<clus scale="   41.299">  2  3  1 -1</clus>
<clus scale="  358.768">  2  5  1 -1</clus>
<clus scale="   41.299">  2  3  1 -1</clus>
</clustering>
</event>
<event>
 6    0  0.3584505E+002  0.1159997E+03  0.7546771E-02  0.1249846E+00
         21   -1    0    0  501  502  0.00000000000E+00  0.00000000000E+00  0.48993503110E+03  0.48993503110E+03  0.00000000000E+00 0.  1.
          2   -1    0    0  505    0 -0.00000000000E+00 -0.00000000000E+00 -0.20664541634E+04  0.20664541634E+04  0.00000000000E+00 0.  1.
         21    1    1    2  503  504 -0.57522773632E+02 -0.63225557986E+02  0.18924464441E+03  0.20765325932E+03  0.00000000000E+00 0.  1.
         21    1    1    2  504  502 -0.23526012066E+02 -0.21443618202E+02  0.28359320833E+03  0.28537415758E+03  0.00000000000E+00 0.  1.
         21    1    1    2  505  503  0.72193311723E+02 -0.57959198632E+02 -0.10085426431E+04  0.10127830004E+04  0.00000000000E+00 0.  1.
          2    1    1    2  501    0  0.88554739746E+01  0.14262837482E+03 -0.10408143419E+04  0.10505787772E+04  0.00000000000E+00 0.  1.
<scales pt_clust_3="14000.00000" pt_clust_4="31.83240" pt_clust_5="92.53026" pt_clust_6="115.99966"></scales>
<clustering>
<clus scale="   31.832">  1  4  2 -1</clus>
<clus scale="   92.530">  2  5  1 -1</clus>
<clus scale="  116.000">  2  6  1 -1</clus>
<clus scale="   31.832">  1  3  2 -1</clus>
</clustering>
</event>
<event>
 6    0  0.3584505E+002  0.2524820E+03  0.7546771E-02  0.1111746E+00
          2   -1    0    0  503    0 -0.00000000000E+00  0.00000000000E+00  0.17586526494E+04  0.17586526494E+04  0.00000000000E+00 0. -1.
         21   -1    0    0  504  502  0.00000000000E+00 -0.00000000000E+00 -0.18813887803E+03  0.18813887803E+03  0.00000000000E+00 0.  1.
         21    1    1    2  503  502  0.18601701575E+03 -0.14088476065E+03  0.76831328269E+03  0.80296708917E+03  0.00000000000E+00 0.  1.
         21    1    1    2  504  505 -0.99412268213E+02  0.60239148169E+02 -0.60334781241E+02  0.13096503301E+03  0.00000000000E+00 0.  1.
         21    1    1    2  505  501 -0.66151246785E+02  0.11519191868E+03 -0.15652774726E+02  0.13375415858E+03  0.00000000000E+00 0.  1.
          2    1    1    2  501    0 -0.20453500747E+02 -0.34546306196E+02  0.87818804464E+03  0.87910524666E+03  0.00000000000E+00 0. -1.
<scales pt_clust_3="240.06740" pt_clust_4="73.51002" pt_clust_5="73.51002" pt_clust_6="40.14714"></scales>
<clustering>
<clus scale="   40.147">  1  6  2 -1</clus>
<clus scale="   73.510">  4  5 -1 -1</clus>
<clus scale="  240.067">  1  3  2 -1</clus>
<clus scale="  252.482">  2  3  1 -1</clus>
</clustering>
</event>
<event>
 6    0  0.3584505E+002  0.1747009E+03  0.7546771E-02  0.1173032E+00
         21   -1    0    0  504  502  0.00000000000E+00  0.00000000000E+00  0.37675885925E+02  0.37675885925E+02  0.00000000000E+00 0. -1.
          2   -1    0    0  505    0 -0.00000000000E+00 -0.00000000000E+00 -0.45665010097E+04  0.45665010097E+04  0.00000000000E+00 0.  1.
         21    1    1    2  503  502 -0.33866438135E+02  0.56862260618E+01 -0.42109543345E+02  0.54336750358E+02  0.00000000000E+00 0.  1.
         21    1    1    2  504  501  0.16853957586E+03 -0.72549659466E+02 -0.41119557070E+03  0.45027862384E+03  0.00000000000E+00 0. -1.
         21    1    1    2  505  503 -0.12787637997E+03  0.18836277703E+03 -0.11963047120E+04  0.12177757873E+04  0.00000000000E+00 0. -1.
          2    1    1    2  501    0 -0.67967577591E+01 -0.12149934363E+03 -0.28792152978E+04  0.28817857341E+04  0.00000000000E+00 0.  1.
<scales pt_clust_3="34.34048" pt_clust_4="14000.00000" pt_clust_5="174.70092" pt_clust_6="121.54309"></scales>
<clustering>
<clus scale="   34.340">  1  3  2 -1</clus>
<clus scale="  121.543">  2  6  1 -1</clus>
<clus scale="  174.701">  2  5  1 -1</clus>
<clus scale="   34.340">  1  3  2 -1</clus>
</clustering>
</event>
<event>
 6    0  0.3584505E+002  0.7857461E+02  0.7546771E-02  0.1333146E+00
         -1   -1    0    0    0  501 -0.00000000000E+00  0.00000000000E+00  0.47135624827E+03  0.47135624827E+03  0.00000000000E+00 0.  1.
         21   -1    0    0  505  502  0.00000000000E+00 -0.00000000000E+00 -0.33335462445E+03  0.33335462445E+03  0.00000000000E+00 0.  1.
         21    1    1    2  503  501 -0.76698740659E+02  0.51579522763E+02  0.11977600835E+03  0.15129255158E+03  0.00000000000E+00 0.  1.
         21    1    1    2  504  502  0.65671690934E+01  0.54360727558E+02 -0.21542295533E+03  0.22227295403E+03  0.00000000000E+00 0.  1.
         21    1    1    2  505  503  0.24483679696E+02 -0.45481494941E+02 -0.87267871815E+02  0.10140857165E+03  0.00000000000E+00 0.  1.
         -1    1    1    2    0  504  0.45647891869E+02 -0.60458755379E+02  0.32091644262E+03  0.32973679545E+03  0.00000000000E+00 0.  1.
<scales pt_clust_3="14000.00000" pt_clust_4="31.65195" pt_clust_5="51.65285" pt_clust_6="78.57461"></scales>
<clustering>
<clus scale="   51.653">  2  5  1 -1</clus>
<clus scale="   31.652">  2  4  1 -1</clus>
<clus scale="   78.575">  1  6  2 -1</clus>
<clus scale="   51.653">  2  3  1 -1</clus>
</clustering>
</event>
<event>
 6    0  0.4064413E+002  0.1150829E+03  0.7546771E-02  0.1251436E+00
         -4   -1    0    0    0  501 -0.00000000000E+00  0.00000000000E+00  0.22459393731E+04  0.22459393731E+04  0.00000000000E+00 0. -1.
         21   -1    0    0  503  502  0.00000000000E+00 -0.00000000000E+00 -0.54732384601E+03  0.54732384601E+03  0.00000000000E+00 0. -1.
         21    1    1    2  503  504 -0.31163190411E+02  0.32154381600E+02 -0.28055033358E+03  0.28410128188E+03  0.00000000000E+00 0. -1.
         21    1    1    2  504  501 -0.34314000194E+02 -0.82454364893E+02  0.15293573324E+02  0.90609416090E+02  0.00000000000E+00 0. -1.
         21    1    1    2  505  502 -0.30392773880E+02 -0.16264615338E+02 -0.22446933599E+03  0.22710072923E+03  0.00000000000E+00 0. -1.
         -4    1    1    2    0  505  0.95869964485E+02  0.66564598631E+02  0.21883416233E+04  0.21914517919E+04  0.00000000000E+00 0. -1.
<scales pt_clust_3="60.54761" pt_clust_4="14000.00000" pt_clust_5="34.47112" pt_clust_6="115.08292"></scales>
<clustering>
<clus scale="   34.471">  2  5  1 -1</clus>
<clus scale="   60.548">  2  3  1 -1</clus>
<clus scale="  115.083">  1  6  2 -1</clus>
<clus scale="   34.471">  2  3  1 -1</clus>
</clustering>
</event>
<event>
 6    0  0.3584505E+002  0.1660645E+03  0.7546771E-02  0.1182015E+00
          1   -1    0    0  504    0 -0.00000000000E+00  0.00000000000E+00  0.73276904331E+03  0.73276904331E+03  0.00000000000E+00 0.  1.
         21   -1    0    0  503  502  0.00000000000E+00 -0.00000000000E+00 -0.17184513515E+04  0.17184513515E+04  0.00000000000E+00 0.  1.
         21    1    1    2  503  505 -0.28490370636E+03  0.23078219735E+02 -0.71322721055E+03  0.76837216242E+03  0.00000000000E+00 0.  1.
         21    1    1    2  504  502  0.12425029123E+03 -0.26275077315E+02 -0.96383493516E+03  0.97216577640E+03  0.00000000000E+00 0.  1.
         21    1    1    2  505  501  0.82710122033E+02  0.16070604823E+02  0.31289260772E+03  0.32403859738E+03  0.00000000000E+00 0. -1.
          1    1    1    2  501    0  0.77943293088E+02 -0.12873747243E+02  0.37848722979E+03  0.38664385863E+03  0.00000000000E+00 0.  1.
<scales pt_clust_3="162.27654" pt_clust_4="126.99809" pt_clust_5="34.14857" pt_clust_6="34.14857"></scales>
<clustering>
<clus scale="   34.149">  5  6 -1 -1</clus>
<clus scale="  126.998">  2  4  1 -1</clus>
<clus scale="  162.277">  2  3  1 -1</clus>
<clus scale="  126.998">  2  3  1 -1</clus>
</clustering>
</event>
<event>
 6    0  0.3584505E+002  0.1003363E+03  0.7546771E-02  0.1279590E+00
         21   -1    0    0  504  502  0.00000000000E+00  0.00000000000E+00  0.47057468202E+03  0.47057468202E+03  0.00000000000E+00 0. -1.
          2   -1    0    0  503    0 -0.00000000000E+00 -0.00000000000E+00 -0.19303978706E+04  0.19303978706E+04  0.00000000000E+00 0.  1.
         21    1    1    2  503  505 -0.22207779786E+02 -0.10236638673E+03 -0.93037024831E+03  0.93624829055E+03  0.00000000000E+00 0.  1.
         21    1    1    2  504  501 -0.24192498219E+02 -0.24016813677E+02 -0.13836016232E+02  0.36790211395E+02  0.00000000000E+00 0. -1.
         21    1    1    2  505  502  0.10364237116E+03  0.85822258229E+02  0.44492761038E+03  0.46483091505E+03  0.00000000000E+00 0. -1.
          2    1    1    2  501    0 -0.57242093156E+02  0.40560942182E+02 -0.96054453439E+03  0.96310313560E+03  0.00000000000E+00 0.  1.
<scales pt_clust_3="14000.00000" pt_clust_4="34.08936" pt_clust_5="100.33630" pt_clust_6="70.17225"></scales>
<clustering>
<clus scale="   34.089">  1  4  2 -1</clus>
<clus scale="   70.172">  2  6  1 -1</clus>
<clus scale="  100.336">  1  5  2 -1</clus>
<clus scale="   34.089">  1  3  2 -1</clus>
</clustering>
</event>
<event>
 6    0  0.3584505E+002  0.1437312E+03  0.7546771E-02  0.1208395E+00
          1   -1    0    0  504    0 -0.00000000000E+00  0.00000000000E+00  0.16937985321E+04  0.16937985321E+04  0.00000000000E+00 0. -1.
         21   -1    0    0  503  502  0.00000000000E+00 -0.00000000000E+00 -0.26330295737E+03  0.26330295737E+03  0.00000000000E+00 0. -1.
         21    1    1    2  503  501 -0.98692366955E+02 -0.37216592822E+02  0.11093627945E+04  0.11143657693E+04  0.00000000000E+00 0. -1.
         21    1    1    2  504  505  0.13043181520E+03 -0.15453908183E+02  0.75487933202E+02  0.15149161612E+03  0.00000000000E+00 0. -1.
         21    1    1    2  505  502  0.19800375132E+01  0.34204336974E+02 -0.22068675405E+03  0.22333047403E+03  0.00000000000E+00 0. -1.
          1    1    1    2  501    0 -0.33719485762E+02  0.18466164031E+02  0.46633160109E+03  0.46791362997E+03  0.00000000000E+00 0. -1.
<scales pt_clust_3="32.57218" pt_clust_4="133.22109" pt_clust_5="34.26160" pt_clust_6="32.57218"></scales>
<clustering>
<clus scale="   32.572">  3  6 -1 -1</clus>
<clus scale="   34.262">  2  5  1 -1</clus>
<clus scale="  133.221">  2  4  1 -1</clus>
<clus scale="   34.262">  2  3  1 -1</clus>
</clustering>
</event>
<event>
 6    0  0.3584505E+002  0.7640712E+02  0.7546771E-02  0.1339568E+00
          2   -1    0    0  503    0 -0.00000000000E+00  0.00000000000E+00  0.16439579481E+04  0.16439579481E+04  0.00000000000E+00 0. -1.
         21   -1    0    0  505  502  0.00000000000E+00 -0.00000000000E+00 -0.23496040277E+03  0.23496040277E+03  0.00000000000E+00 0. -1.
         21    1    1    2  503  504 -0.11718210252E+03 -0.44149276465E+02  0.12702731423E+03  0.17837248197E+03  0.00000000000E+00 0. -1.
         21    1    1    2  504  502  0.41907576398E+02  0.12152753406E+02 -0.15326556922E+03  0.15935579401E+03  0.00000000000E+00 0. -1.
         21    1    1    2  505  501  0.35406701801E+02 -0.32110273217E+02 -0.41031158366E+02  0.62994127784E+02  0.00000000000E+00 0. -1.
          2    1    1    2  501    0  0.39867824320E+02  0.64106796276E+02  0.14762669587E+04  0.14781959471E+04  0.00000000000E+00 0. -1.
<scales pt_clust_3="76.40712" pt_clust_4="43.63410" pt_clust_5="67.55585" pt_clust_6="14000.00000"></scales>
<clustering>
<clus scale="   43.634">  2  4  1 -1</clus>
<clus scale="   67.556">  2  5  1 -1</clus>
<clus scale="   76.407">  2  3  1 -1</clus>
<clus scale="   43.634">  2  3  1 -1</clus>
</clustering>
</event>
<event>
 6    0  0.3584505E+002  0.7977678E+02  0.7546771E-02  0.1329686E+00
         21   -1    0    0  505  502  0.00000000000E+00  0.00000000000E+00  0.89432088345E+02  0.89432088345E+02  0.00000000000E+00 0.  1.
          1   -1    0    0  503    0 -0.00000000000E+00 -0.00000000000E+00 -0.32713130077E+03  0.32713130077E+03  0.00000000000E+00 0.  1.
         21    1    1    2  503  504  0.92149034662E+02 -0.25264370012E+02 -0.34910255805E+02  0.10172737558E+03  0.00000000000E+00 0.  1.
         21    1    1    2  504  502 -0.36601637587E+02  0.32715223244E+01  0.16828593963E+02  0.40417623720E+02  0.00000000000E+00 0.  1.
         21    1    1    2  505  501 -0.82327415236E+02 -0.29597166711E+02 -0.64281058115E+02  0.10856265476E+03  0.00000000000E+00 0.  1.
          1    1    1    2  501    0  0.26780018162E+02  0.51590014399E+02 -0.15533649247E+03  0.16585573506E+03  0.00000000000E+00 0.  1.
<scales pt_clust_3="14000.00000" pt_clust_4="36.74755" pt_clust_5="79.77678" pt_clust_6="56.99505"></scales>
<clustering>
<clus scale="   36.748">  1  4  2 -1</clus>
<clus scale="   56.995">  2  6  1 -1</clus>
<clus scale="   79.777">  2  5  1 -1</clus>
<clus scale="   36.748">  1  3  2 -1</clus>
</clustering>
</event>
<event>
 6    0  0.3584505E+002  0.8681788E+02  0.7546771E-02  0.1310746E+00
         21   -1    0    0  504  502  0.00000000000E+00  0.00000000000E+00  0.27147532010E+03  0.27147532010E+03  0.00000000000E+00 0.  1.
         -2   -1    0    0    0  501 -0.00000000000E+00 -0.00000000000E+00 -0.56464654694E+03  0.56464654694E+03  0.00000000000E+00 0.  1.
         21    1    1    2  503  501  0.66020032147E+02  0.31380192328E+02 -0.41771959796E+02  0.84191791408E+02  0.00000000000E+00 0.  1.
         21    1    1    2  504  503  0.64880219127E+02  0.54865873831E+02  0.21260790010E+03  0.22895813182E+03  0.00000000000E+00 0.  1.
         21    1    1    2  505  502 -0.77730819988E+02 -0.83975219975E+02 -0.91038374005E+02  0.14622552269E+03  0.00000000000E+00 0.  1.
         -2    1    1    2    0  505 -0.53169431286E+02 -0.22708461840E+01 -0.37296879314E+03  0.37674642111E+03  0.00000000000E+00 0.  1.
<scales pt_clust_3="57.25549" pt_clust_4="86.81788" pt_clust_5="14000.00000" pt_clust_6="53.21790"></scales>
<clustering>
<clus scale="   53.218">  2  6  1 -1</clus>
<clus scale="   57.255">  2  3  1 -1</clus>
<clus scale="   86.818">  1  4  2 -1</clus>
<clus scale="   86.818">  1  3  2 -1</clus>
</clustering>
</event>
<event>
 6    0  0.3584505E+002  0.1004133E+03  0.7546771E-02  0.1279429E+00
         21   -1    0    0  505  502  0.00000000000E+00  0.00000000000E+00  0.17406735326E+03  0.17406735326E+03  0.00000000000E+00 0. -1.
          2   -1    0    0  503    0 -0.00000000000E+00 -0.00000000000E+00 -0.61488530523E+03  0.61488530523E+03  0.00000000000E+00 0. -1.
         21    1    1    2  503  504  0.62324657383E+02 -0.57661850606E+02  0.53372400897E+02  0.10028890821E+03  0.00000000000E+00 0. -1.
         21    1    1    2  504  502  0.33568042357E+02  0.65325917340E+01  0.73025729550E+02  0.80636501652E+02  0.00000000000E+00 0. -1.
         21    1    1    2  505  501 -0.59169153619E+02  0.83905131214E+02 -0.11922159145E+03  0.15733673332E+03  0.00000000000E+00 0. -1.
          2    1    1    2  501    0 -0.36723546121E+02 -0.32775872342E+02 -0.44799449096E+03  0.45069051530E+03  0.00000000000E+00 0. -1.
<scales pt_clust_3="100.41329" pt_clust_4="34.19778" pt_clust_5="14000.00000" pt_clust_6="48.81583"></scales>
<clustering>
<clus scale="   34.198">  1  4  2 -1</clus>
<clus scale="   48.816">  2  6  1 -1</clus>
<clus scale="  100.413">  1  3  2 -1</clus>
<clus scale="   34.198">  1  3  2 -1</clus>
</clustering>
</event>
<event>
 6    0  0.3584505E+002  0.6688375E+02  0.7546771E-02  0.1371022E+00
          2   -1    0    0  503    0 -0.00000000000E+00  0.00000000000E+00  0.22648327434E+04  0.22648327434E+04  0.00000000000E+00 0. -1.
         21   -1    0    0  505  502  0.00000000000E+00 -0.00000000000E+00 -0.51678332569E+02  0.51678332569E+02  0.00000000000E+00 0. -1.
         21    1    1    2  503  502 -0.36571940787E+02 -0.23375730042E+02  0.53147390048E+02  0.68619069338E+02  0.00000000000E+00 0. -1.
         21    1    1    2  504  501  0.90396852874E+02  0.79766591325E+01  0.31577179586E+03  0.32855295640E+03  0.00000000000E+00 0. -1.
         21    1    1    2  505  504 -0.14176123686E+02  0.69751774998E+02 -0.26517291645E+01  0.71227131528E+02  0.00000000000E+00 0. -1.
          2    1    1    2  501    0 -0.39648788401E+02 -0.54352704089E+02  0.18468869541E+04  0.18481119187E+04  0.00000000000E+00 0. -1.
<scales pt_clust_3="43.40428" pt_clust_4="66.88375" pt_clust_5="67.28986" pt_clust_6="14000.00000"></scales>
<clustering>
<clus scale="   43.404">  2  3  1 -1</clus>
<clus scale="   67.290">  2  5  1 -1</clus>
<clus scale="   66.884">  2  4  1 -1</clus>
<clus scale="   43.404">  2  3  1 -1</clus>
</clustering>
</event>
<event>
 6    0  0.3584505E+002  0.1298460E+03  0.7546771E-02  0.1227684E+00
          2   -1    0    0  503    0 -0.00000000000E+00  0.00000000000E+00  0.81809869715E+03  0.81809869715E+03  0.00000000000E+00 0. -1.
         21   -1    0    0  505  502  0.00000000000E+00 -0.00000000000E+00 -0.26287312772E+03  0.26287312772E+03  0.00000000000E+00 0. -1.
         21    1    1    2  503  502 -0.23480189505E+02 -0.20442597151E+02 -0.19300509645E+03  0.19549983717E+03  0.00000000000E+00 0. -1.
         21    1    1    2  504  501  0.52787841126E+02 -0.90513747223E+02  0.31162246573E+03  0.32876717560E+03  0.00000000000E+00 0. -1.
         21    1    1    2  505  504 -0.56469251551E+02  0.13000840524E+03  0.25205188259E+02  0.14396618811E+03  0.00000000000E+00 0. -1.
          2    1    1    2  501    0  0.27161599929E+02 -0.19052060862E+02  0.41140301190E+03  0.41273862399E+03  0.00000000000E+00 0. -1.
<scales pt_clust_3="31.13228" pt_clust_4="129.84598" pt_clust_5="14000.00000" pt_clust_6="33.10578"></scales>
<clustering>
<clus scale="   31.132">  2  3  1 -1</clus>
<clus scale="   33.106">  1  6  2 -1</clus>
<clus scale="  129.846">  1  4  2 -1</clus>
<clus scale="   31.132">  2  3  1 -1</clus>
</clustering>
</event>
<event>
 6    0  0.3584505E+002  0.1453165E+03  0.7546771E-02  0.1206349E+00
         -1   -1    0    0    0  501 -0.00000000000E+00  0.00000000000E+00  0.46913605698E+03  0.46913605698E+03  0.00000000000E+00 0. -1.
         21   -1    0    0  501  502  0.00000000000E+00 -0.00000000000E+00 -0.33717279876E+03  0.33717279876E+03  0.00000000000E+00 0.  1.
         21    1    1    2  503  505 -0.10296176049E+02 -0.12290277380E+03  0.17595479977E+02  0.12458211735E+03  0.00000000000E+00 0.  1.
         21    1    1    2  504  502 -0.33561092690E+02  0.10987790697E+02 -0.11013218643E+03  0.11565542346E+03  0.00000000000E+00 0.  1.
         21    1    1    2  505  504 -0.30085533869E+02 -0.23131622382E+02 -0.15339264995E+03  0.15801745587E+03  0.00000000000E+00 0.  1.
         -1    1    1    2    0  503  0.73942802608E+02  0.13504660548E+03  0.37789261463E+03  0.40805385906E+03  0.00000000000E+00 0. -1.
<scales pt_clust_3="14000.00000" pt_clust_4="34.14811" pt_clust_5="73.83431" pt_clust_6="145.31652"></scales>
<clustering>
<clus scale="   34.148">  4  5 -1 -1</clus>
<clus scale="   73.834">  2  4  1 -1</clus>
<clus scale="  145.317">  1  6  2 -1</clus>
<clus scale="   73.834">  2  3  1 -1</clus>
</clustering>
</event>
<event>
 6    0  0.3584505E+002  0.8517765E+02  0.7546771E-02  0.1314969E+00
         -1   -1    0    0    0  501 -0.00000000000E+00  0.00000000000E+00  0.30593875622E+03  0.30593875622E+03  0.00000000000E+00 0.  1.
         21   -1    0    0  505  502  0.00000000000E+00 -0.00000000000E+00 -0.99611609518E+03  0.99611609518E+03  0.00000000000E+00 0.  1.
         21    1    1    2  503  502 -0.30710351329E+02  0.46915214587E+02 -0.89234552017E+03  0.89410552532E+03  0.00000000000E+00 0.  1.
         21    1    1    2  504  503  0.75960646942E+02  0.42584298111E+02 -0.57740386370E+02  0.10448633665E+03  0.00000000000E+00 0. -1.
         21    1    1    2  505  501 -0.56253551813E+02 -0.43820496508E+02  0.46933370051E+02  0.85366499461E+02  0.00000000000E+00 0. -1.
         -1    1    1    2    0  504  0.11003256201E+02 -0.45679016191E+02  0.21297519753E+03  0.21809648996E+03  0.00000000000E+00 0.  1.
<scales pt_clust_3="55.64236" pt_clust_4="85.17765" pt_clust_5="14000.00000" pt_clust_6="46.98557"></scales>
<clustering>
<clus scale="   46.986">  1  6  2 -1</clus>
<clus scale="   55.642">  2  3  1 -1</clus>
<clus scale="   85.178">  2  4  1 -1</clus>
<clus scale="   55.642">  2  3  1 -1</clus>
</clustering>
</event>
<event>
 6    0  0.3584505E+002  0.1165495E+03  0.7546771E-02  0.1248900E+00
         -1   -1    0    0    0  501 -0.00000000000E+00  0.00000000000E+00  0.12251306488E+04  0.12251306488E+04  0.00000000000E+00 0.  1.
         21   -1    0    0  505  502  0.00000000000E+00 -0.00000000000E+00 -0.13789325995E+03  0.13789325995E+03  0.00000000000E+00 0. -1.
         21    1    1    2  503  502 -0.62131534435E+02  0.44984060957E+02 -0.40015458392E+02  0.86516647079E+02  0.00000000000E+00 0. -1.
         21    1    1    2  504  503  0.69614917598E+02  0.73908847339E+02  0.25752840953E+03  0.27682058482E+03  0.00000000000E+00 0.  1.
         21    1    1    2  505  501 -0.67398976427E+02 -0.78836740932E+02 -0.21189411593E+02  0.10586238665E+03  0.00000000000E+00 0. -1.
         -1    1    1    2    0  504  0.59915593264E+02 -0.40056167364E+02  0.89091384932E+03  0.89382429021E+03  0.00000000000E+00 0.  1.
<scales pt_clust_3="71.67451" pt_clust_4="14000.00000" pt_clust_5="116.54949" pt_clust_6="72.07201"></scales>
<clustering>
<clus scale="   72.072">  1  6  2 -1</clus>
<clus scale="   71.675">  2  3  1 -1</clus>
<clus scale="  116.549">  2  5  1 -1</clus>
<clus scale="   71.675">  2  3  1 -1</clus>
</clustering>
</event>
<event>
 6    0  0.3584505E+002  0.1620064E+03  0.7546771E-02  0.1186450E+00
          1   -1    0    0  504    0 -0.00000000000E+00  0.00000000000E+00  0.19801469239E+04  0.19801469239E+04  0.00000000000E+00 0.  1.
         21   -1    0    0  503  502  0.00000000000E+00 -0.00000000000E+00 -0.50961418989E+03  0.50961418989E+03  0.00000000000E+00 0.  1.
         21    1    1    2  503  505 -0.40136510741E+02  0.37378646570E+02 -0.39090559036E+03  0.39473444655E+03  0.00000000000E+00 0.  1.
         21    1    1    2  504  502 -0.42083744795E+02 -0.43179646258E+02  0.78234459379E+02  0.98773245675E+02  0.00000000000E+00 0.  1.
         21    1    1    2  505  501  0.15380728048E+02  0.15441474032E+03 -0.44394911957E+02  0.16140442073E+03  0.00000000000E+00 0.  1.
          1    1    1    2  501    0  0.66839527488E+02 -0.14861374064E+03  0.18275987769E+04  0.18348490008E+04  0.00000000000E+00 0.  1.
<scales pt_clust_3="54.84617" pt_clust_4="60.59691" pt_clust_5="162.00640" pt_clust_6="14000.00000"></scales>
<clustering>
<clus scale="   54.846">  2  3  1 -1</clus>
<clus scale="   60.597">  2  4  1 -1</clus>
<clus scale="  162.006">  2  5  1 -1</clus>
<clus scale="   54.846">  2  3  1 -1</clus>
</clustering>
</event>
<event>
 6    0  0.3584505E+002  0.1050081E+03  0.7546771E-02  0.1270104E+00
          2   -1    0    0  503    0 -0.00000000000E+00  0.00000000000E+00  0.80722665304E+03  0.80722665304E+03  0.00000000000E+00 0. -1.
         21   -1    0    0  505  502  0.00000000000E+00 -0.00000000000E+00 -0.61584214007E+03  0.61584214007E+03  0.00000000000E+00 0. -1.
         21    1    1    2  503  502 -0.82353135564E+02  0.86955967678E+02 -0.13267242849E+03  0.17873262862E+03  0.00000000000E+00 0. -1.
         21    1    1    2  504  501  0.88746737727E+02 -0.33260416372E+02 -0.15306042040E+03  0.18002702866E+03  0.00000000000E+00 0. -1.
         21    1    1    2  505  504  0.20217894590E+02 -0.28220262599E+02 -0.29212733185E+03  0.29418280795E+03  0.00000000000E+00 0. -1.
          2    1    1    2  501    0 -0.26611496753E+02 -0.25475288706E+02  0.76924469371E+03  0.77012632788E+03  0.00000000000E+00 0. -1.
<scales pt_clust_3="105.00814" pt_clust_4="14000.00000" pt_clust_5="34.71522" pt_clust_6="36.84642"></scales>
<clustering>
<clus scale="   34.715">  2  5  1 -1</clus>
<clus scale="   36.846">  1  6  2 -1</clus>
<clus scale="  105.008">  2  3  1 -1</clus>
<clus scale="   34.715">  2  3  1 -1</clus>
</clustering>
</event>
<event>
 6    0  0.3584505E+002  0.1164302E+03  0.7546771E-02  0.1249105E+00
          1   -1    0    0  502    0 -0.00000000000E+00  0.00000000000E+00  0.38211512830E+03  0.38211512830E+03  0.00000000000E+00 0. -1.
         21   -1    0    0  503  502  0.00000000000E+00 -0.00000000000E+00 -0.66545858426E+03  0.66545858426E+03  0.00000000000E+00 0. -1.
         21    1    1    2  503  504 -0.67112926393E+01 -0.39528162095E+02 -0.73303945556E+02  0.83552291899E+02  0.00000000000E+00 0. -1.
         21    1    1    2  504  505 -0.61922545310E+02 -0.65726155959E+02 -0.52779250416E+03  0.53546172285E+03  0.00000000000E+00 0. -1.
         21    1    1    2  505  501  0.66283852669E+02  0.74484198305E+02 -0.92213627659E+01  0.10013230474E+03  0.00000000000E+00 0. -1.
          1    1    1    2  501    0  0.23499852799E+01  0.30770119750E+02  0.32697435651E+03  0.32842739307E+03  0.00000000000E+00 0. -1.
<scales pt_clust_3="37.20104" pt_clust_4="116.43025" pt_clust_5="14000.00000" pt_clust_6="30.85973"></scales>
<clustering>
<clus scale="   30.860">  1  6  2 -1</clus>
<clus scale="   37.201">  2  3  1 -1</clus>
<clus scale="  116.430">  2  4  1 -1</clus>
<clus scale="   37.201">  2  3  1 -1</clus>
</clustering>
</event>
<event>
 6    0  0.3584505E+002  0.1107965E+03  0.7546771E-02  0.1259102E+00
         21   -1    0    0  504  502  0.00000000000E+00  0.00000000000E+00  0.84273169503E+03  0.84273169503E+03  0.00000000000E+00 0.  1.
          2   -1    0    0  503    0 -0.00000000000E+00 -0.00000000000E+00 -0.13473442919E+04  0.13473442919E+04  0.00000000000E+00 0.  1.
         21    1    1    2  503  505  0.50358162566E+02 -0.21041339967E+02  0.26680496003E+02  0.60749743963E+02  0.00000000000E+00 0.  1.
         21    1    1    2  504  501  0.47809851928E+02 -0.11299354524E+02  0.67486094733E+03  0.67664669924E+03  0.00000000000E+00 0.  1.
         21    1    1    2  505  502  0.14687549491E+02  0.51331993362E+02  0.11488867341E+03  0.12668900872E+03  0.00000000000E+00 0.  1.
          2    1    1    2  501    0 -0.11285556399E+03 -0.18991298871E+02 -0.13210427137E+04  0.13259905351E+04  0.00000000000E+00 0.  1.
<scales pt_clust_3="14000.00000" pt_clust_4="49.12695" pt_clust_5="65.50113" pt_clust_6="110.79650"></scales>
<clustering>
<clus scale="   49.127">  1  4  2 -1</clus>
<clus scale="   65.501">  1  5  2 -1</clus>
<clus scale="  110.797">  2  6  1 -1</clus>
<clus scale="   49.127">  1  3  2 -1</clus>
</clustering>
</event>
<event>
 6    0  0.3584505E+002  0.1064547E+03  0.7546771E-02  0.1267280E+00
         21   -1    0    0  505  502  0.00000000000E+00  0.00000000000E+00  0.23598120978E+02  0.23598120978E+02  0.00000000000E+00 0. -1.
          2   -1    0    0  504    0 -0.00000000000E+00 -0.00000000000E+00 -0.23506427821E+04  0.23506427821E+04  0.00000000000E+00 0.  1.
         21    1    1    2  503  501 -0.12171557493E+02 -0.42628465853E+02 -0.22758757268E+03  0.23186512491E+03  0.00000000000E+00 0. -1.
         21    1    1    2  504  502  0.77343809650E+02 -0.33086812337E+02 -0.14525174866E+03  0.16785372361E+03  0.00000000000E+00 0. -1.
         21    1    1    2  505  503  0.31696908403E+02  0.24480704277E+02 -0.38073772818E+02  0.55259488423E+02  0.00000000000E+00 0. -1.
          2    1    1    2  501    0 -0.96869160559E+02  0.51234573912E+02 -0.19161315669E+04  0.19192625661E+04  0.00000000000E+00 0.  1.
<scales pt_clust_3="39.88042" pt_clust_4="106.45473" pt_clust_5="40.04995" pt_clust_6="14000.00000"></scales>
<clustering>
<clus scale="   40.050">  1  5  2 -1</clus>
<clus scale="   39.880">  1  3  2 -1</clus>
<clus scale="  106.455">  1  4  2 -1</clus>
<clus scale="   40.050">  1  3  2 -1</clus>
</clustering>
</event>
<event>
 6    0  0.3584505E+002  0.1178346E+03  0.7546771E-02  0.1246713E+00
         21   -1    0    0  505  502  0.00000000000E+00  0.00000000000E+00  0.86788588507E+03  0.86788588507E+03  0.00000000000E+00 0.  1.
          1   -1    0    0  504    0 -0.00000000000E+00 -0.00000000000E+00 -0.11932763110E+04  0.11932763110E+04  0.00000000000E+00 0. -1.
         21    1    1    2  503  501 -0.91466121096E+02  0.14346485087E+02 -0.18540960712E+03  0.20724042886E+03  0.00000000000E+00 0. -1.
         21    1    1    2  504  502 -0.26459641399E+02 -0.39159834277E+02  0.13417019206E+03  0.14225064387E+03  0.00000000000E+00 0.  1.
         21    1    1    2  505  503  0.13674361952E+03 -0.55720769283E+01  0.71191872424E+03  0.72495388505E+03  0.00000000000E+00 0.  1.
          1    1    1    2  501    0 -0.18817857026E+02  0.30385426118E+02 -0.98606973508E+03  0.98671723827E+03  0.00000000000E+00 0. -1.
<scales pt_clust_3="117.83459" pt_clust_4="46.97941" pt_clust_5="14000.00000" pt_clust_6="35.74054"></scales>
<clustering>
<clus scale="   35.741">  2  6  1 -1</clus>
<clus scale="   46.979">  1  4  2 -1</clus>
<clus scale="  117.835">  2  3  1 -1</clus>
<clus scale="   46.979">  1  3  2 -1</clus>
</clustering>
</event>
<event>
 6    0  0.3584505E+002  0.1393849E+03  0.7546771E-02  0.1214159E+00
         21   -1    0    0  503  502  0.00000000000E+00  0.00000000000E+00  0.40984378465E+03  0.40984378465E+03  0.00000000000E+00 0. -1.
          2   -1    0    0  505    0 -0.00000000000E+00 -0.00000000000E+00 -0.24715903701E+03  0.24715903701E+03  0.00000000000E+00 0. -1.
         21    1    1    2  503  501 -0.12304947322E+03  0.11168542960E+03  0.27747823219E+03  0.32343311114E+03  0.00000000000E+00 0. -1.
         21    1    1    2  504  502  0.93020149561E+01 -0.30957803812E+02  0.44007784689E+02  0.54604012786E+02  0.00000000000E+00 0. -1.
         21    1    1    2  505  504  0.37227233074E+02  0.33685468707E+02  0.19376373556E+02  0.53814696288E+02  0.00000000000E+00 0. -1.
          2    1    1    2  501    0  0.76520225188E+02 -0.11441309450E+03 -0.17817764279E+03  0.22515100144E+03  0.00000000000E+00 0. -1.
<scales pt_clust_3="139.38489" pt_clust_4="32.32512" pt_clust_5="48.88703" pt_clust_6="14000.00000"></scales>
<clustering>
<clus scale="   32.325">  1  4  2 -1</clus>
<clus scale="   48.887">  1  5  2 -1</clus>
<clus scale="  139.385">  1  3  2 -1</clus>
<clus scale="   32.325">  1  3  2 -1</clus>
</clustering>
</event>
<event>
 6    0  0.3584505E+002  0.7079958E+02  0.7546771E-02  0.1357395E+00
         21   -1    0    0  501  502  0.00000000000E+00  0.00000000000E+00  0.20428362149E+04  0.20428362149E+04  0.00000000000E+00 0.  1.
          2   -1    0    0  504    0 -0.00000000000E+00 -0.00000000000E+00 -0.87965893301E+03  0.87965893301E+03  0.00000000000E+00 0.  1.
         21    1    1    2  503  505  0.71520570470E+02 -0.31419752380E+02  0.39671423731E+03  0.40433226302E+03  0.00000000000E+00 0.  1.
         21    1    1    2  504  503 -0.21669898990E+02 -0.58534221742E+02 -0.47920738735E+02  0.78690767172E+02  0.00000000000E+00 0.  1.
         21    1    1    2  505  502 -0.70426525472E+02 -0.68374737961E-01  0.16235384243E+04  0.16250652034E+04  0.00000000000E+00 0.  1.
          2    1    1    2  501    0  0.20575853993E+02  0.90022348860E+02 -0.80915464097E+03  0.81440691431E+03  0.00000000000E+00 0.  1.
<scales pt_clust_3="70.79958" pt_clust_4="62.41666" pt_clust_5="14000.00000" pt_clust_6="31.83084"></scales>
<clustering>
<clus scale="   62.417">  2  4  1 -1</clus>
<clus scale="   31.831">  2  6  1 -1</clus>
<clus scale="   70.800">  2  3  1 -1</clus>
<clus scale="   70.800">  1  3  2 -1</clus>
</clustering>
</event>
<event>
 6    0  0.3584505E+002  0.1758598E+03  0.7546771E-02  0.1171871E+00
         21   -1    0    0  504  502  0.00000000000E+00  0.00000000000E+00  0.33919941794E+02  0.33919941794E+02  0.00000000000E+00 0.  1.
          2   -1    0    0  505    0 -0.00000000000E+00 -0.00000000000E+00 -0.22085620602E+04  0.22085620602E+04  0.00000000000E+00 0. -1.
         21    1    1    2  503  502  0.38835917801E+01  0.16285996248E+03 -0.41979453651E+03  0.45029535035E+03  0.00000000000E+00 0.  1.
         21    1    1    2  504  501 -0.27276438354E+02  0.35737438082E+02 -0.39104056177E+02  0.59584358514E+02  0.00000000000E+00 0.  1.
         21    1    1    2  505  503 -0.49745018368E+02 -0.43284140900E+02 -0.35497201974E+03  0.36104462121E+03  0.00000000000E+00 0.  1.
          2    1    1    2  501    0  0.73137864942E+02 -0.15531325966E+03 -0.13607715060E+04  0.13715576719E+04  0.00000000000E+00 0. -1.
<scales pt_clust_3="175.85980" pt_clust_4="44.95741" pt_clust_5="65.82241" pt_clust_6="14000.00000"></scales>
<clustering>
<clus scale="   44.957">  1  4  2 -1</clus>
<clus scale="   65.822">  2  5  1 -1</clus>
<clus scale="  175.860">  1  3  2 -1</clus>
<clus scale="   44.957">  1  3  2 -1</clus>
</clustering>
</event>
<event>
 6    0  0.3584505E+002  0.1315432E+03  0.7546771E-02  0.1225184E+00
          2   -1    0    0  505    0 -0.00000000000E+00  0.00000000000E+00  0.17398872503E+04  0.17398872503E+04  0.00000000000E+00 0. -1.
         21   -1    0    0  501  502  0.00000000000E+00 -0.00000000000E+00 -0.27347395775E+02  0.27347395775E+02  0.00000000000E+00 0.  1.
         21    1    1    2  503  504  0.54152879677E+02 -0.15275397534E+03  0.44493545740E+03  0.47353339124E+03  0.00000000000E+00 0.  1.
         21    1    1    2  504  502 -0.14169424305E+02  0.26745236488E+02  0.31153248801E+02  0.43435068445E+02  0.00000000000E+00 0.  1.
         21    1    1    2  505  503  0.10117907453E+02  0.11236519638E+03  0.52821458791E+03  0.54012865161E+03  0.00000000000E+00 0. -1.
          2    1    1    2  501    0 -0.50101362825E+02  0.13643542467E+02  0.70823656037E+03  0.71013753475E+03  0.00000000000E+00 0. -1.
<scales pt_clust_3="131.54320" pt_clust_4="30.26682" pt_clust_5="14000.00000" pt_clust_6="52.86284"></scales>
<clustering>
<clus scale="   30.267">  2  4  1 -1</clus>
<clus scale="   52.863">  1  6  2 -1</clus>
<clus scale="  131.543">  2  3  1 -1</clus>
<clus scale="   30.267">  2  3  1 -1</clus>
</clustering>
</event>
<event>
 6    0  0.3584505E+002  0.9662215E+02  0.7546771E-02  0.1287564E+00
         21   -1    0    0  504  502  0.00000000000E+00  0.00000000000E+00  0.21897673892E+03  0.21897673892E+03  0.00000000000E+00 0.  1.
          2   -1    0    0  503    0 -0.00000000000E+00 -0.00000000000E+00 -0.38521759987E+03  0.38521759987E+03  0.00000000000E+00 0.  1.
         21    1    1    2  503  502 -0.69355123939E+02 -0.13281462847E+02  0.14684034164E+03  0.16293746164E+03  0.00000000000E+00 0.  1.
         21    1    1    2  504  505 -0.43181795143E+02 -0.26014812171E+02  0.22157666742E+02  0.55067232358E+02  0.00000000000E+00 0.  1.
         21    1    1    2  505  501  0.78314765958E+02 -0.24367002092E+01 -0.43736227292E+02  0.89732924017E+02  0.00000000000E+00 0.  1.
          2    1    1    2  501    0  0.34222153125E+02  0.41732975228E+02 -0.29150264203E+03  0.29645672078E+03  0.00000000000E+00 0.  1.
<scales pt_clust_3="14000.00000" pt_clust_4="50.41268" pt_clust_5="96.62215" pt_clust_6="53.31853"></scales>
<clustering>
<clus scale="   50.413">  1  4  2 -1</clus>
<clus scale="   53.319">  2  6  1 -1</clus>
<clus scale="   96.622">  2  5  1 -1</clus>
<clus scale="   50.413">  1  3  2 -1</clus>
</clustering>
</event>
<event>
 6    0  0.3584505E+002  0.9711588E+02  0.7546771E-02  0.1286480E+00
         21   -1    0    0  503  502  0.00000000000E+00  0.00000000000E+00  0.26075727481E+02  0.26075727481E+02  0.00000000000E+00 0.  1.
          1   -1    0    0  505    0 -0.00000000000E+00 -0.00000000000E+00 -0.23587341714E+04  0.23587341714E+04  0.00000000000E+00 0.  1.
         21    1    1    2  503  501  0.18458899537E+02  0.28550239731E+02 -0.70347081185E+02  0.78131677264E+02  0.00000000000E+00 0.  1.
         21    1    1    2  504  502  0.79347473044E+01 -0.44967606471E+02 -0.56777504971E+02  0.72861038404E+02  0.00000000000E+00 0.  1.
         21    1    1    2  505  504  0.71565315973E+02 -0.98169231864E+00 -0.85726394334E+02  0.11167619646E+03  0.00000000000E+00 0.  1.
          1    1    1    2  501    0 -0.97958962815E+02  0.17399059058E+02 -0.21198074634E+04  0.21221409867E+04  0.00000000000E+00 0.  1.
<scales pt_clust_3="33.99775" pt_clust_4="37.58086" pt_clust_5="14000.00000" pt_clust_6="97.11588"></scales>
<clustering>
<clus scale="   33.998">  1  3  2 -1</clus>
<clus scale="   37.581">  1  4  2 -1</clus>
<clus scale="   97.116">  2  6  1 -1</clus>
<clus scale="   33.998">  1  3  2 -1</clus>
</clustering>
</event>
<event>
 6    0  0.3584505E+002  0.7234496E+02  0.7546771E-02  0.1352296E+00
         21   -1    0    0  503  502  0.00000000000E+00  0.00000000000E+00  0.15445500644E+03  0.15445500644E+03  0.00000000000E+00 0. -1.
          2   -1    0    0  505    0 -0.00000000000E+00 -0.00000000000E+00 -0.30293683300E+04  0.30293683300E+04  0.00000000000E+00 0.  1.
         21    1    1    2  503  504  0.10443372163E+03  0.96935689733E+01  0.75189831068E+02  0.12904990581E+03  0.00000000000E+00 0. -1.
         21    1    1    2  504  501 -0.86183447939E+02 -0.62666284598E+02 -0.24352181049E+03  0.26581482673E+03  0.00000000000E+00 0. -1.
         21    1    1    2  505  502 -0.40993651434E+02 -0.15016273677E+02  0.29017042303E+02  0.52420956468E+02  0.00000000000E+00 0. -1.
          2    1    1    2  501    0  0.22743377744E+02  0.67988989301E+02 -0.27355983864E+04  0.27365376474E+04  0.00000000000E+00 0.  1.
<scales pt_clust_3="67.73292" pt_clust_4="14000.00000" pt_clust_5="43.65739" pt_clust_6="72.34496"></scales>
<clustering>
<clus scale="   43.657">  1  5  2 -1</clus>
<clus scale="   67.733">  1  3  2 -1</clus>
<clus scale="   72.345">  2  6  1 -1</clus>
<clus scale="   43.657">  1  3  2 -1</clus>
</clustering>
</event>
<event>
 6    0  0.3584505E+002  0.1478603E+03  0.7546771E-02  0.1203127E+00
         21   -1    0    0  503  502  0.00000000000E+00  0.00000000000E+00  0.29382855149E+03  0.29382855149E+03  0.00000000000E+00 0. -1.
          1   -1    0    0  505    0 -0.00000000000E+00 -0.00000000000E+00 -0.82657370429E+03  0.82657370429E+03  0.00000000000E+00 0. -1.
         21    1    1    2  503  501  0.11086307059E+03 -0.20368575579E+03 -0.92589562251E+02  0.24970249212E+03  0.00000000000E+00 0. -1.
         21    1    1    2  504  502 -0.70753228449E+01  0.10079729479E+03  0.18932504147E+03  0.21460225106E+03  0.00000000000E+00 0. -1.
         21    1    1    2  505  504 -0.10229381654E+03  0.53593026979E+02 -0.27589629076E+03  0.29909028854E+03  0.00000000000E+00 0. -1.
          1    1    1    2  501    0 -0.14939312101E+01  0.49295434026E+02 -0.35358434126E+03  0.35700722406E+03  0.00000000000E+00 0. -1.
<scales pt_clust_3="14000.00000" pt_clust_4="102.36688" pt_clust_5="147.86033" pt_clust_6="49.31807"></scales>
<clustering>
<clus scale="   49.318">  2  6  1 -1</clus>
<clus scale="  102.367">  1  4  2 -1</clus>
<clus scale="  147.860">  2  5  1 -1</clus>
<clus scale="  102.367">  1  3  2 -1</clus>
</clustering>
</event>
<event>
 6    0  0.3584505E+002  0.2603116E+03  0.7546771E-02  0.1106956E+00
          2   -1    0    0  505    0 -0.00000000000E+00  0.00000000000E+00  0.19101213001E+04  0.19101213001E+04  0.00000000000E+00 0.  1.
         21   -1    0    0  501  502  0.00000000000E+00 -0.00000000000E+00 -0.11640919324E+03  0.11640919324E+03  0.00000000000E+00 0.  1.
         21    1    1    2  503  504  0.53138496640E+02 -0.23752451105E+02  0.54805171153E+02  0.79946766937E+02  0.00000000000E+00 0.  1.
         21    1    1    2  504  502  0.98185899170E+02 -0.17490111882E+03  0.20285168800E+02  0.20159950455E+03  0.00000000000E+00 0.  1.
         21    1    1    2  505  503 -0.55735388208E+01  0.11998892725E+03  0.45638457642E+03  0.47192720688E+03  0.00000000000E+00 0.  1.
          2    1    1    2  501    0 -0.14575085699E+03  0.78664642675E+02  0.12622371905E+04  0.12730570150E+04  0.00000000000E+00 0.  1.
<scales pt_clust_3="57.18137" pt_clust_4="57.18137" pt_clust_5="120.11830" pt_clust_6="237.68612"></scales>
<clustering>
<clus scale="   57.181">  3  4 -1 -1</clus>
<clus scale="  120.118">  1  5  2 -1</clus>
<clus scale="  237.686">  1  6  2 -1</clus>
<clus scale="  260.312">  2  3  1 -1</clus>
</clustering>
</event>
<event>
 6    0  0.3584505E+002  0.1081636E+03  0.7546771E-02  0.1264009E+00
         21   -1    0    0  503  502  0.00000000000E+00  0.00000000000E+00  0.38260034217E+02  0.38260034217E+02  0.00000000000E+00 0.  1.
          2   -1    0    0  505    0 -0.00000000000E+00 -0.00000000000E+00 -0.84772009386E+03  0.84772009386E+03  0.00000000000E+00 0. -1.
         21    1    1    2  503  504 -0.10205010723E+02  0.81583503843E+02 -0.98963889326E+02  0.12866181148E+03  0.00000000000E+00 0.  1.
         21    1    1    2  504  501 -0.43247614327E+02 -0.43020322488E+01 -0.27086571240E+03  0.27433027135E+03  0.00000000000E+00 0. -1.
         21    1    1    2  505  502  0.88032901642E+02 -0.14207614115E+02 -0.92499352839E+02  0.12848259939E+03  0.00000000000E+00 0. -1.
          2    1    1    2  501    0 -0.34580276592E+02 -0.63073857479E+02 -0.34713110507E+03  0.35450544585E+03  0.00000000000E+00 0. -1.
<scales pt_clust_3="82.21928" pt_clust_4="41.98598" pt_clust_5="93.71106" pt_clust_6="41.98598"></scales>
<clustering>
<clus scale="   41.986">  4  6 -1 -1</clus>
<clus scale="   82.219">  1  3  2 -1</clus>
<clus scale="   93.711">  1  5  2 -1</clus>
<clus scale="   82.219">  1  3  2 -1</clus>
</clustering>
</event>
<event>
 6    0  0.3584505E+002  0.1929506E+03  0.7546771E-02  0.1155827E+00
          2   -1    0    0  505    0 -0.00000000000E+00  0.00000000000E+00  0.25356121353E+04  0.25356121353E+04  0.00000000000E+00 0. -1.
         21   -1    0    0  503  502  0.00000000000E+00 -0.00000000000E+00 -0.11505919953E+03  0.11505919953E+03  0.00000000000E+00 0. -1.
         21    1    1    2  503  504 -0.31847554074E+02  0.99979172446E+01 -0.53540138392E+01  0.33806663750E+02  0.00000000000E+00 0. -1.
         21    1    1    2  504  501  0.36954122230E+02  0.20776111992E+03  0.22922653279E+03  0.31156876197E+03  0.00000000000E+00 0. -1.
         21    1    1    2  505  502  0.11299474645E+03 -0.64705303916E+02  0.34787724278E+02  0.13477675927E+03  0.00000000000E+00 0.  1.
          2    1    1    2  501    0 -0.11810131460E+03 -0.15305373325E+03  0.21618926925E+04  0.21705191498E+04  0.00000000000E+00 0. -1.
<scales pt_clust_3="33.38001" pt_clust_4="192.95059" pt_clust_5="113.19899" pt_clust_6="14000.00000"></scales>
<clustering>
<clus scale="   33.380">  2  3  1 -1</clus>
<clus scale="  113.199">  2  5  1 -1</clus>
<clus scale="  192.951">  2  4  1 -1</clus>
<clus scale="   33.380">  2  3  1 -1</clus>
</clustering>
</event>
<event>
 6    0  0.3584505E+002  0.1521976E+03  0.7546771E-02  0.1197798E+00
         21   -1    0    0  503  502  0.00000000000E+00  0.00000000000E+00  0.14748805868E+03  0.14748805868E+03  0.00000000000E+00 0.  1.
          1   -1    0    0  505    0 -0.00000000000E+00 -0.00000000000E+00 -0.18582973052E+04  0.18582973052E+04  0.00000000000E+00 0. -1.
         21    1    1    2  503  501 -0.46241904178E+02  0.10527831787E+02  0.60931871702E+02  0.77212964800E+02  0.00000000000E+00 0.  1.
         21    1    1    2  504  502  0.57725877141E+01  0.79515784255E+02  0.33037624116E+02  0.86299289231E+02  0.00000000000E+00 0.  1.
         21    1    1    2  505  504 -0.12115400410E+03 -0.77770518096E+02 -0.34942749906E+03  0.37792343576E+03  0.00000000000E+00 0. -1.
          1    1    1    2  501    0  0.16162332056E+03 -0.12273097945E+02 -0.14553512433E+04  0.14643496741E+04  0.00000000000E+00 0. -1.
<scales pt_clust_3="47.42519" pt_clust_4="92.33692" pt_clust_5="152.19758" pt_clust_6="14000.00000"></scales>
<clustering>
<clus scale="   47.425">  1  3  2 -1</clus>
<clus scale="   92.337">  1  4  2 -1</clus>
<clus scale="  152.198">  1  5  2 -1</clus>
<clus scale="   47.425">  1  3  2 -1</clus>
</clustering>
</event>
<event>
 6    0  0.3584505E+002  0.1345543E+03  0.7546771E-02  0.1220850E+00
         21   -1    0    0  501  502  0.00000000000E+00  0.00000000000E+00  0.18955698510E+02  0.18955698510E+02  0.00000000000E+00 0. -1.
          2   -1    0    0  504    0 -0.00000000000E+00 -0.00000000000E+00 -0.43891003635E+04  0.43891003635E+04  0.00000000000E+00 0.  1.
         21    1    1    2  503  505  0.36252442530E+02 -0.34618493727E+02 -0.64765921444E+02  0.81898133543E+02  0.00000000000E+00 0. -1.
         21    1    1    2  504  503 -0.60256018174E+02  0.14714064008E+02 -0.51204370784E+03  0.51578682626E+03  0.00000000000E+00 0.  1.
         21    1    1    2  505  502  0.80013012395E+02 -0.24450725810E+02 -0.20623508975E+03  0.22255972769E+03  0.00000000000E+00 0. -1.
          2    1    1    2  501    0 -0.56009436751E+02  0.44355155529E+02 -0.35870999459E+04  0.35878113745E+04  0.00000000000E+00 0.  1.
<scales pt_clust_3="36.68482" pt_clust_4="62.02654" pt_clust_5="36.68482" pt_clust_6="125.93108"></scales>
<clustering>
<clus scale="   36.685">  3  5 -1 -1</clus>
<clus scale="   62.027">  2  4  1 -1</clus>
<clus scale="  125.931">  2  6  1 -1</clus>
<clus scale="  134.554">  1  3  2 -1</clus>
</clustering>
</event>
<event>
 6    0  0.3584505E+002  0.1339457E+03  0.7546771E-02  0.1221716E+00
         21   -1    0    0  505  502  0.00000000000E+00  0.00000000000E+00  0.52132543244E+03  0.52132543244E+03  0.00000000000E+00 0. -1.
          1   -1    0    0  503    0 -0.00000000000E+00 -0.00000000000E+00 -0.37726771837E+03  0.37726771837E+03  0.00000000000E+00 0. -1.
         21    1    1    2  503  502 -0.32356894766E+02  0.50152121727E+02  0.27431459038E+03  0.28073243213E+03  0.00000000000E+00 0. -1.
         21    1    1    2  504  501 -0.64027642328E+02 -0.71286158162E+02 -0.18179503664E+02  0.97528199415E+02  0.00000000000E+00 0. -1.
         21    1    1    2  505  504  0.11568839629E+03  0.92615796340E+02  0.17184237955E+03  0.22691693233E+03  0.00000000000E+00 0. -1.
          1    1    1    2  501    0 -0.19303859191E+02 -0.71481759904E+02 -0.28391975219E+03  0.29341558694E+03  0.00000000000E+00 0. -1.
<scales pt_clust_3="59.68420" pt_clust_4="133.94573" pt_clust_5="14000.00000" pt_clust_6="73.26888"></scales>
<clustering>
<clus scale="   59.684">  1  3  2 -1</clus>
<clus scale="   73.269">  2  6  1 -1</clus>
<clus scale="  133.946">  2  4  1 -1</clus>
<clus scale="   59.684">  1  3  2 -1</clus>
</clustering>
</event>
<event>
 6    0  0.3584505E+002  0.8187406E+02  0.7546771E-02  0.1323816E+00
         -3   -1    0    0    0  501 -0.00000000000E+00  0.00000000000E+00  0.27942564950E+04  0.27942564950E+04  0.00000000000E+00 0.  1.
         21   -1    0    0  504  502  0.00000000000E+00 -0.00000000000E+00 -0.11197917294E+04  0.11197917294E+04  0.00000000000E+00 0. -1.
         21    1    1    2  503  502 -0.13586118401E+02 -0.41103171014E+02 -0.10996144047E+03  0.11817601986E+03  0.00000000000E+00 0. -1.
         21    1    1    2  504  505  0.16244051217E+02 -0.27136059979E+02 -0.89789820064E+03  0.89845501483E+03  0.00000000000E+00 0. -1.
         21    1    1    2  505  501 -0.42823779922E+02  0.13919069084E+03 -0.57360886833E+02  0.15651899527E+03  0.00000000000E+00 0. -1.
         -3    1    1    2    0  503  0.40165847106E+02 -0.70951459844E+02  0.27396852936E+04  0.27408981945E+04  0.00000000000E+00 0.  1.
<scales pt_clust_3="55.31784" pt_clust_4="31.62649" pt_clust_5="81.87406" pt_clust_6="14000.00000"></scales>
<clustering>
<clus scale="   31.626">  2  4  1 -1</clus>
<clus scale="   55.318">  2  3  1 -1</clus>
<clus scale="   81.874">  2  5  1 -1</clus>
<clus scale="   31.626">  2  3  1 -1</clus>
</clustering>
</event>
<event>
 6    0  0.3584505E+002  0.1528736E+03  0.7546771E-02  0.1196986E+00
         21   -1    0    0  505  502  0.00000000000E+00  0.00000000000E+00  0.88353558693E+03  0.88353558693E+03  0.00000000000E+00 0. -1.
         -3   -1    0    0    0  501 -0.00000000000E+00 -0.00000000000E+00 -0.20659956469E+03  0.20659956469E+03  0.00000000000E+00 0. -1.
         21    1    1    2  503  502  0.12039168936E+03  0.18506644023E+02  0.57764034848E+01  0.12194269792E+03  0.00000000000E+00 0. -1.
         21    1    1    2  504  501 -0.19624893026E+03 -0.28519436143E+02  0.25203407311E+03  0.32069950869E+03  0.00000000000E+00 0. -1.
         21    1    1    2  505  504  0.43811521119E+02  0.16856725003E+02  0.52989912140E+03  0.53197432027E+03  0.00000000000E+00 0. -1.
         -3    1    1    2    0  503  0.32045719785E+02 -0.68439328831E+01 -0.11077357576E+03  0.11551862473E+03  0.00000000000E+00 0. -1.
<scales pt_clust_3="152.87355" pt_clust_4="14000.00000" pt_clust_5="47.24770" pt_clust_6="32.76839"></scales>
<clustering>
<clus scale="   32.768">  2  6  1 -1</clus>
<clus scale="   47.248">  1  5  2 -1</clus>
<clus scale="  152.874">  2  3  1 -1</clus>
<clus scale="   47.248">  1  3  2 -1</clus>
</clustering>
</event>
<event>
 6    0  0.3584505E+002  0.7923137E+02  0.7546771E-02  0.1331247E+00
         21   -1    0    0  505  502  0.00000000000E+00  0.00000000000E+00  0.80152453656E+03  0.80152453656E+03  0.00000000000E+00 0.  1.
          3   -1    0    0  504    0 -0.00000000000E+00 -0.00000000000E+00 -0.75592043650E+03  0.75592043650E+03  0.00000000000E+00 0. -1.
         21    1    1    2  503  501 -0.74320773484E+01  0.91548387190E+02 -0.38432017393E+02  0.99565872324E+02  0.00000000000E+00 0.  1.
         21    1    1    2  504  502 -0.28659659201E+02 -0.92915469999E+02 -0.24517902368E+03  0.26375635402E+03  0.00000000000E+00 0. -1.
         21    1    1    2  505  503  0.48704597369E+02 -0.30295656039E+02  0.75991492779E+03  0.76207654606E+03  0.00000000000E+00 0.  1.
          3    1    1    2  501    0 -0.12612860820E+02  0.31662738848E+02 -0.43069978665E+03  0.43204620067E+03  0.00000000000E+00 0. -1.
<scales pt_clust_3="14000.00000" pt_clust_4="79.23137" pt_clust_5="57.26689" pt_clust_6="34.08245"></scales>
<clustering>
<clus scale="   34.082">  2  6  1 -1</clus>
<clus scale="   57.267">  1  5  2 -1</clus>
<clus scale="   79.231">  2  4  1 -1</clus>
<clus scale="   57.267">  1  3  2 -1</clus>
</clustering>
</event>
<event>
 6    0  0.3584505E+002  0.7866487E+02  0.7546771E-02  0.1332884E+00
          2   -1    0    0  503    0 -0.00000000000E+00  0.00000000000E+00  0.22035404475E+04  0.22035404475E+04  0.00000000000E+00 0. -1.
         21   -1    0    0  505  502  0.00000000000E+00 -0.00000000000E+00 -0.20614278717E+03  0.20614278717E+03  0.00000000000E+00 0.  1.
         21    1    1    2  503  504  0.44047375896E+01  0.32192768488E+02  0.85441463678E+02  0.91411267203E+02  0.00000000000E+00 0.  1.
         21    1    1    2  504  502 -0.99796530468E+02 -0.98315593425E+02 -0.41637818086E+02  0.14614722474E+03  0.00000000000E+00 0.  1.
         21    1    1    2  505  501  0.59583950407E+02  0.32361999990E+02 -0.98422629785E+02  0.11951803313E+03  0.00000000000E+00 0.  1.
          2    1    1    2  501    0  0.35807842472E+02  0.33760824947E+02  0.20520166445E+04  0.20526067096E+04  0.00000000000E+00 0. -1.
<scales pt_clust_3="32.49271" pt_clust_4="14000.00000" pt_clust_5="67.90126" pt_clust_6="78.66487"></scales>
<clustering>
<clus scale="   32.493">  1  3  2 -1</clus>
<clus scale="   67.901">  2  5  1 -1</clus>
<clus scale="   78.665">  1  6  2 -1</clus>
<clus scale="   67.901">  2  3  1 -1</clus>
</clustering>
</event>
<event>
 6    0  0.3584505E+002  0.1151956E+03  0.7546771E-02  0.1251240E+00
         -1   -1    0    0    0  501 -0.00000000000E+00  0.00000000000E+00  0.19111580414E+04  0.19111580414E+04  0.00000000000E+00 0. -1.
         21   -1    0    0  505  502  0.00000000000E+00 -0.00000000000E+00 -0.74641898674E+02  0.74641898674E+02  0.00000000000E+00 0. -1.
         21    1    1    2  503  504 -0.55252967408E+02 -0.11822456014E+03  0.59259885024E+02  0.14332365820E+03  0.00000000000E+00 0. -1.
         21    1    1    2  504  501  0.14274084320E+03 -0.31052865161E+02  0.62454915757E+03  0.64140539363E+03  0.00000000000E+00 0. -1.
         21    1    1    2  505  503 -0.50488382445E+02  0.61672659783E+02  0.49608594405E+02  0.93880809356E+02  0.00000000000E+00 0. -1.
         -1    1    1    2    0  502 -0.36999493345E+02  0.87604765519E+02  0.11030985057E+04  0.11071900789E+04  0.00000000000E+00 0. -1.
<scales pt_clust_3="14000.00000" pt_clust_4="115.19560" pt_clust_5="79.70316" pt_clust_6="98.08054"></scales>
<clustering>
<clus scale="   79.703">  2  5  1 -1</clus>
<clus scale="   98.081">  1  6  2 -1</clus>
<clus scale="  115.196">  1  4  2 -1</clus>
<clus scale="   79.703">  2  3  1 -1</clus>
</clustering>
</event>
<event>
 6    0  0.3584505E+002  0.1970433E+03  0.7546771E-02  0.1152258E+00
          2   -1    0    0  505    0 -0.00000000000E+00  0.00000000000E+00  0.11227772596E+04  0.11227772596E+04  0.00000000000E+00 0.  1.
         21   -1    0    0  503  502  0.00000000000E+00 -0.00000000000E+00 -0.56822018114E+02  0.56822018114E+02  0.00000000000E+00 0. -1.
         21    1    1    2  503  504 -0.45864688407E+02  0.60878541542E+02  0.46967110342E+02  0.89530307254E+02  0.00000000000E+00 0. -1.
         21    1    1    2  504  501 -0.66387482718E+02  0.83926605509E+02  0.14918136385E+03  0.18359208124E+03  0.00000000000E+00 0. -1.
         21    1    1    2  505  502  0.11714916297E+03 -0.17476627961E+03  0.61770872379E+03  0.65255746591E+03  0.00000000000E+00 0.  1.
          2    1    1    2  501    0 -0.48969918488E+01  0.29961132558E+02  0.25209804350E+03  0.25391942330E+03  0.00000000000E+00 0.  1.
<scales pt_clust_3="42.23087" pt_clust_4="42.23087" pt_clust_5="190.45609" pt_clust_6="30.35869"></scales>
<clustering>
<clus scale="   30.359">  1  6  2 -1</clus>
<clus scale="   42.231">  3  4 -1 -1</clus>
<clus scale="  190.456">  1  5  2 -1</clus>
<clus scale="  197.043">  2  3  1 -1</clus>
</clustering>
</event>
<event>
 6    0  0.4421848E+002  0.1023565E+03  0.7546771E-02  0.1275417E+00
         21   -1    0    0  504  502  0.00000000000E+00  0.00000000000E+00  0.14496297912E+04  0.14496297912E+04  0.00000000000E+00 0. -1.
          2   -1    0    0  503    0 -0.00000000000E+00 -0.00000000000E+00 -0.15829485721E+04  0.15829485721E+04  0.00000000000E+00 0. -1.
         21    1    1    2  503  502 -0.28376491524E+02 -0.17358639490E+02  0.41103254679E+02  0.52877454377E+02  0.00000000000E+00 0. -1.
         21    1    1    2  504  505  0.67657571033E+02 -0.33966096747E+02  0.80581765418E+03  0.80936600771E+03  0.00000000000E+00 0. -1.
         21    1    1    2  505  501  0.37800090059E+02  0.11865164374E+03  0.58684500241E+03  0.59991175703E+03  0.00000000000E+00 0. -1.
          2    1    1    2  501    0 -0.77081169568E+02 -0.67326907502E+02 -0.15670846921E+04  0.15704231441E+04  0.00000000000E+00 0. -1.
<scales pt_clust_3="33.26481" pt_clust_4="67.57375" pt_clust_5="102.35649" pt_clust_6="14000.00000"></scales>
<clustering>
<clus scale="   33.265">  1  3  2 -1</clus>
<clus scale="   67.574">  1  4  2 -1</clus>
<clus scale="  102.356">  1  5  2 -1</clus>
<clus scale="   33.265">  1  3  2 -1</clus>
</clustering>
</event>
<event>
 6    0  0.3584505E+002  0.1458721E+03  0.7546771E-02  0.1205639E+00
          1   -1    0    0  504    0 -0.00000000000E+00  0.00000000000E+00  0.20817658555E+04  0.20817658555E+04  0.00000000000E+00 0.  1.
         21   -1    0    0  505  502  0.00000000000E+00 -0.00000000000E+00 -0.95039574866E+03  0.95039574866E+03  0.00000000000E+00 0.  1.
         21    1    1    2  503  502 -0.10496558902E+03  0.13260453021E+02 -0.88042851359E+03  0.88676264132E+03  0.00000000000E+00 0.  1.
         21    1    1    2  504  503  0.13209565076E+03 -0.92921088687E+02  0.19187284461E+04  0.19255135521E+04  0.00000000000E+00 0.  1.
         21    1    1    2  505  501 -0.31526040228E+02  0.38804482649E+02 -0.50193305737E+02  0.70845232916E+02  0.00000000000E+00 0. -1.
          1    1    1    2  501    0  0.43959784913E+01  0.40856153017E+02  0.14326348004E+03  0.14904017773E+03  0.00000000000E+00 0.  1.
<scales pt_clust_3="14000.00000" pt_clust_4="145.87214" pt_clust_5="50.15141" pt_clust_6="41.09197"></scales>
<clustering>
<clus scale="   41.092">  1  6  2 -1</clus>
<clus scale="   50.151">  2  5  1 -1</clus>
<clus scale="  145.872">  1  4  2 -1</clus>
<clus scale="   50.151">  2  3  1 -1</clus>
</clustering>
</event>
<event>
 6    0  0.3584505E+002  0.1258520E+03  0.7546771E-02  0.1233744E+00
         21   -1    0    0  504  502  0.00000000000E+00  0.00000000000E+00  0.74041207289E+02  0.74041207289E+02  0.00000000000E+00 0. -1.
          1   -1    0    0  503    0 -0.00000000000E+00 -0.00000000000E+00 -0.36611033108E+04  0.36611033108E+04  0.00000000000E+00 0. -1.
         21    1    1    2  503  502  0.40091517121E+02  0.30919284498E+02 -0.49696555541E+03  0.49953788161E+03  0.00000000000E+00 0. -1.
         21    1    1    2  504  505 -0.19370654262E+02  0.12225315644E+03  0.38244964094E+01  0.12383732587E+03  0.00000000000E+00 0. -1.
         21    1    1    2  505  501 -0.80502771040E+02 -0.17736223558E+03 -0.11210830006E+04  0.11378774771E+04  0.00000000000E+00 0. -1.
          1    1    1    2  501    0  0.59781908182E+02  0.24189794640E+02 -0.19728380439E+04  0.19738918335E+04  0.00000000000E+00 0. -1.
<scales pt_clust_3="50.62936" pt_clust_4="14000.00000" pt_clust_5="125.85202" pt_clust_6="95.29385"></scales>
<clustering>
<clus scale="   50.629">  2  3  1 -1</clus>
<clus scale="   95.294">  2  6  1 -1</clus>
<clus scale="  125.852">  2  5  1 -1</clus>
<clus scale="  125.852">  1  3  2 -1</clus>
</clustering>
</event>
<event>
 6    0  0.3584505E+002  0.9696667E+02  0.7546771E-02  0.1286807E+00
          2   -1    0    0  503    0 -0.00000000000E+00  0.00000000000E+00  0.17620215552E+04  0.17620215552E+04  0.00000000000E+00 0.  1.
         21   -1    0    0  501  502  0.00000000000E+00 -0.00000000000E+00 -0.24581511420E+02  0.24581511420E+02  0.00000000000E+00 0.  1.
         21    1    1    2  503  505  0.65459047555E+02  0.13903933773E+02  0.31512706093E+03  0.32215411034E+03  0.00000000000E+00 0.  1.
         21    1    1    2  504  502  0.33479231718E+02  0.47227733064E+02  0.79928261827E+02  0.98690651865E+02  0.00000000000E+00 0.  1.
         21    1    1    2  505  504 -0.49462407941E+02  0.65498102982E+02  0.21377499224E+03  0.22898969103E+03  0.00000000000E+00 0.  1.
          2    1    1    2  501    0 -0.49475871332E+02 -0.12662976982E+03  0.11286097287E+04  0.11367686133E+04  0.00000000000E+00 0.  1.
<scales pt_clust_3="77.29142" pt_clust_4="57.89057" pt_clust_5="96.96667" pt_clust_6="14000.00000"></scales>
<clustering>
<clus scale="   57.891">  2  4  1 -1</clus>
<clus scale="   77.291">  1  3  2 -1</clus>
<clus scale="   96.967">  2  5  1 -1</clus>
<clus scale="   57.891">  2  3  1 -1</clus>
</clustering>
</event>
<event>
 6    0  0.3584505E+002  0.5770207E+02  0.7546771E-02  0.1407736E+00
          2   -1    0    0  504    0 -0.00000000000E+00  0.00000000000E+00  0.13502894639E+04  0.13502894639E+04  0.00000000000E+00 0.  1.
         21   -1    0    0  503  502  0.00000000000E+00 -0.00000000000E+00 -0.17134248332E+02  0.17134248332E+02  0.00000000000E+00 0.  1.
         21    1    1    2  503  501  0.31495013700E+02  0.37655684320E+02  0.16261256480E+03  0.16986092158E+03  0.00000000000E+00 0. -1.
         21    1    1    2  504  505 -0.73446412938E+02  0.31082202350E+02  0.50910791474E+03  0.51531674505E+03  0.00000000000E+00 0.  1.
         21    1    1    2  505  502 -0.89868219351E+01 -0.75931352635E+02  0.15128955292E+03  0.16951360448E+03  0.00000000000E+00 0.  1.
          2    1    1    2  501    0  0.50938221173E+02  0.71934659648E+01  0.51014518310E+03  0.51273244111E+03  0.00000000000E+00 0.  1.
<scales pt_clust_3="49.09059" pt_clust_4="57.70207" pt_clust_5="51.99887" pt_clust_6="14000.00000"></scales>
<clustering>
<clus scale="   49.091">  2  3  1 -1</clus>
<clus scale="   51.999">  2  5  1 -1</clus>
<clus scale="   57.702">  2  4  1 -1</clus>
<clus scale="   49.091">  2  3  1 -1</clus>
</clustering>
</event>
<event>
 6    0  0.3584505E+002  0.9855159E+02  0.7546771E-02  0.1283372E+00
         21   -1    0    0  501  502  0.00000000000E+00  0.00000000000E+00  0.34105426330E+04  0.34105426330E+04  0.00000000000E+00 0.  1.
          1   -1    0    0  505    0 -0.00000000000E+00 -0.00000000000E+00 -0.12359734376E+03  0.12359734376E+03  0.00000000000E+00 0.  1.
         21    1    1    2  503  502 -0.43164517196E+02  0.35381177017E+02  0.28935543141E+04  0.28940925299E+04  0.00000000000E+00 0.  1.
         21    1    1    2  504  503 -0.78972597215E+01  0.55799523536E+02  0.39970111154E+03  0.40365447118E+03  0.00000000000E+00 0.  1.
         21    1    1    2  505  504  0.87736493725E+02 -0.11415381656E+03  0.61005783365E+02  0.15636653021E+03  0.00000000000E+00 0. -1.
          1    1    1    2  501    0 -0.36674716808E+02  0.22973116006E+02 -0.67315919770E+02  0.80026445419E+02  0.00000000000E+00 0.  1.
<scales pt_clust_3="56.04360" pt_clust_4="98.55159" pt_clust_5="14000.00000" pt_clust_6="43.27585"></scales>
<clustering>
<clus scale="   43.276">  2  6  1 -1</clus>
<clus scale="   56.044">  1  3  2 -1</clus>
<clus scale="   98.552">  1  4  2 -1</clus>
<clus scale="   56.044">  1  3  2 -1</clus>
</clustering>
</event>
<event>
 6    0  0.3584505E+002  0.1140670E+03  0.7546771E-02  0.1253218E+00
          1   -1    0    0  505    0 -0.00000000000E+00  0.00000000000E+00  0.16166199265E+04  0.16166199265E+04  0.00000000000E+00 0. -1.
         21   -1    0    0  504  502  0.00000000000E+00 -0.00000000000E+00 -0.48907589609E+02  0.48907589609E+02  0.00000000000E+00 0. -1.
         21    1    1    2  503  502  0.18750778734E+02 -0.25150671198E+02  0.14559060213E+02  0.34584883969E+02  0.00000000000E+00 0. -1.
         21    1    1    2  504  501 -0.92197570755E+02  0.18690049805E+02  0.16751042741E+03  0.19211833152E+03  0.00000000000E+00 0. -1.
         21    1    1    2  505  503  0.18006568261E+03  0.69381610498E+00  0.31472068321E+03  0.36259238805E+03  0.00000000000E+00 0. -1.
          1    1    1    2  501    0 -0.10661889059E+03  0.57668052881E+01  0.10709221661E+04  0.10762319126E+04  0.00000000000E+00 0. -1.
<scales pt_clust_3="31.37113" pt_clust_4="86.93118" pt_clust_5="14000.00000" pt_clust_6="114.06702"></scales>
<clustering>
<clus scale="   31.371">  2  3  1 -1</clus>
<clus scale="   86.931">  2  4  1 -1</clus>
<clus scale="  114.067">  1  6  2 -1</clus>
<clus scale="   31.371">  2  3  1 -1</clus>
</clustering>
</event>
<event>
 6    0  0.3584505E+002  0.1713358E+03  0.7546771E-02  0.1176462E+00
          1   -1    0    0  503    0 -0.00000000000E+00  0.00000000000E+00  0.81956040316E+03  0.81956040316E+03  0.00000000000E+00 0.  1.
         21   -1    0    0  504  502  0.00000000000E+00 -0.00000000000E+00 -0.24418110555E+03  0.24418110555E+03  0.00000000000E+00 0.  1.
         21    1    1    2  503  502 -0.32952038218E+02 -0.14460802315E+03  0.27845819064E+03  0.31549371010E+03  0.00000000000E+00 0.  1.
         21    1    1    2  504  505 -0.45408305465E+01  0.32066474197E+02 -0.17028807214E+03  0.17334043216E+03  0.00000000000E+00 0.  1.
         21    1    1    2  505  501  0.10864594060E+01  0.17303430657E+03  0.97701493314E+02  0.19871495525E+03  0.00000000000E+00 0.  1.
          1    1    1    2  501    0  0.36406409358E+02 -0.60492757625E+02  0.36950768580E+03  0.37619241119E+03  0.00000000000E+00 0.  1.
<scales pt_clust_3="171.33576" pt_clust_4="32.38638" pt_clust_5="14000.00000" pt_clust_6="69.22849"></scales>
<clustering>
<clus scale="   32.386">  2  4  1 -1</clus>
<clus scale="   69.228">  1  6  2 -1</clus>
<clus scale="  171.336">  1  3  2 -1</clus>
<clus scale="   32.386">  2  3  1 -1</clus>
</clustering>
</event>
<event>
 6    0  0.3584505E+002  0.1141476E+03  0.7546771E-02  0.1253076E+00
         21   -1    0    0  503  502  0.00000000000E+00  0.00000000000E+00  0.15502517771E+02  0.15502517771E+02  0.00000000000E+00 0.  1.
          2   -1    0    0  505    0 -0.00000000000E+00 -0.00000000000E+00 -0.30444450311E+04  0.30444450311E+04  0.00000000000E+00 0. -1.
         21    1    1    2  503  504  0.11545637794E+03  0.74193583552E+01 -0.46325801991E+03  0.47748635069E+03  0.00000000000E+00 0.  1.
         21    1    1    2  504  501 -0.12191316635E+03 -0.59798561227E+02 -0.81288357104E+03  0.82414706704E+03  0.00000000000E+00 0. -1.
         21    1    1    2  505  502 -0.32573424942E+02  0.22341035797E+02 -0.16181336113E+03  0.16656444318E+03  0.00000000000E+00 0. -1.
          2    1    1    2  501    0  0.39030213358E+02  0.30038167075E+02 -0.15909875613E+04  0.15917496880E+04  0.00000000000E+00 0. -1.
<scales pt_clust_3="114.14761" pt_clust_4="14000.00000" pt_clust_5="39.49873" pt_clust_6="48.90924"></scales>
<clustering>
<clus scale="   39.499">  1  5  2 -1</clus>
<clus scale="   48.909">  2  6  1 -1</clus>
<clus scale="  114.148">  1  3  2 -1</clus>
<clus scale="   39.499">  1  3  2 -1</clus>
</clustering>
</event>
<event>
 6    0  0.3584505E+002  0.1367249E+03  0.7546771E-02  0.1217805E+00
         -3   -1    0    0    0  501 -0.00000000000E+00  0.00000000000E+00  0.60400520605E+03  0.60400520605E+03  0.00000000000E+00 0. -1.
         21   -1    0    0  504  502  0.00000000000E+00 -0.00000000000E+00 -0.69746293510E+02  0.69746293510E+02  0.00000000000E+00 0. -1.
         21    1    1    2  503  502  0.41231156581E+02 -0.18131443026E+02  0.20542611785E+02  0.49505114869E+02  0.00000000000E+00 0. -1.
         21    1    1    2  504  501 -0.17063154884E+03 -0.23027256962E+02  0.15048693587E+03  0.22867378051E+03  0.00000000000E+00 0. -1.
         21    1    1    2  505  503  0.10055157394E+03  0.56353865496E+02  0.21659077084E+03  0.24535268328E+03  0.00000000000E+00 0. -1.
         -3    1    1    2    0  505  0.28848818317E+02 -0.15195165508E+02  0.14663859404E+03  0.15021992090E+03  0.00000000000E+00 0. -1.
<scales pt_clust_3="47.54252" pt_clust_4="136.72491" pt_clust_5="14000.00000" pt_clust_6="32.60594"></scales>
<clustering>
<clus scale="   32.606">  1  6  2 -1</clus>
<clus scale="   47.543">  2  3  1 -1</clus>
<clus scale="  136.725">  2  4  1 -1</clus>
<clus scale="   47.543">  2  3  1 -1</clus>
</clustering>
</event>
<event>
 6    0  0.3584505E+002  0.3084834E+03  0.7546771E-02  0.1081075E+00
         21   -1    0    0  505  502  0.00000000000E+00  0.00000000000E+00  0.12049621186E+03  0.12049621186E+03  0.00000000000E+00 0.  1.
          1   -1    0    0  504    0 -0.00000000000E+00 -0.00000000000E+00 -0.17868961944E+04  0.17868961944E+04  0.00000000000E+00 0.  1.
         21    1    1    2  503  502  0.46244711693E+02  0.37823939873E+02  0.22587008234E+02  0.63870155221E+02  0.00000000000E+00 0.  1.
         21    1    1    2  504  503  0.18147852683E+03  0.13534222440E+03 -0.14012911796E+03  0.26624827343E+03  0.00000000000E+00 0.  1.
         21    1    1    2  505  501 -0.16188137605E+03 -0.13736665974E+03 -0.93177743157E+03  0.95565912391E+03  0.00000000000E+00 0.  1.
          1    1    1    2  501    0 -0.65841862470E+02 -0.35799504535E+02 -0.61708044120E+03  0.62161485366E+03  0.00000000000E+00 0.  1.
<scales pt_clust_3="59.28289" pt_clust_4="59.28289" pt_clust_5="49.66683" pt_clust_6="298.04780"></scales>
<clustering>
<clus scale="   49.667">  5  6 -1 -1</clus>
<clus scale="   59.283">  3  4 -1 -1</clus>
<clus scale="  298.048">  2  5  1 -1</clus>
<clus scale="  308.483">  1  3  2 -1</clus>
</clustering>
</event>
<event>
 6    0  0.3584505E+002  0.9725093E+02  0.7546771E-02  0.1286185E+00
          2   -1    0    0  505    0 -0.00000000000E+00  0.00000000000E+00  0.58796554460E+02  0.58796554460E+02  0.00000000000E+00 0.  1.
         21   -1    0    0  504  502  0.00000000000E+00 -0.00000000000E+00 -0.49699944352E+03  0.49699944352E+03  0.00000000000E+00 0.  1.
         21    1    1    2  503  501  0.39598976498E+02 -0.89686223478E+01 -0.93798395613E+02  0.10220887508E+03  0.00000000000E+00 0.  1.
         21    1    1    2  504  503  0.29829387751E+02  0.24942718215E+02 -0.87989718920E+02  0.96198348225E+02  0.00000000000E+00 0.  1.
         21    1    1    2  505  502 -0.11010802371E+03 -0.60331106268E+02 -0.26813292363E+03  0.29607243033E+03  0.00000000000E+00 0.  1.
          2    1    1    2  501    0  0.40679659457E+02  0.44357010401E+02  0.11718149099E+02  0.61316344343E+02  0.00000000000E+00 0.  1.
<scales pt_clust_3="34.50262" pt_clust_4="34.50262" pt_clust_5="90.63501" pt_clust_6="60.18620"></scales>
<clustering>
<clus scale="   34.503">  3  4 -1 -1</clus>
<clus scale="   60.186">  1  6  2 -1</clus>
<clus scale="   90.635">  1  5  2 -1</clus>
<clus scale="   97.251">  2  3  1 -1</clus>
</clustering>
</event>
<event>
 6    0  0.3584505E+002  0.7301806E+02  0.7546771E-02  0.1350121E+00
         21   -1    0    0  503  502  0.00000000000E+00  0.00000000000E+00  0.44323865484E+03  0.44323865484E+03  0.00000000000E+00 0.  1.
         -4   -1    0    0    0  501 -0.00000000000E+00 -0.00000000000E+00 -0.41255392969E+03  0.41255392969E+03  0.00000000000E+00 0.  1.
         21    1    1    2  503  504  0.35491911786E+02  0.18753033129E+01  0.32461868768E+03  0.32655854751E+03  0.00000000000E+00 0.  1.
         21    1    1    2  504  501  0.13631880470E+02  0.87760011295E+02 -0.53627170246E+02  0.10374739099E+03  0.00000000000E+00 0.  1.
         21    1    1    2  505  502 -0.70501421373E+02 -0.21194327215E+02  0.73240646561E+02  0.10384528025E+03  0.00000000000E+00 0.  1.
         -4    1    1    2    0  505  0.21377629117E+02 -0.68440987394E+02 -0.31354743884E+03  0.32164136578E+03  0.00000000000E+00 0.  1.
<scales pt_clust_3="35.54142" pt_clust_4="14000.00000" pt_clust_5="48.05165" pt_clust_6="73.01806"></scales>
<clustering>
<clus scale="   35.541">  1  3  2 -1</clus>
<clus scale="   48.052">  1  5  2 -1</clus>
<clus scale="   73.018">  2  6  1 -1</clus>
<clus scale="   35.541">  1  3  2 -1</clus>
</clustering>
</event>
<event>
 6    0  0.3584505E+002  0.1212492E+03  0.7546771E-02  0.1241050E+00
         21   -1    0    0  503  502  0.00000000000E+00  0.00000000000E+00  0.14887632266E+03  0.14887632266E+03  0.00000000000E+00 0. -1.
          2   -1    0    0  505    0 -0.00000000000E+00 -0.00000000000E+00 -0.18885217377E+04  0.18885217377E+04  0.00000000000E+00 0.  1.
         21    1    1    2  503  501 -0.68839743096E+02 -0.42799002283E+02 -0.11051584266E+03  0.13705625234E+03  0.00000000000E+00 0. -1.
         21    1    1    2  504  502  0.10822315892E+03  0.25743422626E+02  0.14050281050E+02  0.11212665308E+03  0.00000000000E+00 0. -1.
         21    1    1    2  505  504  0.48392033733E+02  0.54938890853E+02  0.52342986405E+02  0.89999216012E+02  0.00000000000E+00 0. -1.
          2    1    1    2  501    0 -0.87775449552E+02 -0.37883311196E+02 -0.16955228398E+04  0.16982159389E+04  0.00000000000E+00 0.  1.
<scales pt_clust_3="81.05964" pt_clust_4="59.66352" pt_clust_5="59.66352" pt_clust_6="96.39774"></scales>
<clustering>
<clus scale="   59.664">  4  5 -1 -1</clus>
<clus scale="   81.060">  1  3  2 -1</clus>
<clus scale="   96.398">  2  6  1 -1</clus>
<clus scale="   81.060">  1  3  2 -1</clus>
</clustering>
</event>
<event>
 6    0  0.3584505E+002  0.8773105E+02  0.7546771E-02  0.1308441E+00
         21   -1    0    0  503  502  0.00000000000E+00  0.00000000000E+00  0.58215011194E+02  0.58215011194E+02  0.00000000000E+00 0.  1.
          1   -1    0    0  504    0 -0.00000000000E+00 -0.00000000000E+00 -0.20753818441E+04  0.20753818441E+04  0.00000000000E+00 0.  1.
         21    1    1    2  503  505 -0.21701071386E+02 -0.39950638175E+02  0.37961299346E+02  0.59228795682E+02  0.00000000000E+00 0.  1.
         21    1    1    2  504  502 -0.42202637335E+02  0.26080424057E+01 -0.28188960382E+03  0.28504317783E+03  0.00000000000E+00 0.  1.
         21    1    1    2  505  501  0.11286997589E+03  0.47200366301E+02 -0.48751357340E+03  0.50263007300E+03  0.00000000000E+00 0.  1.
          1    1    1    2  501    0 -0.48966267167E+02 -0.98577705318E+01 -0.12857249550E+04  0.12866948088E+04  0.00000000000E+00 0.  1.
<scales pt_clust_3="45.57067" pt_clust_4="42.28315" pt_clust_5="87.73105" pt_clust_6="14000.00000"></scales>
<clustering>
<clus scale="   42.283">  2  4  1 -1</clus>
<clus scale="   45.571">  1  3  2 -1</clus>
<clus scale="   87.731">  1  5  2 -1</clus>
<clus scale="   45.571">  1  3  2 -1</clus>
</clustering>
</event>
<event>
 6    0  0.3584505E+002  0.1055855E+03  0.7546771E-02  0.1268970E+00
          2   -1    0    0  505    0 -0.00000000000E+00  0.00000000000E+00  0.52276236312E+03  0.52276236312E+03  0.00000000000E+00 0.  1.
         21   -1    0    0  503  502  0.00000000000E+00 -0.00000000000E+00 -0.99369674068E+02  0.99369674068E+02  0.00000000000E+00 0. -1.
         21    1    1    2  503  504 -0.39189560265E+02 -0.21565723946E+01 -0.37694296347E+02  0.54418125798E+02  0.00000000000E+00 0. -1.
         21    1    1    2  504  501 -0.49824377356E+02  0.63201624327E+02  0.10079738463E+02  0.81108045371E+02  0.00000000000E+00 0. -1.
         21    1    1    2  505  502  0.12061494654E+03 -0.78085866413E+02  0.32019545809E+03  0.35095654894E+03  0.00000000000E+00 0. -1.
          2    1    1    2  501    0 -0.31601008918E+02  0.17040814481E+02  0.13081178884E+03  0.13564931707E+03  0.00000000000E+00 0.  1.
<scales pt_clust_3="39.90812" pt_clust_4="105.58547" pt_clust_5="14000.00000" pt_clust_6="35.90283"></scales>
<clustering>
<clus scale="   35.903">  1  6  2 -1</clus>
<clus scale="   39.908">  2  3  1 -1</clus>
<clus scale="  105.585">  2  4  1 -1</clus>
<clus scale="   39.908">  2  3  1 -1</clus>
</clustering>
</event>
<event>
 6    0  0.3584505E+002  0.1948721E+03  0.7546771E-02  0.1154139E+00
         21   -1    0    0  503  502  0.00000000000E+00  0.00000000000E+00  0.64981225971E+02  0.64981225971E+02  0.00000000000E+00 0.  1.
          1   -1    0    0  504    0 -0.00000000000E+00 -0.00000000000E+00 -0.21208555547E+04  0.21208555547E+04  0.00000000000E+00 0. -1.
         21    1    1    2  503  505 -0.70751479080E+02  0.62010968762E+02 -0.61089655921E+03  0.61809848576E+03  0.00000000000E+00 0. -1.
         21    1    1    2  504  502  0.85664270284E+02 -0.16582249609E+03 -0.90144707326E+02  0.20727164705E+03  0.00000000000E+00 0.  1.
         21    1    1    2  505  501  0.13285482976E+01  0.69966524263E+02 -0.50745068454E+03  0.51225313742E+03  0.00000000000E+00 0. -1.
          1    1    1    2  501    0 -0.16241339502E+02  0.33845003064E+02 -0.84738237763E+03  0.84821351042E+03  0.00000000000E+00 0. -1.
<scales pt_clust_3="59.89030" pt_clust_4="182.25943" pt_clust_5="59.89030" pt_clust_6="37.54018"></scales>
<clustering>
<clus scale="   37.540">  2  6  1 -1</clus>
<clus scale="   59.890">  3  5 -1 -1</clus>
<clus scale="  182.259">  1  4  2 -1</clus>
<clus scale="  182.259">  1  3  2 -1</clus>
</clustering>
</event>
<event>
 6    0  0.3584505E+002  0.1199588E+03  0.7546771E-02  0.1243165E+00
         21   -1    0    0  503  502  0.00000000000E+00  0.00000000000E+00  0.34211707656E+03  0.34211707656E+03  0.00000000000E+00 0.  1.
          1   -1    0    0  505    0 -0.00000000000E+00 -0.00000000000E+00 -0.39090198040E+03  0.39090198040E+03  0.00000000000E+00 0.  1.
         21    1    1    2  503  501 -0.27731099256E+02 -0.91681914013E+02  0.13196074540E+03  0.16305896342E+03  0.00000000000E+00 0.  1.
         21    1    1    2  504  502 -0.16724953796E+02  0.64460607731E+02  0.87718894049E+02  0.11013400202E+03  0.00000000000E+00 0. -1.
         21    1    1    2  505  504  0.31219839410E+02  0.68882102365E+02  0.79151011670E+02  0.10947285073E+03  0.00000000000E+00 0.  1.
          1    1    1    2  501    0  0.13236213641E+02 -0.41660796082E+02 -0.34761555496E+03  0.35035324079E+03  0.00000000000E+00 0.  1.
<scales pt_clust_3="109.53940" pt_clust_4="45.03905" pt_clust_5="45.03905" pt_clust_6="43.71292"></scales>
<clustering>
<clus scale="   43.713">  2  6  1 -1</clus>
<clus scale="   45.039">  4  5 -1 -1</clus>
<clus scale="  109.539">  1  3  2 -1</clus>
<clus scale="  109.539">  1  3  2 -1</clus>
</clustering>
</event>
<event>
 6    0  0.3584505E+002  0.9181179E+02  0.7546771E-02  0.1298523E+00
         21   -1    0    0  504  502  0.00000000000E+00  0.00000000000E+00  0.96199776867E+03  0.96199776867E+03  0.00000000000E+00 0. -1.
         -3   -1    0    0    0  501 -0.00000000000E+00 -0.00000000000E+00 -0.22908307828E+03  0.22908307828E+03  0.00000000000E+00 0.  1.
         21    1    1    2  503  505 -0.32020176083E+02  0.84576423961E+02 -0.52816059386E+00  0.90436398204E+02  0.00000000000E+00 0.  1.
         21    1    1    2  504  501  0.22490707730E+02 -0.13084659295E+03  0.65495051490E+03  0.66827153148E+03  0.00000000000E+00 0. -1.
         21    1    1    2  505  502 -0.59813408924E+02  0.44368316078E+02  0.24283054606E+03  0.25399382957E+03  0.00000000000E+00 0. -1.
         -3    1    1    2    0  503  0.69342877278E+02  0.19018529125E+01 -0.16433820997E+03  0.17837908770E+03  0.00000000000E+00 0.  1.
<scales pt_clust_3="14000.00000" pt_clust_4="91.81179" pt_clust_5="69.32095" pt_clust_6="69.36895"></scales>
<clustering>
<clus scale="   69.369">  2  6  1 -1</clus>
<clus scale="   69.321">  1  5  2 -1</clus>
<clus scale="   91.812">  1  4  2 -1</clus>
<clus scale="   69.321">  1  3  2 -1</clus>
</clustering>
</event>
<event>
 6    0  0.3584505E+002  0.1270388E+03  0.7546771E-02  0.1231917E+00
         21   -1    0    0  503  502  0.00000000000E+00  0.00000000000E+00  0.18011804820E+04  0.18011804820E+04  0.00000000000E+00 0.  1.
          1   -1    0    0  505    0 -0.00000000000E+00 -0.00000000000E+00 -0.57086240691E+03  0.57086240691E+03  0.00000000000E+00 0. -1.
         21    1    1    2  503  504  0.28019290050E+02  0.11823813518E+02  0.26715597470E+02  0.40479702682E+02  0.00000000000E+00 0.  1.
         21    1    1    2  504  501 -0.20248935181E+02 -0.92461405794E+02 -0.20042716143E+03  0.22165328325E+03  0.00000000000E+00 0. -1.
         21    1    1    2  505  502  0.15797952207E+02  0.10912420887E+03  0.17542658597E+04  0.17577276168E+04  0.00000000000E+00 0.  1.
          1    1    1    2  501    0 -0.23568307076E+02 -0.28486616596E+02 -0.35023622067E+03  0.35218228617E+03  0.00000000000E+00 0. -1.
<scales pt_clust_3="30.41189" pt_clust_4="14000.00000" pt_clust_5="127.03876" pt_clust_6="36.95747"></scales>
<clustering>
<clus scale="   30.412">  1  3  2 -1</clus>
<clus scale="   36.957">  2  6  1 -1</clus>
<clus scale="  127.039">  1  5  2 -1</clus>
<clus scale="   30.412">  1  3  2 -1</clus>
</clustering>
</event>
<event>
 6    0  0.3584505E+002  0.1090197E+03  0.7546771E-02  0.1262396E+00
         21   -1    0    0  503  502  0.00000000000E+00  0.00000000000E+00  0.20479353053E+03  0.20479353053E+03  0.00000000000E+00 0.  1.
          2   -1    0    0  502    0 -0.00000000000E+00 -0.00000000000E+00 -0.18642314524E+04  0.18642314524E+04  0.00000000000E+00 0. -1.
         21    1    1    2  503  504  0.53934282018E+02  0.19522421986E+02  0.82066973241E+02  0.10012502102E+03  0.00000000000E+00 0.  1.
         21    1    1    2  504  505  0.47422908052E+01  0.80022432460E+02  0.87126042349E+02  0.11839352294E+03  0.00000000000E+00 0.  1.
         21    1    1    2  505  501 -0.79362677486E+02 -0.70281285459E+02 -0.25099519875E+03  0.27246372870E+03  0.00000000000E+00 0. -1.
          2    1    1    2  501    0  0.20686104664E+02 -0.29263568987E+02 -0.15776357387E+04  0.15780427103E+04  0.00000000000E+00 0. -1.
<scales pt_clust_3="57.66831" pt_clust_4="14000.00000" pt_clust_5="109.01969" pt_clust_6="35.83673"></scales>
<clustering>
<clus scale="   35.837">  2  6  1 -1</clus>
<clus scale="   57.668">  1  3  2 -1</clus>
<clus scale="  109.020">  2  5  1 -1</clus>
<clus scale="   57.668">  1  3  2 -1</clus>
</clustering>
</event>
<event>
 6    0  0.3584505E+002  0.8225338E+02  0.7546771E-02  0.1322776E+00
         21   -1    0    0  505  502  0.00000000000E+00  0.00000000000E+00  0.10890038847E+03  0.10890038847E+03  0.00000000000E+00 0.  1.
          2   -1    0    0  503    0 -0.00000000000E+00 -0.00000000000E+00 -0.52878451186E+03  0.52878451186E+03  0.00000000000E+00 0. -1.
         21    1    1    2  503  502 -0.12975585533E+02 -0.51104038977E+02 -0.29791414188E+02  0.60560027898E+02  0.00000000000E+00 0.  1.
         21    1    1    2  504  501  0.83359885752E+02 -0.36759922622E+02 -0.21436998871E+02  0.93593308438E+02  0.00000000000E+00 0.  1.
         21    1    1    2  505  504 -0.15856025754E+02  0.26499656499E+02  0.48981095607E+02  0.57903307972E+02  0.00000000000E+00 0. -1.
          2    1    1    2  501    0 -0.54528274465E+02  0.61364305101E+02 -0.41763680594E+03  0.42562825603E+03  0.00000000000E+00 0. -1.
<scales pt_clust_3="47.07631" pt_clust_4="82.25338" pt_clust_5="30.88115" pt_clust_6="14000.00000"></scales>
<clustering>
<clus scale="   30.881">  1  5  2 -1</clus>
<clus scale="   47.076">  1  3  2 -1</clus>
<clus scale="   82.253">  1  4  2 -1</clus>
<clus scale="   30.881">  1  3  2 -1</clus>
</clustering>
</event>
<event>
 6    0  0.3584505E+002  0.9189060E+02  0.7546771E-02  0.1298337E+00
          4   -1    0    0  504    0 -0.00000000000E+00  0.00000000000E+00  0.19123359476E+03  0.19123359476E+03  0.00000000000E+00 0.  1.
         21   -1    0    0  505  502  0.00000000000E+00 -0.00000000000E+00 -0.16990309274E+04  0.16990309274E+04  0.00000000000E+00 0.  1.
         21    1    1    2  503  502  0.56668354342E+02  0.11631432507E+03 -0.13475725932E+04  0.13537696328E+04  0.00000000000E+00 0.  1.
         21    1    1    2  504  503 -0.81148397706E+02 -0.17976985412E+02 -0.72995455186E+02  0.11061903513E+03  0.00000000000E+00 0.  1.
         21    1    1    2  505  501  0.13354347762E+02 -0.52699251463E+02 -0.25031968535E+03  0.25615521580E+03  0.00000000000E+00 0.  1.
          4    1    1    2  501    0  0.11125695602E+02 -0.45638088199E+02  0.16309040109E+03  0.16972063848E+03  0.00000000000E+00 0.  1.
<scales pt_clust_3="91.89060" pt_clust_4="14000.00000" pt_clust_5="59.88516" pt_clust_6="46.97463"></scales>
<clustering>
<clus scale="   46.975">  1  6  2 -1</clus>
<clus scale="   59.885">  2  5  1 -1</clus>
<clus scale="   91.891">  2  3  1 -1</clus>
<clus scale="   59.885">  2  3  1 -1</clus>
</clustering>
</event>
<event>
 6    0  0.3584505E+002  0.8363264E+02  0.7546771E-02  0.1319048E+00
          1   -1    0    0  505    0 -0.00000000000E+00  0.00000000000E+00  0.85061905604E+02  0.85061905604E+02  0.00000000000E+00 0. -1.
         21   -1    0    0  503  502  0.00000000000E+00 -0.00000000000E+00 -0.72943554104E+03  0.72943554104E+03  0.00000000000E+00 0. -1.
         21    1    1    2  503  501 -0.18774317886E+02  0.57891008393E+02 -0.29286240196E+03  0.29911909057E+03  0.00000000000E+00 0. -1.
         21    1    1    2  504  502 -0.11122420058E+02 -0.31599065265E+02 -0.21523164853E+03  0.21782302836E+03  0.00000000000E+00 0. -1.
         21    1    1    2  505  504  0.10958305660E+03 -0.32276065752E+02 -0.17482063548E+03  0.20883592915E+03  0.00000000000E+00 0. -1.
          1    1    1    2  501    0 -0.79686318660E+02  0.59841226245E+01  0.38541050532E+02  0.88719398562E+02  0.00000000000E+00 0. -1.
<scales pt_clust_3="46.98145" pt_clust_4="33.49939" pt_clust_5="14000.00000" pt_clust_6="83.63264"></scales>
<clustering>
<clus scale="   33.499">  2  4  1 -1</clus>
<clus scale="   46.981">  2  3  1 -1</clus>
<clus scale="   83.633">  1  6  2 -1</clus>
<clus scale="   33.499">  2  3  1 -1</clus>
</clustering>
</event>
<event>
 6    0  0.3584505E+002  0.1315925E+03  0.7546771E-02  0.1225112E+00
         21   -1    0    0  505  502  0.00000000000E+00  0.00000000000E+00  0.33914482022E+03  0.33914482022E+03  0.00000000000E+00 0. -1.
          2   -1    0    0  504    0 -0.00000000000E+00 -0.00000000000E+00 -0.33294402511E+03  0.33294402511E+03  0.00000000000E+00 0. -1.
         21    1    1    2  503  502  0.24987812814E+02  0.33350607568E+02  0.11208755939E+03  0.11958375636E+03  0.00000000000E+00 0. -1.
         21    1    1    2  504  503  0.81846173219E+02  0.10022475588E+03 -0.21959848258E+03  0.25488682059E+03  0.00000000000E+00 0. -1.
         21    1    1    2  505  501  0.65059291405E+01 -0.48389660794E+02  0.14450401161E+03  0.15252965534E+03  0.00000000000E+00 0. -1.
          2    1    1    2  501    0 -0.11333991517E+03 -0.85185702650E+02 -0.30792293312E+02  0.14508861304E+03  0.00000000000E+00 0. -1.
<scales pt_clust_3="41.67318" pt_clust_4="131.59254" pt_clust_5="34.95232" pt_clust_6="14000.00000"></scales>
<clustering>
<clus scale="   41.673">  1  3  2 -1</clus>
<clus scale="   34.952">  1  5  2 -1</clus>
<clus scale="  131.593">  2  4  1 -1</clus>
<clus scale="   41.673">  1  3  2 -1</clus>
</clustering>
</event>
<event>
 6    0  0.3584505E+002  0.1756290E+03  0.7546771E-02  0.1172102E+00
          2   -1    0    0  504    0 -0.00000000000E+00  0.00000000000E+00  0.63184867909E+03  0.63184867909E+03  0.00000000000E+00 0.  1.
         21   -1    0    0  503  502  0.00000000000E+00 -0.00000000000E+00 -0.41351764433E+03  0.41351764433E+03  0.00000000000E+00 0. -1.
         21    1    1    2  503  501  0.14388046697E+03 -0.11545283933E+03  0.12289602660E+03  0.22166276241E+03  0.00000000000E+00 0.  1.
         21    1    1    2  504  505 -0.37858595756E+02  0.16770383544E+03 -0.39581243319E+02  0.17642144007E+03  0.00000000000E+00 0. -1.
         21    1    1    2  505  502  0.24687367140E+02  0.41466306248E+02 -0.23706524405E+03  0.24192736635E+03  0.00000000000E+00 0. -1.
          2    1    1    2  501    0 -0.13070923836E+03 -0.93717302362E+02  0.37208149552E+03  0.40535475458E+03  0.00000000000E+00 0.  1.
<scales pt_clust_3="175.62901" pt_clust_4="14000.00000" pt_clust_5="48.25889" pt_clust_6="156.61771"></scales>
<clustering>
<clus scale="   48.259">  2  5  1 -1</clus>
<clus scale="  156.618">  1  6  2 -1</clus>
<clus scale="  175.629">  1  3  2 -1</clus>
<clus scale="   48.259">  2  3  1 -1</clus>
</clustering>
</event>
<event>
 6    0  0.3584505E+002  0.8905747E+02  0.7546771E-02  0.1305150E+00
          2   -1    0    0  505    0 -0.00000000000E+00  0.00000000000E+00  0.90833602647E+03  0.90833602647E+03  0.00000000000E+00 0. -1.
         21   -1    0    0  504  502  0.00000000000E+00 -0.00000000000E+00 -0.60231593747E+03  0.60231593747E+03  0.00000000000E+00 0.  1.
         21    1    1    2  503  502  0.27378328561E+02 -0.23069156047E+02 -0.13880602432E+03  0.14334877476E+03  0.00000000000E+00 0. -1.
         21    1    1    2  504  501 -0.10952429351E+03 -0.11562410083E+02 -0.44976649330E+03  0.46305416388E+03  0.00000000000E+00 0.  1.
         21    1    1    2  505  503  0.58280817772E+02  0.55965914337E+02  0.37186863446E+03  0.38054581667E+03  0.00000000000E+00 0. -1.
          2    1    1    2  501    0  0.23865147175E+02 -0.21334348208E+02  0.52272397216E+03  0.52370320863E+03  0.00000000000E+00 0. -1.
<scales pt_clust_3="35.99037" pt_clust_4="89.05747" pt_clust_5="14000.00000" pt_clust_6="32.01093"></scales>
<clustering>
<clus scale="   32.011">  1  6  2 -1</clus>
<clus scale="   35.990">  2  3  1 -1</clus>
<clus scale="   89.057">  2  4  1 -1</clus>
<clus scale="   35.990">  2  3  1 -1</clus>
</clustering>
</event>
<event>
 6    0  0.3584505E+002  0.8061659E+02  0.7546771E-02  0.1327311E+00
         21   -1    0    0  503  502  0.00000000000E+00  0.00000000000E+00  0.74333392088E+03  0.74333392088E+03  0.00000000000E+00 0.  1.
          1   -1    0    0  504    0 -0.00000000000E+00 -0.00000000000E+00 -0.33981774725E+03  0.33981774725E+03  0.00000000000E+00 0.  1.
         21    1    1    2  503  501  0.80495435578E+02  0.16357040891E+02  0.70069101165E+03  0.70548916487E+03  0.00000000000E+00 0.  1.
         21    1    1    2  504  505  0.32729914266E+02 -0.42390131577E+02 -0.17020127667E+03  0.17842826324E+03  0.00000000000E+00 0. -1.
         21    1    1    2  505  502 -0.62945587851E+02  0.24809142878E+02 -0.56438327603E+01  0.67893250390E+02  0.00000000000E+00 0.  1.
          1    1    1    2  501    0 -0.50279761994E+02  0.12239478082E+01 -0.12132972860E+03  0.13134098963E+03  0.00000000000E+00 0.  1.
<scales pt_clust_3="80.61659" pt_clust_4="42.21966" pt_clust_5="14000.00000" pt_clust_6="50.29466"></scales>
<clustering>
<clus scale="   50.295">  2  6  1 -1</clus>
<clus scale="   42.220">  2  4  1 -1</clus>
<clus scale="   80.617">  1  3  2 -1</clus>
<clus scale="   80.617">  1  3  2 -1</clus>
</clustering>
</event>
<event>
 6    0  0.3584505E+002  0.7445781E+02  0.7546771E-02  0.1345558E+00
         21   -1    0    0  505  502  0.00000000000E+00  0.00000000000E+00  0.12151925548E+03  0.12151925548E+03  0.00000000000E+00 0. -1.
          2   -1    0    0  504    0 -0.00000000000E+00 -0.00000000000E+00 -0.91771714333E+03  0.91771714333E+03  0.00000000000E+00 0. -1.
         21    1    1    2  503  502  0.27842688072E+02 -0.26762307018E+02  0.81657035446E+02  0.90328886818E+02  0.00000000000E+00 0. -1.
         21    1    1    2  504  503  0.56107974367E+02  0.96043066717E+02 -0.14924375536E+03  0.18613455877E+03  0.00000000000E+00 0. -1.
         21    1    1    2  505  501 -0.48107747941E+02 -0.37127272104E+02 -0.40609729096E+02  0.73088575326E+02  0.00000000000E+00 0. -1.
          2    1    1    2  501    0 -0.35842914499E+02 -0.32153487594E+02 -0.68800143883E+03  0.68968437790E+03  0.00000000000E+00 0. -1.
<scales pt_clust_3="38.61912" pt_clust_4="14000.00000" pt_clust_5="74.45781" pt_clust_6="48.09248"></scales>
<clustering>
<clus scale="   38.619">  1  3  2 -1</clus>
<clus scale="   48.092">  2  6  1 -1</clus>
<clus scale="   74.458">  1  5  2 -1</clus>
<clus scale="   38.619">  1  3  2 -1</clus>
</clustering>
</event>
<event>
 6    0  0.3584505E+002  0.8969067E+02  0.7546771E-02  0.1303603E+00
         21   -1    0    0  505  502  0.00000000000E+00  0.00000000000E+00  0.55454303168E+02  0.55454303168E+02  0.00000000000E+00 0. -1.
          1   -1    0    0  503    0 -0.00000000000E+00 -0.00000000000E+00 -0.14815756063E+04  0.14815756063E+04  0.00000000000E+00 0. -1.
         21    1    1    2  503  504 -0.49633374780E+02  0.85890895426E+02 -0.98378051218E+02  0.13971026723E+03  0.00000000000E+00 0. -1.
         21    1    1    2  504  502 -0.25040739803E+02 -0.63766629290E+02 -0.24031780512E+02  0.72599918289E+02  0.00000000000E+00 0. -1.
         21    1    1    2  505  501  0.10188306197E+03 -0.45337744043E+02 -0.29499182906E+03  0.31536621341E+03  0.00000000000E+00 0. -1.
          1    1    1    2  501    0 -0.27208947386E+02  0.23213477907E+02 -0.10087196424E+04  0.10093535106E+04  0.00000000000E+00 0. -1.
<scales pt_clust_3="89.69067" pt_clust_4="67.40342" pt_clust_5="14000.00000" pt_clust_6="35.76580"></scales>
<clustering>
<clus scale="   35.766">  2  6  1 -1</clus>
<clus scale="   67.403">  1  4  2 -1</clus>
<clus scale="   89.691">  1  3  2 -1</clus>
<clus scale="   67.403">  1  3  2 -1</clus>
</clustering>
</event>
<event>
 6    0  0.3584505E+002  0.1807890E+03  0.7546771E-02  0.1167042E+00
         21   -1    0    0  503  502  0.00000000000E+00  0.00000000000E+00  0.12510378499E+04  0.12510378499E+04  0.00000000000E+00 0.  1.
          2   -1    0    0  505    0 -0.00000000000E+00 -0.00000000000E+00 -0.18237761822E+03  0.18237761822E+03  0.00000000000E+00 0. -1.
         21    1    1    2  503  501 -0.66195719783E+02  0.45445540956E+02  0.76335072215E+03  0.76756204669E+03  0.00000000000E+00 0.  1.
         21    1    1    2  504  502 -0.44151998452E+02 -0.19738711123E+02  0.17230541883E+03  0.17896416693E+03  0.00000000000E+00 0. -1.
         21    1    1    2  505  504  0.24089851959E+03  0.76772368322E+02  0.18463507735E+03  0.31307539837E+03  0.00000000000E+00 0.  1.
          2    1    1    2  501    0 -0.13055080136E+03 -0.10247919816E+03 -0.51630986681E+02  0.17381385611E+03  0.00000000000E+00 0. -1.
<scales pt_clust_3="102.54679" pt_clust_4="48.36337" pt_clust_5="180.78897" pt_clust_6="14000.00000"></scales>
<clustering>
<clus scale="   48.363">  1  4  2 -1</clus>
<clus scale="  102.547">  1  3  2 -1</clus>
<clus scale="  180.789">  1  5  2 -1</clus>
<clus scale="   48.363">  1  3  2 -1</clus>
</clustering>
</event>
<event>
 6    0  0.3584505E+002  0.1019998E+03  0.7546771E-02  0.1276146E+00
         21   -1    0    0  501  502  0.00000000000E+00  0.00000000000E+00  0.18820525927E+03  0.18820525927E+03  0.00000000000E+00 0.  1.
          2   -1    0    0  503    0 -0.00000000000E+00 -0.00000000000E+00 -0.25879913951E+03  0.25879913951E+03  0.00000000000E+00 0.  1.
         21    1    1    2  503  504 -0.40048449510E+02 -0.32181843935E+02 -0.55029597632E+02  0.75284832487E+02  0.00000000000E+00 0.  1.
         21    1    1    2  504  505 -0.72991721874E+02 -0.45578899090E+02  0.16472930424E+02  0.87616122609E+02  0.00000000000E+00 0.  1.
         21    1    1    2  505  502  0.58103114028E+02  0.10788146607E+03  0.86526379128E+02  0.15000398950E+03  0.00000000000E+00 0.  1.
          2    1    1    2  501    0  0.54937057355E+02 -0.30120723049E+02 -0.11856359215E+03  0.13409945418E+03  0.00000000000E+00 0.  1.
<scales pt_clust_3="51.37655" pt_clust_4="101.99976" pt_clust_5="14000.00000" pt_clust_6="58.67575"></scales>
<clustering>
<clus scale="   51.377">  2  3  1 -1</clus>
<clus scale="   58.676">  2  6  1 -1</clus>
<clus scale="  102.000">  2  4  1 -1</clus>
<clus scale="  102.000">  1  3  2 -1</clus>
</clustering>
</event>
<event>
 6    0  0.3584505E+002  0.1543324E+03  0.7546771E-02  0.1195248E+00
         21   -1    0    0  503  502  0.00000000000E+00  0.00000000000E+00  0.22099095948E+03  0.22099095948E+03  0.00000000000E+00 0. -1.
          1   -1    0    0  505    0 -0.00000000000E+00 -0.00000000000E+00 -0.12960544155E+04  0.12960544155E+04  0.00000000000E+00 0.  1.
         21    1    1    2  503  501 -0.21197691671E+02 -0.13286036787E+03  0.48999536096E+02  0.14318580244E+03  0.00000000000E+00 0. -1.
         21    1    1    2  504  502 -0.57278761790E+02  0.10383818436E+03  0.74377950931E+02  0.13998322995E+03  0.00000000000E+00 0. -1.
         21    1    1    2  505  504 -0.32208400612E+01  0.41252394603E+02 -0.10001712208E+02  0.42569567983E+02  0.00000000000E+00 0. -1.
          1    1    1    2  501    0  0.81697293522E+02 -0.12230211085E+02 -0.11884392309E+04  0.11913067746E+04  0.00000000000E+00 0.  1.
<scales pt_clust_3="139.09974" pt_clust_4="39.49159" pt_clust_5="39.49159" pt_clust_6="82.60766"></scales>
<clustering>
<clus scale="   39.492">  4  5 -1 -1</clus>
<clus scale="   82.608">  2  6  1 -1</clus>
<clus scale="  139.100">  1  3  2 -1</clus>
<clus scale="  139.100">  1  3  2 -1</clus>
</clustering>
</event>
<event>
 6    0  0.3584505E+002  0.1174300E+03  0.7546771E-02  0.1247398E+00
         21   -1    0    0  501  502  0.00000000000E+00  0.00000000000E+00  0.33290665436E+03  0.33290665436E+03  0.00000000000E+00 0.  1.
          1   -1    0    0  505    0 -0.00000000000E+00 -0.00000000000E+00 -0.10314076843E+04  0.10314076843E+04  0.00000000000E+00 0. -1.
         21    1    1    2  503  504  0.16819968960E+03  0.72414134590E+02 -0.80385384619E+02  0.19999188116E+03  0.00000000000E+00 0.  1.
         21    1    1    2  504  502 -0.52378765468E+02 -0.95214233892E+02  0.25364308482E+03  0.27594220388E+03  0.00000000000E+00 0.  1.
         21    1    1    2  505  503 -0.42487872590E+02 -0.13285938160E+02 -0.73369370535E+02  0.85818412958E+02  0.00000000000E+00 0.  1.
          1    1    1    2  501    0 -0.73333051542E+02  0.36086037462E+02 -0.79838935957E+03  0.80256184062E+03  0.00000000000E+00 0. -1.
<scales pt_clust_3="117.43003" pt_clust_4="109.04739" pt_clust_5="44.51669" pt_clust_6="14000.00000"></scales>
<clustering>
<clus scale="   44.517">  2  5  1 -1</clus>
<clus scale="  109.047">  1  4  2 -1</clus>
<clus scale="  117.430">  1  3  2 -1</clus>
<clus scale="  109.047">  1  3  2 -1</clus>
</clustering>
</event>
<event>
 6    0  0.3584505E+002  0.8336186E+02  0.7546771E-02  0.1319773E+00
          1   -1    0    0  505    0 -0.00000000000E+00  0.00000000000E+00  0.20439890309E+04  0.20439890309E+04  0.00000000000E+00 0.  1.
         21   -1    0    0  503  502  0.00000000000E+00 -0.00000000000E+00 -0.13001061700E+03  0.13001061700E+03  0.00000000000E+00 0.  1.
         21    1    1    2  503  504  0.33887362685E+02  0.20996130456E+00 -0.94120807218E+02  0.10003561258E+03  0.00000000000E+00 0.  1.
         21    1    1    2  504  501 -0.11456031165E+03 -0.63528131527E+01  0.80187960322E+02  0.13998047086E+03  0.00000000000E+00 0. -1.
         21    1    1    2  505  502  0.17851160504E+02 -0.55194067829E+02  0.49551484208E+03  0.49889879512E+03  0.00000000000E+00 0.  1.
          1    1    1    2  501    0  0.62821788462E+02  0.61336919677E+02  0.14323964188E+04  0.14350847694E+04  0.00000000000E+00 0.  1.
<scales pt_clust_3="33.88801" pt_clust_4="83.36186" pt_clust_5="58.55808" pt_clust_6="14000.00000"></scales>
<clustering>
<clus scale="   33.888">  2  3  1 -1</clus>
<clus scale="   58.558">  1  5  2 -1</clus>
<clus scale="   83.362">  2  4  1 -1</clus>
<clus scale="   33.888">  2  3  1 -1</clus>
</clustering>
</event>
<event>
 6    0  0.3857176E+002  0.8757427E+02  0.7546771E-02  0.1308835E+00
          2   -1    0    0  504    0 -0.00000000000E+00  0.00000000000E+00  0.17097142311E+04  0.17097142311E+04  0.00000000000E+00 0. -1.
         21   -1    0    0  503  502  0.00000000000E+00 -0.00000000000E+00 -0.58476684956E+03  0.58476684956E+03  0.00000000000E+00 0. -1.
         21    1    1    2  503  505 -0.10106041809E+02  0.86616732171E+02 -0.55412152502E+03  0.56094140056E+03  0.00000000000E+00 0. -1.
         21    1    1    2  504  502 -0.35632847147E+02 -0.13762490741E+03  0.40367775815E+03  0.42797902678E+03  0.00000000000E+00 0.  1.
         21    1    1    2  505  501  0.93640353962E+01  0.41569126644E+02  0.15856380594E+02  0.45465396230E+02  0.00000000000E+00 0.  1.
          2    1    1    2  501    0  0.36374853560E+02  0.94390485912E+01  0.12595347678E+04  0.12600952570E+04  0.00000000000E+00 0. -1.
<scales pt_clust_3="14000.00000" pt_clust_4="87.57427" pt_clust_5="43.84226" pt_clust_6="37.57959"></scales>
<clustering>
<clus scale="   37.580">  1  6  2 -1</clus>
<clus scale="   43.842">  1  5  2 -1</clus>
<clus scale="   87.574">  1  4  2 -1</clus>
<clus scale="   87.574">  2  3  1 -1</clus>
</clustering>
</event>
<event>
 6    0  0.3584505E+002  0.2016088E+03  0.7546771E-02  0.1148389E+00
         21   -1    0    0  503  502  0.00000000000E+00  0.00000000000E+00  0.15695149886E+03  0.15695149886E+03  0.00000000000E+00 0. -1.
          2   -1    0    0  504    0 -0.00000000000E+00 -0.00000000000E+00 -0.36147228451E+04  0.36147228451E+04  0.00000000000E+00 0. -1.
         21    1    1    2  503  505 -0.73326777600E+01  0.83679536147E+02  0.10969357967E+02  0.84713397683E+02  0.00000000000E+00 0. -1.
         21    1    1    2  504  502  0.16485450418E+03 -0.68269733676E+02 -0.37105332463E+03  0.41172604218E+03  0.00000000000E+00 0.  1.
         21    1    1    2  505  501 -0.95364910712E+02  0.16562049966E+03 -0.20623389086E+02  0.19222367253E+03  0.00000000000E+00 0. -1.
          2    1    1    2  501    0 -0.62156915704E+02 -0.18103030213E+03 -0.30770639905E+04  0.30830112316E+04  0.00000000000E+00 0. -1.
<scales pt_clust_3="41.42176" pt_clust_4="178.43140" pt_clust_5="41.42176" pt_clust_6="191.68328"></scales>
<clustering>
<clus scale="   41.422">  3  5 -1 -1</clus>
<clus scale="  178.431">  1  4  2 -1</clus>
<clus scale="  191.683">  2  6  1 -1</clus>
<clus scale="  178.431">  1  3  2 -1</clus>
</clustering>
</event>
<event>
 6    0  0.3584505E+002  0.8887058E+02  0.7546771E-02  0.1305610E+00
         21   -1    0    0  505  502  0.00000000000E+00  0.00000000000E+00  0.15028008765E+04  0.15028008765E+04  0.00000000000E+00 0. -1.
          2   -1    0    0  504    0 -0.00000000000E+00 -0.00000000000E+00 -0.58587599486E+03  0.58587599486E+03  0.00000000000E+00 0.  1.
         21    1    1    2  503  502  0.44244316066E+02  0.42859802667E+02  0.25870666466E+03  0.26593920457E+03  0.00000000000E+00 0. -1.
         21    1    1    2  504  503  0.83312115792E+02 -0.83080988967E+01  0.41424092366E+02  0.93412464764E+02  0.00000000000E+00 0. -1.
         21    1    1    2  505  501 -0.96901585003E+02 -0.50752799511E+02  0.11699655776E+04  0.11750681753E+04  0.00000000000E+00 0. -1.
          2    1    1    2  501    0 -0.30654846855E+02  0.16201095740E+02 -0.55317145304E+03  0.55425702666E+03  0.00000000000E+00 0.  1.
<scales pt_clust_3="14000.00000" pt_clust_4="58.73121" pt_clust_5="88.87058" pt_clust_6="34.67269"></scales>
<clustering>
<clus scale="   34.673">  2  6  1 -1</clus>
<clus scale="   58.731">  2  4  1 -1</clus>
<clus scale="   88.871">  1  5  2 -1</clus>
<clus scale="   88.871">  1  3  2 -1</clus>
</clustering>
</event>
<event>
 6    0  0.3584505E+002  0.1111909E+03  0.7546771E-02  0.1258380E+00
         21   -1    0    0  503  502  0.00000000000E+00  0.00000000000E+00  0.42487965893E+02  0.42487965893E+02  0.00000000000E+00 0. -1.
          1   -1    0    0  505    0 -0.00000000000E+00 -0.00000000000E+00 -0.86142120039E+03  0.86142120039E+03  0.00000000000E+00 0.  1.
         21    1    1    2  503  501  0.11359772342E+02 -0.51002904685E+02 -0.22520368306E+03  0.23118615784E+03  0.00000000000E+00 0. -1.
         21    1    1    2  504  502  0.40400312641E+02  0.12778547083E+02 -0.37838010723E+02  0.56808375989E+02  0.00000000000E+00 0.  1.
         21    1    1    2  505  504 -0.79509532003E+02  0.80846917154E+02 -0.83566799045E+02  0.14085950304E+03  0.00000000000E+00 0. -1.
          1    1    1    2  501    0  0.27749447020E+02 -0.42622559552E+02 -0.47232474167E+03  0.47505512942E+03  0.00000000000E+00 0.  1.
<scales pt_clust_3="43.69747" pt_clust_4="42.37306" pt_clust_5="102.11671" pt_clust_6="43.69747"></scales>
<clustering>
<clus scale="   42.373">  1  4  2 -1</clus>
<clus scale="   43.697">  3  6 -1 -1</clus>
<clus scale="  102.117">  1  5  2 -1</clus>
<clus scale="   42.373">  1  3  2 -1</clus>
</clustering>
</event>
<event>
 6    0  0.3584505E+002  0.9445137E+02  0.7546771E-02  0.1292417E+00
          2   -1    0    0  503    0 -0.00000000000E+00  0.00000000000E+00  0.21706728481E+04  0.21706728481E+04  0.00000000000E+00 0.  1.
         21   -1    0    0  504  502  0.00000000000E+00 -0.00000000000E+00 -0.67991701130E+02  0.67991701130E+02  0.00000000000E+00 0. -1.
         21    1    1    2  503  505 -0.31235630555E+02 -0.31715718356E+02  0.30728236044E+03  0.31048993614E+03  0.00000000000E+00 0.  1.
         21    1    1    2  504  501  0.79309852135E+02 -0.24899627144E+02  0.55481257129E+02  0.99941052477E+02  0.00000000000E+00 0.  1.
         21    1    1    2  505  502 -0.69819902427E+02  0.89543883908E+02  0.29440777122E+02  0.11730168489E+03  0.00000000000E+00 0. -1.
          2    1    1    2  501    0  0.21745680846E+02 -0.32928538408E+02  0.17104767523E+04  0.17109318757E+04  0.00000000000E+00 0.  1.
<scales pt_clust_3="56.33957" pt_clust_4="94.45137" pt_clust_5="14000.00000" pt_clust_6="39.46091"></scales>
<clustering>
<clus scale="   39.461">  1  6  2 -1</clus>
<clus scale="   56.340">  1  3  2 -1</clus>
<clus scale="   94.451">  1  4  2 -1</clus>
<clus scale="   94.451">  2  3  1 -1</clus>
</clustering>
</event>
<event>
 6    0  0.3584505E+002  0.2211184E+03  0.7546771E-02  0.1133052E+00
         21   -1    0    0  505  502  0.00000000000E+00  0.00000000000E+00  0.13499222581E+03  0.13499222581E+03  0.00000000000E+00 0.  1.
          1   -1    0    0  503    0 -0.00000000000E+00 -0.00000000000E+00 -0.62107550218E+03  0.62107550218E+03  0.00000000000E+00 0.  1.
         21    1    1    2  503  504 -0.94532141055E+02 -0.12032389655E+03 -0.70380116616E+02  0.16842662078E+03  0.00000000000E+00 0.  1.
         21    1    1    2  504  502 -0.15304934072E+02 -0.62144674384E+02  0.15862982704E+02  0.65938120852E+02  0.00000000000E+00 0.  1.
         21    1    1    2  505  501  0.59455834852E+02  0.18834670454E+03 -0.18719763382E+03  0.27212576416E+03  0.00000000000E+00 0.  1.
          1    1    1    2  501    0  0.50381240276E+02 -0.58781336118E+01 -0.24436850864E+03  0.24957722220E+03  0.00000000000E+00 0.  1.
<scales pt_clust_3="53.77505" pt_clust_4="53.77505" pt_clust_5="205.66380" pt_clust_6="50.72299"></scales>
<clustering>
<clus scale="   50.723">  2  6  1 -1</clus>
<clus scale="   53.775">  3  4 -1 -1</clus>
<clus scale="  205.664">  2  5  1 -1</clus>
<clus scale="  221.118">  1  3  2 -1</clus>
</clustering>
</event>
<event>
 6    0  0.3584505E+002  0.1097659E+03  0.7546771E-02  0.1261004E+00
         21   -1    0    0  505  502  0.00000000000E+00  0.00000000000E+00  0.39829826415E+03  0.39829826415E+03  0.00000000000E+00 0.  1.
          1   -1    0    0  503    0 -0.00000000000E+00 -0.00000000000E+00 -0.50202806942E+03  0.50202806942E+03  0.00000000000E+00 0. -1.
         21    1    1    2  503  502  0.14590355154E+03 -0.12040410409E+02  0.16431401962E+03  0.22007252186E+03  0.00000000000E+00 0.  1.
         21    1    1    2  504  501 -0.34895653536E+02  0.81731024840E+00 -0.12343790309E+03  0.12827817644E+03  0.00000000000E+00 0.  1.
         21    1    1    2  505  504 -0.90085104023E+02  0.33730505996E+02  0.19158777978E+03  0.21438038707E+03  0.00000000000E+00 0.  1.
          1    1    1    2  501    0 -0.20922793979E+02 -0.22507405835E+02 -0.33619370157E+03  0.33759524819E+03  0.00000000000E+00 0. -1.
<scales pt_clust_3="109.76587" pt_clust_4="53.40242" pt_clust_5="14000.00000" pt_clust_6="30.73022"></scales>
<clustering>
<clus scale="   30.730">  2  6  1 -1</clus>
<clus scale="   53.402">  2  4  1 -1</clus>
<clus scale="  109.766">  2  3  1 -1</clus>
<clus scale="  109.766">  1  3  2 -1</clus>
</clustering>
</event>
<event>
 6    0  0.3584505E+002  0.8658907E+02  0.7546771E-02  0.1311328E+00
          2   -1    0    0  502    0 -0.00000000000E+00  0.00000000000E+00  0.11766895322E+04  0.11766895322E+04  0.00000000000E+00 0. -1.
         21   -1    0    0  504  502  0.00000000000E+00 -0.00000000000E+00 -0.65889404922E+03  0.65889404922E+03  0.00000000000E+00 0. -1.
         21    1    1    2  503  501 -0.39468398567E+02  0.77795073161E+02  0.13780862012E+03  0.16309826385E+03  0.00000000000E+00 0.  1.
         21    1    1    2  504  505  0.45920186196E+02 -0.11812149735E+02 -0.54211133363E+03  0.54418093354E+03  0.00000000000E+00 0. -1.
         21    1    1    2  505  503  0.51684157085E+02 -0.51110285756E+01 -0.94711366251E+02  0.10801674687E+03  0.00000000000E+00 0. -1.
          2    1    1    2  501    0 -0.58135944714E+02 -0.60871894850E+02  0.10168095627E+04  0.10202876371E+04  0.00000000000E+00 0. -1.
<scales pt_clust_3="86.58907" pt_clust_4="47.41509" pt_clust_5="14000.00000" pt_clust_6="83.82762"></scales>
<clustering>
<clus scale="   47.415">  2  4  1 -1</clus>
<clus scale="   83.828">  1  6  2 -1</clus>
<clus scale="   86.589">  1  3  2 -1</clus>
<clus scale="   47.415">  2  3  1 -1</clus>
</clustering>
</event>
<event>
 6    0  0.3584505E+002  0.6740814E+02  0.7546771E-02  0.1369135E+00
         21   -1    0    0  504  502  0.00000000000E+00  0.00000000000E+00  0.11505805156E+03  0.11505805156E+03  0.00000000000E+00 0. -1.
          1   -1    0    0  503    0 -0.00000000000E+00 -0.00000000000E+00 -0.19830372853E+03  0.19830372853E+03  0.00000000000E+00 0. -1.
         21    1    1    2  503  505  0.44104246325E+02  0.71501847927E+02  0.10022511169E+00  0.84010171086E+02  0.00000000000E+00 0. -1.
         21    1    1    2  504  501 -0.81196394670E+02 -0.11352097940E+02 -0.47987455796E+02  0.94997476539E+02  0.00000000000E+00 0. -1.
         21    1    1    2  505  502 -0.46107839879E+01 -0.40808414209E+02  0.32512903559E+02  0.52380100201E+02  0.00000000000E+00 0. -1.
          1    1    1    2  501    0  0.41702932333E+02 -0.19341335777E+02 -0.67871349851E+02  0.81974032263E+02  0.00000000000E+00 0. -1.
<scales pt_clust_3="67.40814" pt_clust_4="14000.00000" pt_clust_5="41.06807" pt_clust_6="47.38226"></scales>
<clustering>
<clus scale="   41.068">  1  5  2 -1</clus>
<clus scale="   47.382">  2  6  1 -1</clus>
<clus scale="   67.408">  1  3  2 -1</clus>
<clus scale="   41.068">  1  3  2 -1</clus>
</clustering>
</event>
<event>
 6    0  0.3584505E+002  0.1495580E+03  0.7546771E-02  0.1201017E+00
          1   -1    0    0  505    0 -0.00000000000E+00  0.00000000000E+00  0.12929097103E+04  0.12929097103E+04  0.00000000000E+00 0.  1.
         21   -1    0    0  503  502  0.00000000000E+00 -0.00000000000E+00 -0.50996660198E+02  0.50996660198E+02  0.00000000000E+00 0.  1.
         21    1    1    2  503  504  0.41834524725E+02  0.15750700293E+03  0.11964966935E+03  0.20217474325E+03  0.00000000000E+00 0.  1.
         21    1    1    2  504  501  0.12836467551E+01 -0.64164622242E+02  0.29243761469E+03  0.29939690209E+03  0.00000000000E+00 0.  1.
         21    1    1    2  505  502 -0.31826535494E+02 -0.23334902594E+02  0.80419602706E+02  0.89581016628E+02  0.00000000000E+00 0. -1.
          1    1    1    2  501    0 -0.11291635986E+02 -0.70007478097E+02  0.74940616335E+03  0.75275370852E+03  0.00000000000E+00 0.  1.
<scales pt_clust_3="137.43168" pt_clust_4="56.47473" pt_clust_5="39.46449" pt_clust_6="56.47473"></scales>
<clustering>
<clus scale="   39.464">  2  5  1 -1</clus>
<clus scale="   56.475">  4  6 -1 -1</clus>
<clus scale="  137.432">  2  3  1 -1</clus>
<clus scale="   39.464">  2  3  1 -1</clus>
</clustering>
</event>
<event>
 6    0  0.3584505E+002  0.7948149E+02  0.7546771E-02  0.1330529E+00
          2   -1    0    0  503    0 -0.00000000000E+00  0.00000000000E+00  0.14694279813E+04  0.14694279813E+04  0.00000000000E+00 0. -1.
         21   -1    0    0  504  502  0.00000000000E+00 -0.00000000000E+00 -0.21794170296E+03  0.21794170296E+03  0.00000000000E+00 0. -1.
         21    1    1    2  503  505  0.60256726233E+02 -0.64252105387E+02  0.13190785723E+03  0.15861553802E+03  0.00000000000E+00 0. -1.
         21    1    1    2  504  501  0.32145027571E+02 -0.46299821891E+01 -0.17369187271E+03  0.17670202652E+03  0.00000000000E+00 0. -1.
         21    1    1    2  505  502 -0.11210210641E+02  0.70029993151E+02  0.16647026943E+02  0.72849106168E+02  0.00000000000E+00 0. -1.
          2    1    1    2  501    0 -0.81191543163E+02 -0.11479055756E+01  0.12766232669E+04  0.12792030136E+04  0.00000000000E+00 0. -1.
<scales pt_clust_3="79.48149" pt_clust_4="32.47675" pt_clust_5="67.71707" pt_clust_6="14000.00000"></scales>
<clustering>
<clus scale="   32.477">  2  4  1 -1</clus>
<clus scale="   67.717">  2  5  1 -1</clus>
<clus scale="   79.481">  2  3  1 -1</clus>
<clus scale="   32.477">  2  3  1 -1</clus>
</clustering>
</event>
<event>
 6    0  0.3584505E+002  0.8813119E+02  0.7546771E-02  0.1307441E+00
          1   -1    0    0  502    0 -0.00000000000E+00  0.00000000000E+00  0.60806828261E+03  0.60806828261E+03  0.00000000000E+00 0. -1.
         21   -1    0    0  503  502  0.00000000000E+00 -0.00000000000E+00 -0.33851929755E+03  0.33851929755E+03  0.00000000000E+00 0. -1.
         21    1    1    2  503  505 -0.42525175772E+02  0.44809208307E+02 -0.21528654759E+03  0.22397444786E+03  0.00000000000E+00 0. -1.
         21    1    1    2  504  501 -0.17843241228E+02 -0.10256845120E+03  0.29382095952E+03  0.31172010633E+03  0.00000000000E+00 0.  1.
         21    1    1    2  505  504  0.81863390885E+02  0.34858561968E+02 -0.90920726884E+02  0.12721364977E+03  0.00000000000E+00 0. -1.
          1    1    1    2  501    0 -0.21494973885E+02  0.22900680924E+02  0.28193530001E+03  0.28367937620E+03  0.00000000000E+00 0. -1.
<scales pt_clust_3="62.19531" pt_clust_4="88.13119" pt_clust_5="14000.00000" pt_clust_6="31.40820"></scales>
<clustering>
<clus scale="   31.408">  1  6  2 -1</clus>
<clus scale="   62.195">  2  3  1 -1</clus>
<clus scale="   88.131">  1  4  2 -1</clus>
<clus scale="   62.195">  2  3  1 -1</clus>
</clustering>
</event>
<event>
 6    0  0.3584505E+002  0.1260806E+03  0.7546771E-02  0.1233390E+00
         -1   -1    0    0    0  501 -0.00000000000E+00  0.00000000000E+00  0.21895417938E+03  0.21895417938E+03  0.00000000000E+00 0. -1.
         21   -1    0    0  503  502  0.00000000000E+00 -0.00000000000E+00 -0.11640869202E+04  0.11640869202E+04  0.00000000000E+00 0. -1.
         21    1    1    2  503  501  0.11061775291E+03 -0.16378070880E+02 -0.55115548488E+03  0.56238500778E+03  0.00000000000E+00 0. -1.
         21    1    1    2  504  505 -0.14943904707E+03 -0.38105988167E+02 -0.20415920614E+03  0.25586144019E+03  0.00000000000E+00 0. -1.
         21    1    1    2  505  502  0.10307991178E+02  0.44144265851E+02 -0.37470463118E+03  0.37743679142E+03  0.00000000000E+00 0. -1.
         -1    1    1    2    0  504  0.28513302985E+02  0.10339793196E+02  0.18488658142E+03  0.18735786015E+03  0.00000000000E+00 0. -1.
<scales pt_clust_3="126.08064" pt_clust_4="14000.00000" pt_clust_5="46.03266" pt_clust_6="30.33018"></scales>
<clustering>
<clus scale="   30.330">  1  6  2 -1</clus>
<clus scale="   46.033">  2  5  1 -1</clus>
<clus scale="  126.081">  2  3  1 -1</clus>
<clus scale="   46.033">  2  3  1 -1</clus>
</clustering>
</event>
<event>
 6    0  0.3584505E+002  0.7980463E+02  0.7546771E-02  0.1329607E+00
         21   -1    0    0  503  502  0.00000000000E+00  0.00000000000E+00  0.46758542263E+03  0.46758542263E+03  0.00000000000E+00 0.  1.
          2   -1    0    0  505    0 -0.00000000000E+00 -0.00000000000E+00 -0.98654236215E+03  0.98654236215E+03  0.00000000000E+00 0. -1.
         21    1    1    2  503  504  0.30148655715E+02  0.27182795469E+02  0.39859673263E+03  0.40065845939E+03  0.00000000000E+00 0.  1.
         21    1    1    2  504  501 -0.97284093264E+01  0.52936312538E+02  0.22107139816E+02  0.58186087374E+02  0.00000000000E+00 0.  1.
         21    1    1    2  505  502 -0.21298161602E+02 -0.12784612454E+03 -0.12779718019E+03  0.18201747859E+03  0.00000000000E+00 0.  1.
          2    1    1    2  501    0  0.87791521376E+00  0.47727016538E+02 -0.81186363178E+03  0.81326575943E+03  0.00000000000E+00 0. -1.
<scales pt_clust_3="40.59367" pt_clust_4="14000.00000" pt_clust_5="79.80463" pt_clust_6="48.02216"></scales>
<clustering>
<clus scale="   40.594">  1  3  2 -1</clus>
<clus scale="   48.022">  2  6  1 -1</clus>
<clus scale="   79.805">  2  5  1 -1</clus>
<clus scale="   40.594">  1  3  2 -1</clus>
</clustering>
</event>
<event>
 6    0  0.3584505E+002  0.8487217E+02  0.7546771E-02  0.1315767E+00
         21   -1    0    0  505  502  0.00000000000E+00  0.00000000000E+00  0.20328193521E+03  0.20328193521E+03  0.00000000000E+00 0.  1.
          4   -1    0    0  503    0 -0.00000000000E+00 -0.00000000000E+00 -0.10323466789E+04  0.10323466789E+04  0.00000000000E+00 0. -1.
         21    1    1    2  503  502  0.61742039361E+02  0.97865211607E+02 -0.54451016679E+03  0.55666956159E+03  0.00000000000E+00 0. -1.
         21    1    1    2  504  501 -0.76501805461E+02 -0.80959136981E+02  0.14143640270E+03  0.18003100874E+03  0.00000000000E+00 0.  1.
         21    1    1    2  505  504  0.31621108631E+02  0.11561616649E+02  0.27965163288E+02  0.43767748952E+02  0.00000000000E+00 0.  1.
          4    1    1    2  501    0 -0.16861342531E+02 -0.28467691275E+02 -0.45395614286E+03  0.45516029480E+03  0.00000000000E+00 0. -1.
<scales pt_clust_3="14000.00000" pt_clust_4="84.87217" pt_clust_5="33.31945" pt_clust_6="33.08647"></scales>
<clustering>
<clus scale="   33.086">  2  6  1 -1</clus>
<clus scale="   33.319">  1  5  2 -1</clus>
<clus scale="   84.872">  1  4  2 -1</clus>
<clus scale="   33.319">  1  3  2 -1</clus>
</clustering>
</event>
<event>
 6    0  0.3584505E+002  0.2104052E+03  0.7546771E-02  0.1141245E+00
         21   -1    0    0  504  502  0.00000000000E+00  0.00000000000E+00  0.16343232792E+03  0.16343232792E+03  0.00000000000E+00 0.  1.
          2   -1    0    0  503    0 -0.00000000000E+00 -0.00000000000E+00 -0.19795838709E+04  0.19795838709E+04  0.00000000000E+00 0.  1.
         21    1    1    2  503  505 -0.95069788143E+02  0.18191307355E+03 -0.60117254937E+03  0.63524724719E+03  0.00000000000E+00 0.  1.
         21    1    1    2  504  501  0.45971123280E+02 -0.18281048499E+03 -0.15456831149E+03  0.24377116424E+03  0.00000000000E+00 0.  1.
         21    1    1    2  505  502  0.44584554521E+02 -0.32215410472E+02  0.94103306459E+02  0.10900021771E+03  0.00000000000E+00 0.  1.
          2    1    1    2  501    0  0.45141103417E+01  0.33112821910E+02 -0.11545139885E+04  0.11549975696E+04  0.00000000000E+00 0.  1.
<scales pt_clust_3="14000.00000" pt_clust_4="210.40523" pt_clust_5="54.86415" pt_clust_6="33.41910"></scales>
<clustering>
<clus scale="   33.419">  2  6  1 -1</clus>
<clus scale="   54.864">  1  5  2 -1</clus>
<clus scale="  210.405">  1  4  2 -1</clus>
<clus scale="   54.864">  1  3  2 -1</clus>
</clustering>
</event>
<event>
 6    0  0.4087949E+002  0.1184136E+03  0.7546771E-02  0.1245737E+00
         21   -1    0    0  503  502  0.00000000000E+00  0.00000000000E+00  0.43866560216E+03  0.43866560216E+03  0.00000000000E+00 0. -1.
         -2   -1    0    0    0  501 -0.00000000000E+00 -0.00000000000E+00 -0.10883271563E+04  0.10883271563E+04  0.00000000000E+00 0.  1.
         21    1    1    2  503  501 -0.98685286713E+02  0.42480086111E+01 -0.29261567107E+03  0.30883776056E+03  0.00000000000E+00 0.  1.
         21    1    1    2  504  502  0.48833950452E+02 -0.20982341158E+02  0.29484824848E+03  0.29960057241E+03  0.00000000000E+00 0. -1.
         21    1    1    2  505  504  0.65656010236E+02 -0.29889814110E+02  0.12273328417E+03  0.14236422202E+03  0.00000000000E+00 0. -1.
         -2    1    1    2    0  505 -0.15804673975E+02  0.46624146657E+02 -0.77462741577E+03  0.77619020352E+03  0.00000000000E+00 0.  1.
<scales pt_clust_3="14000.00000" pt_clust_4="52.90155" pt_clust_5="118.41363" pt_clust_6="49.23006"></scales>
<clustering>
<clus scale="   49.230">  2  6  1 -1</clus>
<clus scale="   52.902">  1  4  2 -1</clus>
<clus scale="  118.414">  1  5  2 -1</clus>
<clus scale="   52.902">  1  3  2 -1</clus>
</clustering>
</event>
<event>
 6    0  0.3584505E+002  0.1233073E+03  0.7546771E-02  0.1237739E+00
          2   -1    0    0  505    0 -0.00000000000E+00  0.00000000000E+00  0.36865348481E+03  0.36865348481E+03  0.00000000000E+00 0.  1.
         21   -1    0    0  503  502  0.00000000000E+00 -0.00000000000E+00 -0.80109195486E+03  0.80109195486E+03  0.00000000000E+00 0.  1.
         21    1    1    2  503  504  0.16645377656E+02  0.37885586032E+02 -0.64808830104E+03  0.64940806291E+03  0.00000000000E+00 0.  1.
         21    1    1    2  504  501  0.77595136387E+02 -0.13894449176E+03  0.10552933387E+03  0.19095291903E+03  0.00000000000E+00 0. -1.
         21    1    1    2  505  502 -0.75660527520E+02  0.70077478416E+02 -0.83331831721E+02  0.13258794283E+03  0.00000000000E+00 0. -1.
          2    1    1    2  501    0 -0.18579986522E+02  0.30981427307E+02  0.19345232885E+03  0.19679651489E+03  0.00000000000E+00 0.  1.
<scales pt_clust_3="41.46058" pt_clust_4="123.30733" pt_clust_5="14000.00000" pt_clust_6="36.12568"></scales>
<clustering>
<clus scale="   36.126">  1  6  2 -1</clus>
<clus scale="   41.461">  2  3  1 -1</clus>
<clus scale="  123.307">  1  4  2 -1</clus>
<clus scale="   41.461">  2  3  1 -1</clus>
</clustering>
</event>
<event>
 6    0  0.3584505E+002  0.1000372E+03  0.7546771E-02  0.1280218E+00
         -1   -1    0    0    0  501 -0.00000000000E+00  0.00000000000E+00  0.74026764078E+03  0.74026764078E+03  0.00000000000E+00 0.  1.
         21   -1    0    0  501  502  0.00000000000E+00 -0.00000000000E+00 -0.21131517249E+03  0.21131517249E+03  0.00000000000E+00 0.  1.
         21    1    1    2  503  502 -0.21961123318E+02 -0.20714007804E+02 -0.88718496334E+02  0.93714100585E+02  0.00000000000E+00 0.  1.
         21    1    1    2  504  505  0.93492667335E+02  0.27813900190E+02  0.74423679246E+02  0.12269219992E+03  0.00000000000E+00 0.  1.
         21    1    1    2  505  503 -0.59492130672E+02 -0.56849122193E+02 -0.77074951572E+02  0.11274610621E+03  0.00000000000E+00 0.  1.
         -1    1    1    2    0  504 -0.12039413345E+02  0.49749229807E+02  0.62032223695E+03  0.62243040655E+03  0.00000000000E+00 0.  1.
<scales pt_clust_3="30.18876" pt_clust_4="100.03717" pt_clust_5="14000.00000" pt_clust_6="51.05444"></scales>
<clustering>
<clus scale="   30.189">  2  3  1 -1</clus>
<clus scale="   51.054">  1  6  2 -1</clus>
<clus scale="  100.037">  1  4  2 -1</clus>
<clus scale="   30.189">  2  3  1 -1</clus>
</clustering>
</event>
<event>
 6    0  0.3584505E+002  0.8330407E+02  0.7546771E-02  0.1319928E+00
         21   -1    0    0  505  502  0.00000000000E+00  0.00000000000E+00  0.26133997688E+03  0.26133997688E+03  0.00000000000E+00 0.  1.
          2   -1    0    0  503    0 -0.00000000000E+00 -0.00000000000E+00 -0.14739013659E+04  0.14739013659E+04  0.00000000000E+00 0.  1.
         21    1    1    2  503  504 -0.90728281898E+01 -0.36857222057E+02  0.12051567497E+02  0.39824757479E+02  0.00000000000E+00 0.  1.
         21    1    1    2  504  502  0.77994615475E+02  0.89993047283E+01  0.14631281486E+03  0.16604694312E+03  0.00000000000E+00 0.  1.
         21    1    1    2  505  501 -0.10056925693E+03  0.14649593628E+02  0.46334493845E+02  0.11169454487E+03  0.00000000000E+00 0.  1.
          2    1    1    2  501    0  0.31647469646E+02  0.13208323701E+02 -0.14172602653E+04  0.14176750973E+04  0.00000000000E+00 0.  1.
<scales pt_clust_3="33.63163" pt_clust_4="83.30407" pt_clust_5="14000.00000" pt_clust_6="34.29318"></scales>
<clustering>
<clus scale="   34.293">  2  6  1 -1</clus>
<clus scale="   33.632">  2  3  1 -1</clus>
<clus scale="   83.304">  1  4  2 -1</clus>
<clus scale="   83.304">  1  3  2 -1</clus>
</clustering>
</event>
<event>
 6    0  0.3584505E+002  0.8765096E+02  0.7546771E-02  0.1308642E+00
          2   -1    0    0  503    0 -0.00000000000E+00  0.00000000000E+00  0.41503769927E+03  0.41503769927E+03  0.00000000000E+00 0. -1.
         21   -1    0    0  505  502  0.00000000000E+00 -0.00000000000E+00 -0.21107456331E+03  0.21107456331E+03  0.00000000000E+00 0.  1.
         21    1    1    2  503  504 -0.50035934295E+02 -0.16419182623E+02  0.79690621217E+02  0.95518476687E+02  0.00000000000E+00 0. -1.
         21    1    1    2  504  502  0.66551062593E+02  0.94609254611E+02 -0.10719437075E+03  0.15770411571E+03  0.00000000000E+00 0.  1.
         21    1    1    2  505  501  0.13914882507E+02 -0.39633426320E+02 -0.62248631780E+02  0.75095436583E+02  0.00000000000E+00 0.  1.
          2    1    1    2  501    0 -0.30430010805E+02 -0.38556645668E+02  0.29371551727E+03  0.29779423360E+03  0.00000000000E+00 0. -1.
<scales pt_clust_3="87.65096" pt_clust_4="14000.00000" pt_clust_5="42.00515" pt_clust_6="49.44293"></scales>
<clustering>
<clus scale="   42.005">  2  5  1 -1</clus>
<clus scale="   49.443">  1  6  2 -1</clus>
<clus scale="   87.651">  1  3  2 -1</clus>
<clus scale="   42.005">  2  3  1 -1</clus>
</clustering>
</event>
<event>
 6    0  0.3584505E+002  0.1683811E+03  0.7546771E-02  0.1179547E+00
         21   -1    0    0  504  502  0.00000000000E+00  0.00000000000E+00  0.12751576800E+03  0.12751576800E+03  0.00000000000E+00 0.  1.
          2   -1    0    0  503    0 -0.00000000000E+00 -0.00000000000E+00 -0.21863053386E+04  0.21863053386E+04  0.00000000000E+00 0. -1.
         21    1    1    2  503  505 -0.12308820793E+03 -0.10596890776E+03 -0.15279851246E+03  0.22299664068E+03  0.00000000000E+00 0.  1.
         21    1    1    2  504  501  0.27715706198E+02  0.79485461179E+02 -0.99783644161E+02  0.13054836097E+03  0.00000000000E+00 0.  1.
         21    1    1    2  505  502 -0.63869746150E+02 -0.33142652629E+02  0.55466282553E+02  0.90853114403E+02  0.00000000000E+00 0.  1.
          2    1    1    2  501    0  0.15924224789E+03  0.59626099214E+02 -0.18616736965E+04  0.18694229905E+04  0.00000000000E+00 0. -1.
<scales pt_clust_3="14000.00000" pt_clust_4="70.76616" pt_clust_5="71.95679" pt_clust_6="168.38112"></scales>
<clustering>
<clus scale="   71.957">  1  5  2 -1</clus>
<clus scale="   70.766">  1  4  2 -1</clus>
<clus scale="  168.381">  2  6  1 -1</clus>
<clus scale="   71.957">  1  3  2 -1</clus>
</clustering>
</event>
<event>
 6    0  0.3584505E+002  0.1588853E+03  0.7546771E-02  0.1189961E+00
          2   -1    0    0  505    0 -0.00000000000E+00  0.00000000000E+00  0.48479219406E+03  0.48479219406E+03  0.00000000000E+00 0. -1.
         21   -1    0    0  503  502  0.00000000000E+00 -0.00000000000E+00 -0.13861411751E+04  0.13861411751E+04  0.00000000000E+00 0. -1.
         21    1    1    2  503  504  0.22965347417E+02  0.53149015052E+02 -0.70475968334E+03  0.70713395919E+03  0.00000000000E+00 0. -1.
         21    1    1    2  504  501  0.12221580950E+03 -0.12542588019E+03 -0.64035937489E+03  0.66387384685E+03  0.00000000000E+00 0. -1.
         21    1    1    2  505  502 -0.12304194637E+03  0.14702329222E+02  0.12788138907E+03  0.17807057231E+03  0.00000000000E+00 0. -1.
          2    1    1    2  501    0 -0.22139210550E+02  0.57574535917E+02  0.31588868812E+03  0.32185499081E+03  0.00000000000E+00 0. -1.
<scales pt_clust_3="57.89840" pt_clust_4="158.88527" pt_clust_5="14000.00000" pt_clust_6="61.86613"></scales>
<clustering>
<clus scale="   57.898">  2  3  1 -1</clus>
<clus scale="   61.866">  1  6  2 -1</clus>
<clus scale="  158.885">  2  4  1 -1</clus>
<clus scale="   57.898">  2  3  1 -1</clus>
</clustering>
</event>
<event>
 6    0  0.3584505E+002  0.1793526E+03  0.7546771E-02  0.1168431E+00
          3   -1    0    0  504    0 -0.00000000000E+00  0.00000000000E+00  0.12722688993E+03  0.12722688993E+03  0.00000000000E+00 0.  1.
         21   -1    0    0  501  502  0.00000000000E+00 -0.00000000000E+00 -0.44020336213E+03  0.44020336213E+03  0.00000000000E+00 0.  1.
         21    1    1    2  503  505 -0.15035541878E+03  0.90976985284E+02 -0.12386313227E+03  0.21500148684E+03  0.00000000000E+00 0.  1.
         21    1    1    2  504  503 -0.25733493597E+02 -0.18715306263E+02 -0.93354143705E+01  0.33160599251E+02  0.00000000000E+00 0. -1.
         21    1    1    2  505  502  0.31973465510E+02  0.44044586653E+02 -0.10745811018E+03  0.12045527616E+03  0.00000000000E+00 0.  1.
          3    1    1    2  501    0  0.14411544687E+03 -0.11630626567E+03 -0.72319815372E+02  0.19881288981E+03  0.00000000000E+00 0.  1.
<scales pt_clust_3="179.35256" pt_clust_4="31.81942" pt_clust_5="52.72379" pt_clust_6="14000.00000"></scales>
<clustering>
<clus scale="   31.819">  1  4  2 -1</clus>
<clus scale="   52.724">  2  5  1 -1</clus>
<clus scale="  179.353">  2  3  1 -1</clus>
<clus scale="   52.724">  2  3  1 -1</clus>
</clustering>
</event>
<event>
 6    0  0.3584505E+002  0.7435813E+02  0.7546771E-02  0.1345870E+00
         -1   -1    0    0    0  501 -0.00000000000E+00  0.00000000000E+00  0.26129279912E+03  0.26129279912E+03  0.00000000000E+00 0. -1.
         21   -1    0    0  504  502  0.00000000000E+00 -0.00000000000E+00 -0.16167936147E+03  0.16167936147E+03  0.00000000000E+00 0. -1.
         21    1    1    2  503  505 -0.53249932566E+02 -0.75148957322E+01  0.24941349416E+02  0.59279843850E+02  0.00000000000E+00 0. -1.
         21    1    1    2  504  501  0.66437011046E+02  0.10092455375E+03 -0.32012395854E+02  0.12499774188E+03  0.00000000000E+00 0. -1.
         21    1    1    2  505  502  0.26829054814E+02 -0.36038005097E+02 -0.49930827233E+02  0.67168619918E+02  0.00000000000E+00 0. -1.
         -1    1    1    2    0  503 -0.40016133294E+02 -0.57371652918E+02  0.15661531131E+03  0.17152595495E+03  0.00000000000E+00 0. -1.
<scales pt_clust_3="50.62076" pt_clust_4="74.35813" pt_clust_5="44.92812" pt_clust_6="14000.00000"></scales>
<clustering>
<clus scale="   44.928">  2  5  1 -1</clus>
<clus scale="   50.621">  2  3  1 -1</clus>
<clus scale="   74.358">  2  4  1 -1</clus>
<clus scale="   44.928">  2  3  1 -1</clus>
</clustering>
</event>
<event>
 6    0  0.3584505E+002  0.1226893E+03  0.7546771E-02  0.1238725E+00
         21   -1    0    0  503  502  0.00000000000E+00  0.00000000000E+00  0.40260425126E+03  0.40260425126E+03  0.00000000000E+00 0.  1.
          1   -1    0    0  505    0 -0.00000000000E+00 -0.00000000000E+00 -0.11178162077E+04  0.11178162077E+04  0.00000000000E+00 0. -1.
         21    1    1    2  503  501  0.76707760476E+02 -0.41075617630E+02 -0.22053477748E+03  0.23707989151E+03  0.00000000000E+00 0. -1.
         21    1    1    2  504  502 -0.10760888872E+03  0.62145833547E+02  0.37238040188E+03  0.39256711689E+03  0.00000000000E+00 0.  1.
         21    1    1    2  505  504  0.11469753135E+02 -0.52947484018E+02 -0.52763177840E+02  0.75623701553E+02  0.00000000000E+00 0. -1.
          1    1    1    2  501    0  0.19431375106E+02  0.31877268101E+02 -0.81429440302E+03  0.81514974904E+03  0.00000000000E+00 0. -1.
<scales pt_clust_3="122.68925" pt_clust_4="14000.00000" pt_clust_5="48.75424" pt_clust_6="37.33281"></scales>
<clustering>
<clus scale="   37.333">  2  6  1 -1</clus>
<clus scale="   48.754">  2  5  1 -1</clus>
<clus scale="  122.689">  2  3  1 -1</clus>
<clus scale="  122.689">  1  3  2 -1</clus>
</clustering>
</event>
<event>
 6    0  0.3584505E+002  0.2356423E+03  0.7546771E-02  0.1122730E+00
         21   -1    0    0  505  502  0.00000000000E+00  0.00000000000E+00  0.12846935304E+04  0.12846935304E+04  0.00000000000E+00 0. -1.
          1   -1    0    0  504    0 -0.00000000000E+00 -0.00000000000E+00 -0.27285607684E+04  0.27285607684E+04  0.00000000000E+00 0.  1.
         21    1    1    2  503  501 -0.83936375837E+02  0.30952532180E+02 -0.15387959875E+03  0.17799523968E+03  0.00000000000E+00 0. -1.
         21    1    1    2  504  502  0.20802106072E+02 -0.24138542322E+03  0.11086776532E+04  0.11348417462E+04  0.00000000000E+00 0. -1.
         21    1    1    2  505  503 -0.73975782203E+01  0.20143920875E+03  0.82811165927E+02  0.21792239029E+03  0.00000000000E+00 0. -1.
          1    1    1    2  501    0  0.70531847986E+02  0.89936822891E+01 -0.24814764584E+04  0.24824949227E+04  0.00000000000E+00 0.  1.
<scales pt_clust_3="51.95648" pt_clust_4="235.64225" pt_clust_5="14000.00000" pt_clust_6="71.10294"></scales>
<clustering>
<clus scale="   71.103">  2  6  1 -1</clus>
<clus scale="   51.956">  2  3  1 -1</clus>
<clus scale="  235.642">  1  4  2 -1</clus>
<clus scale="  235.642">  1  3  2 -1</clus>
</clustering>
</event>
<event>
 6    0  0.3584505E+002  0.1504407E+03  0.7546771E-02  0.1199933E+00
          1   -1    0    0  504    0 -0.00000000000E+00  0.00000000000E+00  0.23048950869E+04  0.23048950869E+04  0.00000000000E+00 0.  1.
         21   -1    0    0  505  502  0.00000000000E+00 -0.00000000000E+00 -0.34035638699E+03  0.34035638699E+03  0.00000000000E+00 0.  1.
         21    1    1    2  503  501 -0.37433159581E+02 -0.18946144728E+02  0.34101826349E+03  0.34358936809E+03  0.00000000000E+00 0. -1.
         21    1    1    2  504  502 -0.99303738642E+02 -0.98241056306E+01  0.10944175889E+03  0.14810551694E+03  0.00000000000E+00 0. -1.
         21    1    1    2  505  503  0.15821241608E+03 -0.32072634682E+01 -0.29994235621E+03  0.33912663150E+03  0.00000000000E+00 0.  1.
          1    1    1    2  501    0 -0.21475517861E+02  0.31977513827E+02  0.18140210337E+04  0.18144299573E+04  0.00000000000E+00 0.  1.
<scales pt_clust_3="52.52276" pt_clust_4="14000.00000" pt_clust_5="150.44070" pt_clust_6="38.51960"></scales>
<clustering>
<clus scale="   38.520">  1  6  2 -1</clus>
<clus scale="   52.523">  1  3  2 -1</clus>
<clus scale="  150.441">  2  5  1 -1</clus>
<clus scale="  150.441">  2  3  1 -1</clus>
</clustering>
</event>
<event>
 6    0  0.3584505E+002  0.1837069E+03  0.7546771E-02  0.1164263E+00
         21   -1    0    0  501  502  0.00000000000E+00  0.00000000000E+00  0.82089831810E+02  0.82089831810E+02  0.00000000000E+00 0. -1.
          2   -1    0    0  505    0 -0.00000000000E+00 -0.00000000000E+00 -0.10048787308E+04  0.10048787308E+04  0.00000000000E+00 0. -1.
         21    1    1    2  503  504  0.39210370697E+02 -0.58036623586E+02 -0.30588177990E+01  0.70107483294E+02  0.00000000000E+00 0. -1.
         21    1    1    2  504  502  0.49860085244E+02  0.15673971186E+02  0.56870764937E+00  0.52268775590E+02  0.00000000000E+00 0. -1.
         21    1    1    2  505  503  0.35340624310E+02 -0.71382323326E+02 -0.10361225705E+03  0.13069007468E+03  0.00000000000E+00 0.  1.
          2    1    1    2  501    0 -0.12441108025E+03  0.11374497573E+03 -0.81668653180E+03  0.83390222905E+03  0.00000000000E+00 0. -1.
<scales pt_clust_3="80.47341" pt_clust_4="52.26568" pt_clust_5="80.47341" pt_clust_6="164.66454"></scales>
<clustering>
<clus scale="   52.266">  1  4  2 -1</clus>
<clus scale="   80.473">  3  5 -1 -1</clus>
<clus scale="  164.665">  2  6  1 -1</clus>
<clus scale="   52.266">  1  3  2 -1</clus>
</clustering>
</event>
<event>
 6    0  0.3584505E+002  0.1330362E+03  0.7546771E-02  0.1223019E+00
         -4   -1    0    0    0  501 -0.00000000000E+00  0.00000000000E+00  0.45231247248E+02  0.45231247248E+02  0.00000000000E+00 0. -1.
         21   -1    0    0  504  502  0.00000000000E+00 -0.00000000000E+00 -0.26333657810E+04  0.26333657810E+04  0.00000000000E+00 0.  1.
         21    1    1    2  503  502 -0.24637051039E+01 -0.49674125623E+02 -0.13258012248E+03  0.14160182723E+03  0.00000000000E+00 0.  1.
         21    1    1    2  504  501 -0.16001928984E+02  0.12328960344E+03 -0.23370349203E+04  0.23403394213E+04  0.00000000000E+00 0.  1.
         21    1    1    2  505  503  0.48637482474E+02 -0.60056607994E+02 -0.13807357313E+03  0.15822993542E+03  0.00000000000E+00 0. -1.
         -4    1    1    2    0  505 -0.30171848386E+02 -0.13558869819E+02  0.19554082137E+02  0.38425844350E+02  0.00000000000E+00 0. -1.
<scales pt_clust_3="42.48061" pt_clust_4="123.39296" pt_clust_5="42.48061" pt_clust_6="33.07844"></scales>
<clustering>
<clus scale="   33.078">  1  6  2 -1</clus>
<clus scale="   42.481">  3  5 -1 -1</clus>
<clus scale="  123.393">  2  4  1 -1</clus>
<clus scale="  123.393">  2  3  1 -1</clus>
</clustering>
</event>
<event>
 6    0  0.3584505E+002  0.1729265E+03  0.7546771E-02  0.1174830E+00
         -2   -1    0    0    0  501 -0.00000000000E+00  0.00000000000E+00  0.36606220073E+03  0.36606220073E+03  0.00000000000E+00 0.  1.
         21   -1    0    0  505  502  0.00000000000E+00 -0.00000000000E+00 -0.25244392837E+03  0.25244392837E+03  0.00000000000E+00 0. -1.
         21    1    1    2  503  502  0.49819442928E+02  0.17547750701E+02 -0.17105872849E+03  0.17902790017E+03  0.00000000000E+00 0. -1.
         21    1    1    2  504  503 -0.40724265774E+02 -0.40481523344E+02  0.75749000142E+02  0.95053303875E+02  0.00000000000E+00 0. -1.
         21    1    1    2  505  501  0.12958369527E+03  0.21696302649E+02  0.73330375792E+02  0.15046596838E+03  0.00000000000E+00 0.  1.
         -2    1    1    2    0  504 -0.13867887242E+03  0.12374699936E+01  0.13559762491E+03  0.19395895666E+03  0.00000000000E+00 0.  1.
<scales pt_clust_3="52.81951" pt_clust_4="46.11031" pt_clust_5="157.38002" pt_clust_6="46.11031"></scales>
<clustering>
<clus scale="   46.110">  4  6 -1 -1</clus>
<clus scale="   52.820">  2  3  1 -1</clus>
<clus scale="  157.380">  2  5  1 -1</clus>
<clus scale="   52.820">  2  3  1 -1</clus>
</clustering>
</event>
<event>
 6    0  0.3584505E+002  0.1020596E+03  0.7546771E-02  0.1276024E+00
          2   -1    0    0  504    0 -0.00000000000E+00  0.00000000000E+00  0.23269710968E+04  0.23269710968E+04  0.00000000000E+00 0. -1.
         21   -1    0    0  503  502  0.00000000000E+00 -0.00000000000E+00 -0.19195466161E+03  0.19195466161E+03  0.00000000000E+00 0.  1.
         21    1    1    2  503  501  0.98917753399E+02 -0.39267888620E+02  0.11118620907E+03  0.15391251444E+03  0.00000000000E+00 0. -1.
         21    1    1    2  504  505  0.24714576130E+02 -0.88418612998E+02  0.16061406765E+04  0.16087624232E+04  0.00000000000E+00 0. -1.
         21    1    1    2  505  502 -0.67918868293E+02  0.77135985541E+02 -0.15097200633E+03  0.18263482590E+03  0.00000000000E+00 0.  1.
          2    1    1    2  501    0 -0.55713461235E+02  0.50550516076E+02  0.56866155590E+03  0.57361599489E+03  0.00000000000E+00 0. -1.
<scales pt_clust_3="102.05959" pt_clust_4="49.66869" pt_clust_5="14000.00000" pt_clust_6="75.22861"></scales>
<clustering>
<clus scale="   75.229">  1  6  2 -1</clus>
<clus scale="   49.669">  1  4  2 -1</clus>
<clus scale="  102.060">  1  3  2 -1</clus>
<clus scale="  102.060">  2  3  1 -1</clus>
</clustering>
</event>
<event>
 6    0  0.4702856E+002  0.8331511E+02  0.7546771E-02  0.1319898E+00
          2   -1    0    0  504    0 -0.00000000000E+00  0.00000000000E+00  0.12129309025E+04  0.12129309025E+04  0.00000000000E+00 0.  1.
         21   -1    0    0  505  502  0.00000000000E+00 -0.00000000000E+00 -0.30081147952E+03  0.30081147952E+03  0.00000000000E+00 0.  1.
         21    1    1    2  503  501  0.93924697071E+02  0.52468189175E+02 -0.19875895409E+03  0.22600858706E+03  0.00000000000E+00 0.  1.
         21    1    1    2  504  502 -0.30331604224E+02  0.21651308947E+02  0.18409662951E+02  0.41565623824E+02  0.00000000000E+00 0. -1.
         21    1    1    2  505  503  0.14231907053E+02 -0.44831900923E+02 -0.68022684190E+02  0.82701463609E+02  0.00000000000E+00 0.  1.
          2    1    1    2  501    0 -0.77824999901E+02 -0.29287597199E+02  0.11604913983E+04  0.11634667075E+04  0.00000000000E+00 0.  1.
<scales pt_clust_3="83.31511" pt_clust_4="37.26641" pt_clust_5="39.69820" pt_clust_6="14000.00000"></scales>
<clustering>
<clus scale="   37.266">  2  4  1 -1</clus>
<clus scale="   39.698">  2  5  1 -1</clus>
<clus scale="   83.315">  2  3  1 -1</clus>
<clus scale="   37.266">  2  3  1 -1</clus>
</clustering>
</event>
<event>
 6    0  0.3584505E+002  0.2047635E+03  0.7546771E-02  0.1145781E+00
         21   -1    0    0  505  502  0.00000000000E+00  0.00000000000E+00  0.40161368953E+04  0.40161368953E+04  0.00000000000E+00 0. -1.
          1   -1    0    0  504    0 -0.00000000000E+00 -0.00000000000E+00 -0.58996714445E+02  0.58996714445E+02  0.00000000000E+00 0.  1.
         21    1    1    2  503  502  0.38855091690E+02 -0.56034350680E+01  0.78615393644E+03  0.78713348831E+03  0.00000000000E+00 0. -1.
         21    1    1    2  504  503 -0.20028039544E+01  0.19357136314E+03  0.21257148171E+04  0.21345110371E+04  0.00000000000E+00 0. -1.
         21    1    1    2  505  501 -0.39685144416E+02 -0.24073554259E+03  0.10683280036E+04  0.10958344928E+04  0.00000000000E+00 0. -1.
          1    1    1    2  501    0  0.28328566803E+01  0.52767614516E+02 -0.23056576326E+02  0.57654591582E+02  0.00000000000E+00 0.  1.
<scales pt_clust_3="39.25706" pt_clust_4="204.76351" pt_clust_5="14000.00000" pt_clust_6="52.82520"></scales>
<clustering>
<clus scale="   39.257">  1  3  2 -1</clus>
<clus scale="   52.825">  2  6  1 -1</clus>
<clus scale="  204.764">  1  4  2 -1</clus>
<clus scale="   39.257">  1  3  2 -1</clus>
</clustering>
</event>
<event>
 6    0  0.3584505E+002  0.1281647E+03  0.7546771E-02  0.1230205E+00
         21   -1    0    0  503  502  0.00000000000E+00  0.00000000000E+00  0.37694774926E+03  0.37694774926E+03  0.00000000000E+00 0. -1.
          2   -1    0    0  505    0 -0.00000000000E+00 -0.00000000000E+00 -0.78117722345E+03  0.78117722345E+03  0.00000000000E+00 0.  1.
         21    1    1    2  503  504  0.34726477981E+02  0.45651109514E+01  0.22102601949E+03  0.22378398021E+03  0.00000000000E+00 0. -1.
         21    1    1    2  504  501  0.81672291555E+02  0.45703111050E+02  0.11908420443E+03  0.15146017731E+03  0.00000000000E+00 0. -1.
         21    1    1    2  505  502  0.12101378633E+02 -0.31475804082E+02 -0.73204516597E+01  0.34507370516E+02  0.00000000000E+00 0. -1.
          2    1    1    2  501    0 -0.12850014817E+03 -0.18792417919E+02 -0.73701924644E+03  0.74837344467E+03  0.00000000000E+00 0.  1.
<scales pt_clust_3="44.62460" pt_clust_4="128.16467" pt_clust_5="33.72195" pt_clust_6="14000.00000"></scales>
<clustering>
<clus scale="   33.722">  1  5  2 -1</clus>
<clus scale="   44.625">  1  3  2 -1</clus>
<clus scale="  128.165">  1  4  2 -1</clus>
<clus scale="   33.722">  1  3  2 -1</clus>
</clustering>
</event>
<event>
 6    0  0.3584505E+002  0.6991862E+02  0.7546771E-02  0.1360370E+00
         21   -1    0    0  505  502  0.00000000000E+00  0.00000000000E+00  0.22909190162E+03  0.22909190162E+03  0.00000000000E+00 0. -1.
          4   -1    0    0  504    0 -0.00000000000E+00 -0.00000000000E+00 -0.52339658552E+03  0.52339658552E+03  0.00000000000E+00 0. -1.
         21    1    1    2  503  501 -0.13627686387E+02 -0.12035273278E+03 -0.25937776485E+02  0.12386792310E+03  0.00000000000E+00 0. -1.
         21    1    1    2  504  502  0.40060099894E+02  0.18469858966E+02  0.15935852086E+02  0.46903077463E+02  0.00000000000E+00 0. -1.
         21    1    1    2  505  503 -0.92179994276E+01  0.36558844874E+02  0.14362453414E+03  0.14849083291E+03  0.00000000000E+00 0. -1.
          4    1    1    2  501    0 -0.17214414080E+02  0.65324028937E+02 -0.42792729363E+03  0.43322665367E+03  0.00000000000E+00 0. -1.
<scales pt_clust_3="69.91862" pt_clust_4="48.79579" pt_clust_5="37.70306" pt_clust_6="14000.00000"></scales>
<clustering>
<clus scale="   37.703">  1  5  2 -1</clus>
<clus scale="   48.796">  1  4  2 -1</clus>
<clus scale="   69.919">  1  3  2 -1</clus>
<clus scale="   37.703">  1  3  2 -1</clus>
</clustering>
</event>
<event>
 6    0  0.3584505E+002  0.1099279E+03  0.7546771E-02  0.1260703E+00
          2   -1    0    0  505    0 -0.00000000000E+00  0.00000000000E+00  0.53738474964E+03  0.53738474964E+03  0.00000000000E+00 0. -1.
         21   -1    0    0  501  502  0.00000000000E+00 -0.00000000000E+00 -0.51095203835E+03  0.51095203835E+03  0.00000000000E+00 0.  1.
         21    1    1    2  503  504 -0.42231015879E+02 -0.35995575553E+02 -0.59461615223E+01  0.55807678668E+02  0.00000000000E+00 0.  1.
         21    1    1    2  504  502  0.56615010846E+02  0.95580867490E+02 -0.46891700297E+03  0.48189637616E+03  0.00000000000E+00 0.  1.
         21    1    1    2  505  503  0.31184860972E+02 -0.23091390651E+02  0.19540128180E+03  0.19921688885E+03  0.00000000000E+00 0. -1.
          2    1    1    2  501    0 -0.45568855940E+02 -0.36493901287E+02  0.30589459398E+03  0.31141584431E+03  0.00000000000E+00 0. -1.
<scales pt_clust_3="54.91819" pt_clust_4="109.92788" pt_clust_5="38.80345" pt_clust_6="14000.00000"></scales>
<clustering>
<clus scale="   38.803">  1  5  2 -1</clus>
<clus scale="   54.918">  1  3  2 -1</clus>
<clus scale="  109.928">  2  4  1 -1</clus>
<clus scale="  109.928">  2  3  1 -1</clus>
</clustering>
</event>
<event>
 6    0  0.3584505E+002  0.9304018E+02  0.7546771E-02  0.1295652E+00
         21   -1    0    0  505  502  0.00000000000E+00  0.00000000000E+00  0.11071929732E+04  0.11071929732E+04  0.00000000000E+00 0.  1.
          1   -1    0    0  503    0 -0.00000000000E+00 -0.00000000000E+00 -0.95054616560E+03  0.95054616560E+03  0.00000000000E+00 0.  1.
         21    1    1    2  503  504 -0.92025617927E+02 -0.86559642952E+02  0.42024637877E+02  0.13314411865E+03  0.00000000000E+00 0.  1.
         21    1    1    2  504  502  0.29202122351E+02  0.63370661615E+02  0.13516047982E+03  0.15210838244E+03  0.00000000000E+00 0.  1.
         21    1    1    2  505  501  0.61232774849E+02 -0.19098693453E+02  0.87429928236E+03  0.87664898787E+03  0.00000000000E+00 0.  1.
          1    1    1    2  501    0  0.15907207269E+01  0.42287674791E+02 -0.89483759250E+03  0.89583764979E+03  0.00000000000E+00 0.  1.
<scales pt_clust_3="93.04018" pt_clust_4="14000.00000" pt_clust_5="63.91241" pt_clust_6="42.31758"></scales>
<clustering>
<clus scale="   42.318">  2  6  1 -1</clus>
<clus scale="   63.912">  1  5  2 -1</clus>
<clus scale="   93.040">  2  3  1 -1</clus>
<clus scale="   63.912">  1  3  2 -1</clus>
</clustering>
</event>
<event>
 6    0  0.3584505E+002  0.1206660E+03  0.7546771E-02  0.1242002E+00
         21   -1    0    0  505  502  0.00000000000E+00  0.00000000000E+00  0.41192953877E+02  0.41192953877E+02  0.00000000000E+00 0.  1.
          2   -1    0    0  504    0 -0.00000000000E+00 -0.00000000000E+00 -0.19230510657E+04  0.19230510657E+04  0.00000000000E+00 0.  1.
         21    1    1    2  503  502  0.12226013636E+03 -0.61261245549E+02 -0.16415093487E+03  0.21364926999E+03  0.00000000000E+00 0.  1.
         21    1    1    2  504  503 -0.99442347280E+02  0.33408298617E+01 -0.31674824756E+03  0.33200812326E+03  0.00000000000E+00 0.  1.
         21    1    1    2  505  501  0.37326350662E+02  0.57049577023E+02 -0.13536238114E+03  0.15156148891E+03  0.00000000000E+00 0.  1.
          2    1    1    2  501    0 -0.60144139741E+02  0.87083866500E+00 -0.12655965483E+04  0.12670251375E+04  0.00000000000E+00 0.  1.
<scales pt_clust_3="120.66602" pt_clust_4="14000.00000" pt_clust_5="62.14066" pt_clust_6="60.15044"></scales>
<clustering>
<clus scale="   60.150">  2  6  1 -1</clus>
<clus scale="   62.141">  2  5  1 -1</clus>
<clus scale="  120.666">  1  3  2 -1</clus>
<clus scale="  120.666">  1  3  2 -1</clus>
</clustering>
</event>
<event>
 6    0  0.3584505E+002  0.9506982E+02  0.7546771E-02  0.1291019E+00
         21   -1    0    0  503  502  0.00000000000E+00  0.00000000000E+00  0.11507940671E+04  0.11507940671E+04  0.00000000000E+00 0.  1.
          1   -1    0    0  505    0 -0.00000000000E+00 -0.00000000000E+00 -0.13718506943E+04  0.13718506943E+04  0.00000000000E+00 0.  1.
         21    1    1    2  503  501 -0.46451590759E+02 -0.54891159620E+02  0.10747639281E+04  0.10771667888E+04  0.00000000000E+00 0.  1.
         21    1    1    2  504  502 -0.34324971264E+02  0.27249429760E+01  0.52657603941E+02  0.62916231763E+02  0.00000000000E+00 0.  1.
         21    1    1    2  505  504  0.27311194136E+02  0.10234654478E+03 -0.16038721599E+03  0.19221023804E+03  0.00000000000E+00 0.  1.
          1    1    1    2  501    0  0.53465367886E+02 -0.50180328134E+02 -0.11880909432E+04  0.11903515028E+04  0.00000000000E+00 0.  1.
<scales pt_clust_3="14000.00000" pt_clust_4="34.43296" pt_clust_5="95.06982" pt_clust_6="73.29757"></scales>
<clustering>
<clus scale="   34.433">  1  4  2 -1</clus>
<clus scale="   73.298">  2  6  1 -1</clus>
<clus scale="   95.070">  2  5  1 -1</clus>
<clus scale="   34.433">  1  3  2 -1</clus>
</clustering>
</event>
<event>
 6    0  0.3584505E+002  0.1176555E+03  0.7546771E-02  0.1247016E+00
         21   -1    0    0  503  502  0.00000000000E+00  0.00000000000E+00  0.53264412028E+03  0.53264412028E+03  0.00000000000E+00 0.  1.
          1   -1    0    0  505    0 -0.00000000000E+00 -0.00000000000E+00 -0.25325563021E+04  0.25325563021E+04  0.00000000000E+00 0. -1.
         21    1    1    2  503  501 -0.37845887727E+02 -0.16999755597E+03  0.42425979598E+03  0.45861514883E+03  0.00000000000E+00 0.  1.
         21    1    1    2  504  502  0.31576246962E+02  0.46034899088E+02  0.65997785257E+01  0.56212350803E+02  0.00000000000E+00 0.  1.
         21    1    1    2  505  504 -0.44756062024E+02  0.92121013203E+02  0.15306628626E+02  0.10355519804E+03  0.00000000000E+00 0. -1.
          1    1    1    2  501    0  0.51025702789E+02  0.31841643683E+02 -0.24460783849E+04  0.24468177247E+04  0.00000000000E+00 0. -1.
<scales pt_clust_3="117.65547" pt_clust_4="55.82357" pt_clust_5="14000.00000" pt_clust_6="60.18349"></scales>
<clustering>
<clus scale="   55.824">  1  4  2 -1</clus>
<clus scale="   60.183">  2  6  1 -1</clus>
<clus scale="  117.655">  1  3  2 -1</clus>
<clus scale="   55.824">  1  3  2 -1</clus>
</clustering>
</event>
<event>
 6    0  0.3584505E+002  0.1430894E+03  0.7546771E-02  0.1209231E+00
         21   -1    0    0  503  502  0.00000000000E+00  0.00000000000E+00  0.19569953144E+02  0.19569953144E+02  0.00000000000E+00 0. -1.
          2   -1    0    0  505    0 -0.00000000000E+00 -0.00000000000E+00 -0.27538714615E+04  0.27538714615E+04  0.00000000000E+00 0. -1.
         21    1    1    2  503  501  0.12416582780E+03 -0.11106873014E+02 -0.12236874059E+04  0.12300208872E+04  0.00000000000E+00 0. -1.
         21    1    1    2  504  502 -0.99561445213E+02 -0.18753903534E+02 -0.28126328937E+03  0.29895355528E+03  0.00000000000E+00 0. -1.
         21    1    1    2  505  504 -0.32953018968E+02 -0.16917949032E+02 -0.41346097844E+02  0.55512325348E+02  0.00000000000E+00 0. -1.
          2    1    1    2  501    0  0.83486363772E+01  0.46778725580E+02 -0.11880047152E+04  0.11889546468E+04  0.00000000000E+00 0. -1.
<scales pt_clust_3="133.18373" pt_clust_4="31.63215" pt_clust_5="31.63215" pt_clust_6="47.51788"></scales>
<clustering>
<clus scale="   31.632">  4  5 -1 -1</clus>
<clus scale="   47.518">  2  6  1 -1</clus>
<clus scale="  133.184">  2  3  1 -1</clus>
<clus scale="  143.089">  1  3  2 -1</clus>
</clustering>
</event>
<event>
 6    0  0.3584505E+002  0.1081148E+03  0.7546771E-02  0.1264101E+00
         -1   -1    0    0    0  501 -0.00000000000E+00  0.00000000000E+00  0.13255606825E+03  0.13255606825E+03  0.00000000000E+00 0. -1.
         21   -1    0    0  501  502  0.00000000000E+00 -0.00000000000E+00 -0.24222828344E+03  0.24222828344E+03  0.00000000000E+00 0. -1.
         21    1    1    2  503  502  0.32670294957E+02  0.40236010227E+02 -0.82725345149E+02  0.97620527665E+02  0.00000000000E+00 0. -1.
         21    1    1    2  504  505  0.39040953540E+00 -0.12645150088E+03 -0.29302728880E+02  0.12980286752E+03  0.00000000000E+00 0. -1.
         21    1    1    2  505  503 -0.10702981691E+02  0.46760318754E+02 -0.55818581198E+02  0.73598880657E+02  0.00000000000E+00 0. -1.
         -1    1    1    2    0  504 -0.22357722802E+02  0.39455171903E+02  0.58174440038E+02  0.73762075842E+02  0.00000000000E+00 0. -1.
<scales pt_clust_3="43.77821" pt_clust_4="98.07176" pt_clust_5="43.77821" pt_clust_6="45.34951"></scales>
<clustering>
<clus scale="   43.778">  3  5 -1 -1</clus>
<clus scale="   45.350">  1  6  2 -1</clus>
<clus scale="   98.072">  1  4  2 -1</clus>
<clus scale="  108.115">  2  3  1 -1</clus>
</clustering>
</event>
<event>
 6    0  0.3584505E+002  0.9501366E+02  0.7546771E-02  0.1291145E+00
         21   -1    0    0  505  502  0.00000000000E+00  0.00000000000E+00  0.10706672881E+03  0.10706672881E+03  0.00000000000E+00 0.  1.
          2   -1    0    0  503    0 -0.00000000000E+00 -0.00000000000E+00 -0.14447094789E+04  0.14447094789E+04  0.00000000000E+00 0.  1.
         21    1    1    2  503  502 -0.20557518024E+02  0.82487036541E+02  0.11079772443E+02  0.85729132166E+02  0.00000000000E+00 0.  1.
         21    1    1    2  504  501 -0.70944634880E+01 -0.12878244315E+03 -0.50450474834E+02  0.13849368031E+03  0.00000000000E+00 0.  1.
         21    1    1    2  505  504  0.29448912604E+02 -0.72879178456E+01 -0.22475577150E+01  0.30420448974E+02  0.00000000000E+00 0.  1.
          2    1    1    2  501    0 -0.17969310919E+01  0.53583324450E+02 -0.12960244900E+04  0.12971329463E+04  0.00000000000E+00 0.  1.
<scales pt_clust_3="95.01366" pt_clust_4="14000.00000" pt_clust_5="30.33731" pt_clust_6="53.56443"></scales>
<clustering>
<clus scale="   30.337">  1  5  2 -1</clus>
<clus scale="   53.564">  2  6  1 -1</clus>
<clus scale="   95.014">  1  3  2 -1</clus>
<clus scale="   30.337">  1  3  2 -1</clus>
</clustering>
</event>
<event>
 6    0  0.3584505E+002  0.1002822E+03  0.7546771E-02  0.1279704E+00
         21   -1    0    0  505  502  0.00000000000E+00  0.00000000000E+00  0.56482393639E+03  0.56482393639E+03  0.00000000000E+00 0.  1.
          2   -1    0    0  504    0 -0.00000000000E+00 -0.00000000000E+00 -0.57124338740E+02  0.57124338740E+02  0.00000000000E+00 0.  1.
         21    1    1    2  503  501  0.10935726954E+03  0.15277116865E+01  0.15521295899E+03  0.18987471908E+03  0.00000000000E+00 0.  1.
         21    1    1    2  504  502 -0.33195168504E+02 -0.49119236256E+02  0.27874638473E+02  0.65510411786E+02  0.00000000000E+00 0. -1.
         21    1    1    2  505  503 -0.96077294762E+02  0.97552526761E+01  0.30424297123E+03  0.31920181245E+03  0.00000000000E+00 0.  1.
          2    1    1    2  501    0  0.19915193721E+02  0.37836271893E+02  0.20369028954E+02  0.47361331825E+02  0.00000000000E+00 0.  1.
<scales pt_clust_3="14000.00000" pt_clust_4="41.00279" pt_clust_5="100.28222" pt_clust_6="42.75744"></scales>
<clustering>
<clus scale="   42.757">  2  6  1 -1</clus>
<clus scale="   41.003">  2  4  1 -1</clus>
<clus scale="  100.282">  1  5  2 -1</clus>
<clus scale="  100.282">  1  3  2 -1</clus>
</clustering>
</event>
<event>
 6    0  0.3584505E+002  0.8600140E+02  0.7546771E-02  0.1312834E+00
          2   -1    0    0  504    0 -0.00000000000E+00  0.00000000000E+00  0.84658286490E+03  0.84658286490E+03  0.00000000000E+00 0. -1.
         21   -1    0    0  503  502  0.00000000000E+00 -0.00000000000E+00 -0.74615087757E+03  0.74615087757E+03  0.00000000000E+00 0.  1.
         21    1    1    2  503  501  0.63339617335E+02 -0.97416871196E+01 -0.41967834083E+03  0.42454295113E+03  0.00000000000E+00 0.  1.
         21    1    1    2  504  505  0.19361965127E+01  0.10540018966E+03 -0.11452083664E+03  0.15565336765E+03  0.00000000000E+00 0.  1.
         21    1    1    2  505  502 -0.11949099597E+02 -0.28150074610E+02 -0.18545082153E+03  0.18795535344E+03  0.00000000000E+00 0.  1.
          2    1    1    2  501    0 -0.53326714251E+02 -0.67508427930E+02  0.82008198632E+03  0.82458207025E+03  0.00000000000E+00 0. -1.
<scales pt_clust_3="62.53737" pt_clust_4="14000.00000" pt_clust_5="30.58117" pt_clust_6="86.00140"></scales>
<clustering>
<clus scale="   30.581">  2  5  1 -1</clus>
<clus scale="   62.537">  2  3  1 -1</clus>
<clus scale="   86.001">  1  6  2 -1</clus>
<clus scale="   30.581">  2  3  1 -1</clus>
</clustering>
</event>
<event>
 6    0  0.3584505E+002  0.9939181E+02  0.7546771E-02  0.1281580E+00
          1   -1    0    0  503    0 -0.00000000000E+00  0.00000000000E+00  0.32102645101E+04  0.32102645101E+04  0.00000000000E+00 0. -1.
         21   -1    0    0  504  502  0.00000000000E+00 -0.00000000000E+00 -0.17820043231E+03  0.17820043231E+03  0.00000000000E+00 0. -1.
         21    1    1    2  503  502  0.19854783440E+02 -0.83220926474E+02 -0.97391622609E+01  0.86109153464E+02  0.00000000000E+00 0. -1.
         21    1    1    2  504  505 -0.17178775718E+02 -0.26302858147E+02 -0.83109512393E+02  0.88848982730E+02  0.00000000000E+00 0. -1.
         21    1    1    2  505  501 -0.43289583908E+02  0.18244722627E+02 -0.30825298261E+02  0.56187694308E+02  0.00000000000E+00 0. -1.
          1    1    1    2  501    0  0.40613576186E+02  0.91279061994E+02  0.31557380507E+04  0.31573191119E+04  0.00000000000E+00 0. -1.
<scales pt_clust_3="14000.00000" pt_clust_4="31.41577" pt_clust_5="51.72418" pt_clust_6="99.39181"></scales>
<clustering>
<clus scale="   31.416">  2  4  1 -1</clus>
<clus scale="   51.724">  2  5  1 -1</clus>
<clus scale="   99.392">  1  6  2 -1</clus>
<clus scale="   31.416">  2  3  1 -1</clus>
</clustering>
</event>
<event>
 6    0  0.3584505E+002  0.7955281E+02  0.7546771E-02  0.1330325E+00
         21   -1    0    0  504  502  0.00000000000E+00  0.00000000000E+00  0.43234183765E+03  0.43234183765E+03  0.00000000000E+00 0. -1.
          1   -1    0    0  505    0 -0.00000000000E+00 -0.00000000000E+00 -0.81101317484E+03  0.81101317484E+03  0.00000000000E+00 0. -1.
         21    1    1    2  503  502 -0.47877937868E+02  0.30274898341E+02  0.96113124383E+02  0.11156432711E+03  0.00000000000E+00 0. -1.
         21    1    1    2  504  501 -0.22766795992E+02 -0.68290241795E+02  0.30653974733E+03  0.31487854931E+03  0.00000000000E+00 0. -1.
         21    1    1    2  505  503 -0.33889474709E+02 -0.22902701211E+02 -0.19095060408E+02  0.45140353907E+02  0.00000000000E+00 0. -1.
          1    1    1    2  501    0  0.10453420857E+03  0.60918044665E+02 -0.76222914850E+03  0.77177178216E+03  0.00000000000E+00 0. -1.
<scales pt_clust_3="56.81077" pt_clust_4="79.55281" pt_clust_5="40.90269" pt_clust_6="14000.00000"></scales>
<clustering>
<clus scale="   40.903">  2  5  1 -1</clus>
<clus scale="   56.811">  1  3  2 -1</clus>
<clus scale="   79.553">  1  4  2 -1</clus>
<clus scale="   56.811">  1  3  2 -1</clus>
</clustering>
</event>
<event>
 6    0  0.3584505E+002  0.1044402E+03  0.7546771E-02  0.1271227E+00
          2   -1    0    0  505    0 -0.00000000000E+00  0.00000000000E+00  0.26766517164E+04  0.26766517164E+04  0.00000000000E+00 0.  1.
         21   -1    0    0  503  502  0.00000000000E+00 -0.00000000000E+00 -0.30910681211E+03  0.30910681211E+03  0.00000000000E+00 0. -1.
         21    1    1    2  503  504 -0.13374234869E+02  0.61234616395E+02 -0.10551535194E+03  0.12272749447E+03  0.00000000000E+00 0.  1.
         21    1    1    2  504  501 -0.60042042949E+02 -0.31031754638E+02 -0.10829478438E+03  0.12765491389E+03  0.00000000000E+00 0. -1.
         21    1    1    2  505  502  0.13135763271E+03  0.56427464861E+02 -0.86961822620E+01  0.14322887295E+03  0.00000000000E+00 0. -1.
          2    1    1    2  501    0 -0.57941354892E+02 -0.86630326618E+02  0.25900512228E+04  0.25921472472E+04  0.00000000000E+00 0.  1.
<scales pt_clust_3="62.67813" pt_clust_4="68.39930" pt_clust_5="104.44015" pt_clust_6="14000.00000"></scales>
<clustering>
<clus scale="   62.678">  2  3  1 -1</clus>
<clus scale="   68.399">  2  4  1 -1</clus>
<clus scale="  104.440">  2  5  1 -1</clus>
<clus scale="   62.678">  2  3  1 -1</clus>
</clustering>
</event>
<event>
 6    0  0.3584505E+002  0.1058892E+03  0.7546771E-02  0.1268377E+00
          1   -1    0    0  503    0 -0.00000000000E+00  0.00000000000E+00  0.11845862810E+04  0.11845862810E+04  0.00000000000E+00 0.  1.
         21   -1    0    0  505  502  0.00000000000E+00 -0.00000000000E+00 -0.21967095276E+04  0.21967095276E+04  0.00000000000E+00 0. -1.
         21    1    1    2  503  504  0.23406949271E+03  0.27153169202E+02 -0.55065575171E+03  0.59895540644E+03  0.00000000000E+00 0. -1.
         21    1    1    2  504  502 -0.52521823919E+02 -0.56574719144E+02 -0.15558412078E+04  0.15577551492E+04  0.00000000000E+00 0. -1.
         21    1    1    2  505  501 -0.78065618448E+02  0.94954064461E+01 -0.37984416200E+02  0.87333953313E+02  0.00000000000E+00 0. -1.
          1    1    1    2  501    0 -0.10348205034E+03  0.19926143495E+02  0.11323581292E+04  0.11372512997E+04  0.00000000000E+00 0.  1.
<scales pt_clust_3="14000.00000" pt_clust_4="77.19612" pt_clust_5="83.30245" pt_clust_6="105.88923"></scales>
<clustering>
<clus scale="   77.196">  2  4  1 -1</clus>
<clus scale="   83.302">  2  5  1 -1</clus>
<clus scale="  105.889">  1  6  2 -1</clus>
<clus scale="   77.196">  2  3  1 -1</clus>
</clustering>
</event>
<event>
 6    0  0.3584505E+002  0.1993076E+03  0.7546771E-02  0.1150324E+00
          2   -1    0    0  504    0 -0.00000000000E+00  0.00000000000E+00  0.11463472461E+04  0.11463472461E+04  0.00000000000E+00 0.  1.
         21   -1    0    0  503  502  0.00000000000E+00 -0.00000000000E+00 -0.10607759206E+04  0.10607759206E+04  0.00000000000E+00 0. -1.
         21    1    1    2  503  501  0.22797035227E+02 -0.82685929174E+02 -0.26964030946E+02  0.89909547120E+02  0.00000000000E+00 0.  1.
         21    1    1    2  504  505 -0.75053006097E+02  0.11251656572E+03  0.14385039143E+03  0.19744838921E+03  0.00000000000E+00 0. -1.
         21    1    1    2  505  502  0.30928830714E+02 -0.13134838684E+03 -0.96799673475E+03  0.97735698175E+03  0.00000000000E+00 0. -1.
          2    1    1    2  501    0  0.21327140156E+02  0.10151775029E+03  0.93668169970E+03  0.94240824863E+03  0.00000000000E+00 0.  1.
<scales pt_clust_3="85.77102" pt_clust_4="199.30763" pt_clust_5="14000.00000" pt_clust_6="103.51609"></scales>
<clustering>
<clus scale="   85.771">  2  3  1 -1</clus>
<clus scale="  103.516">  1  6  2 -1</clus>
<clus scale="  199.308">  1  4  2 -1</clus>
<clus scale="   85.771">  2  3  1 -1</clus>
</clustering>
</event>
<event>
 6    0  0.3584505E+002  0.1083419E+03  0.7546771E-02  0.1263672E+00
         21   -1    0    0  503  502  0.00000000000E+00  0.00000000000E+00  0.39310669583E+04  0.39310669583E+04  0.00000000000E+00 0. -1.
         -3   -1    0    0    0  501 -0.00000000000E+00 -0.00000000000E+00 -0.65948909638E+02  0.65948909638E+02  0.00000000000E+00 0.  1.
         21    1    1    2  503  501  0.41741605505E+02  0.62429451486E+02  0.26686201091E+04  0.26696765881E+04  0.00000000000E+00 0. -1.
         21    1    1    2  504  505  0.85076710659E+02 -0.12284214685E+03  0.42510011594E+03  0.45059776776E+03  0.00000000000E+00 0.  1.
         21    1    1    2  505  502 -0.28734837194E+02  0.20536521621E+02  0.77004375475E+03  0.77085330888E+03  0.00000000000E+00 0. -1.
         -3    1    1    2    0  504 -0.98083478970E+02  0.39876173743E+02  0.13540688434E+01  0.10588820322E+03  0.00000000000E+00 0.  1.
<scales pt_clust_3="81.66419" pt_clust_4="108.34187" pt_clust_5="35.31911" pt_clust_6="14000.00000"></scales>
<clustering>
<clus scale="   35.319">  1  5  2 -1</clus>
<clus scale="   81.664">  1  3  2 -1</clus>
<clus scale="  108.342">  1  4  2 -1</clus>
<clus scale="   35.319">  1  3  2 -1</clus>
</clustering>
</event>
<event>
 6    0  0.3584505E+002  0.1401761E+03  0.7546771E-02  0.1213092E+00
         21   -1    0    0  505  502  0.00000000000E+00  0.00000000000E+00  0.47796062242E+03  0.47796062242E+03  0.00000000000E+00 0.  1.
         -1   -1    0    0    0  501 -0.00000000000E+00 -0.00000000000E+00 -0.92706236310E+03  0.92706236310E+03  0.00000000000E+00 0. -1.
         21    1    1    2  503  504 -0.14480543898E+03 -0.66553327522E+02  0.88425360301E+02  0.18225532888E+03  0.00000000000E+00 0.  1.
         21    1    1    2  504  501 -0.21780760972E+02  0.83861198041E+02 -0.72388511187E+02  0.11290349258E+03  0.00000000000E+00 0.  1.
         21    1    1    2  505  503  0.68488738272E+02 -0.56279892407E+02  0.31263545740E+03  0.32496009414E+03  0.00000000000E+00 0.  1.
         -1    1    1    2    0  502  0.98097461680E+02  0.38972021888E+02 -0.77777404720E+03  0.78490406992E+03  0.00000000000E+00 0. -1.
<scales pt_clust_3="14000.00000" pt_clust_4="86.64353" pt_clust_5="88.12944" pt_clust_6="140.17611"></scales>
<clustering>
<clus scale="   86.644">  2  4  1 -1</clus>
<clus scale="   88.129">  1  5  2 -1</clus>
<clus scale="  140.176">  2  6  1 -1</clus>
<clus scale="   88.129">  1  3  2 -1</clus>
</clustering>
</event>
<event>
 6    0  0.3584505E+002  0.1113107E+03  0.7546771E-02  0.1258162E+00
          4   -1    0    0  504    0 -0.00000000000E+00  0.00000000000E+00  0.14236499941E+04  0.14236499941E+04  0.00000000000E+00 0. -1.
         21   -1    0    0  503  502  0.00000000000E+00 -0.00000000000E+00 -0.34589589550E+03  0.34589589550E+03  0.00000000000E+00 0. -1.
         21    1    1    2  503  501 -0.89077291155E+01 -0.28667777629E+02 -0.27352087641E+03  0.27516333139E+03  0.00000000000E+00 0. -1.
         21    1    1    2  504  505  0.23481624857E+02 -0.10078868356E+03  0.64901315291E+03  0.65721215608E+03  0.00000000000E+00 0. -1.
         21    1    1    2  505  502  0.41589094701E+02  0.20459458107E+02 -0.53925231285E+02  0.71106770376E+02  0.00000000000E+00 0. -1.
          4    1    1    2  501    0 -0.56162990443E+02  0.10899700309E+03  0.75618705341E+03  0.76606363177E+03  0.00000000000E+00 0. -1.
<scales pt_clust_3="30.01981" pt_clust_4="14000.00000" pt_clust_5="34.11630" pt_clust_6="111.31072"></scales>
<clustering>
<clus scale="   30.020">  2  3  1 -1</clus>
<clus scale="   34.116">  2  5  1 -1</clus>
<clus scale="  111.311">  2  6  1 -1</clus>
<clus scale="   30.020">  2  3  1 -1</clus>
</clustering>
</event>
<event>
 6    0  0.3584505E+002  0.9956566E+02  0.7546771E-02  0.1281212E+00
         21   -1    0    0  503  502  0.00000000000E+00  0.00000000000E+00  0.10409826749E+03  0.10409826749E+03  0.00000000000E+00 0.  1.
          2   -1    0    0  504    0 -0.00000000000E+00 -0.00000000000E+00 -0.11188247072E+04  0.11188247072E+04  0.00000000000E+00 0.  1.
         21    1    1    2  503  505 -0.37262658866E+02 -0.14670185671E+02  0.39603498534E+02  0.56321906835E+02  0.00000000000E+00 0.  1.
         21    1    1    2  504  502 -0.13482312628E+02 -0.99149457340E+02 -0.14923095544E+03  0.17967266266E+03  0.00000000000E+00 0.  1.
         21    1    1    2  505  501 -0.30370536127E+02  0.48712166038E+02  0.16302869035E+02  0.59674350633E+02  0.00000000000E+00 0.  1.
          2    1    1    2  501    0  0.81115507621E+02  0.65107476973E+02 -0.92140185184E+03  0.92725405457E+03  0.00000000000E+00 0.  1.
<scales pt_clust_3="40.04647" pt_clust_4="99.56566" pt_clust_5="67.78036" pt_clust_6="14000.00000"></scales>
<clustering>
<clus scale="   40.046">  1  3  2 -1</clus>
<clus scale="   67.780">  1  5  2 -1</clus>
<clus scale="   99.566">  1  4  2 -1</clus>
<clus scale="   40.046">  1  3  2 -1</clus>
</clustering>
</event>
<event>
 6    0  0.3584505E+002  0.1472689E+03  0.7546771E-02  0.1203870E+00
          2   -1    0    0  503    0 -0.00000000000E+00  0.00000000000E+00  0.26583604711E+04  0.26583604711E+04  0.00000000000E+00 0. -1.
         21   -1    0    0  505  502  0.00000000000E+00 -0.00000000000E+00 -0.16995460122E+03  0.16995460122E+03  0.00000000000E+00 0. -1.
         21    1    1    2  503  502  0.75929827522E+02  0.17847371877E+02  0.17131620618E+03  0.18823684520E+03  0.00000000000E+00 0.  1.
         21    1    1    2  504  501 -0.17532941534E+03  0.50917975150E+02  0.82414037680E+02  0.20031254999E+03  0.00000000000E+00 0. -1.
         21    1    1    2  505  504 -0.39168936768E+02 -0.23076723032E+02 -0.95109550570E+02  0.10541616272E+03  0.00000000000E+00 0. -1.
          2    1    1    2  501    0  0.13856852458E+03 -0.45688623996E+02  0.23297851766E+04  0.23343495144E+04  0.00000000000E+00 0. -1.
<scales pt_clust_3="72.74779" pt_clust_4="147.26888" pt_clust_5="45.46142" pt_clust_6="14000.00000"></scales>
<clustering>
<clus scale="   45.461">  2  5  1 -1</clus>
<clus scale="   72.748">  2  3  1 -1</clus>
<clus scale="  147.269">  2  4  1 -1</clus>
<clus scale="   45.461">  2  3  1 -1</clus>
</clustering>
</event>
<event>
 6    0  0.3584505E+002  0.1061119E+03  0.7546771E-02  0.1267944E+00
         21   -1    0    0  503  502  0.00000000000E+00  0.00000000000E+00  0.86905545100E+02  0.86905545100E+02  0.00000000000E+00 0. -1.
          1   -1    0    0  505    0 -0.00000000000E+00 -0.00000000000E+00 -0.19999043947E+04  0.19999043947E+04  0.00000000000E+00 0. -1.
         21    1    1    2  503  501 -0.28039758819E+02  0.12384445776E+03 -0.58319328521E+02  0.13973124873E+03  0.00000000000E+00 0. -1.
         21    1    1    2  504  502 -0.25060640279E+02 -0.22761220524E+02  0.36016706038E+02  0.49429869156E+02  0.00000000000E+00 0. -1.
         21    1    1    2  505  504  0.53773158939E+02 -0.45612659542E+02 -0.41781821886E+03  0.42372648176E+03  0.00000000000E+00 0. -1.
          1    1    1    2  501    0 -0.67275984037E+00 -0.55470577696E+02 -0.14728780082E+04  0.14739223401E+04  0.00000000000E+00 0. -1.
<scales pt_clust_3="106.11191" pt_clust_4="33.85423" pt_clust_5="14000.00000" pt_clust_6="55.74800"></scales>
<clustering>
<clus scale="   33.854">  1  4  2 -1</clus>
<clus scale="   55.748">  2  6  1 -1</clus>
<clus scale="  106.112">  1  3  2 -1</clus>
<clus scale="   33.854">  1  3  2 -1</clus>
</clustering>
</event>
<event>
 6    0  0.3584505E+002  0.1201357E+03  0.7546771E-02  0.1242873E+00
          1   -1    0    0  504    0 -0.00000000000E+00  0.00000000000E+00  0.34027876054E+03  0.34027876054E+03  0.00000000000E+00 0.  1.
         21   -1    0    0  501  502  0.00000000000E+00 -0.00000000000E+00 -0.21183934438E+03  0.21183934438E+03  0.00000000000E+00 0. -1.
         21    1    1    2  503  505  0.12615559472E+01 -0.36563594064E+02  0.15786892461E+02  0.39846127890E+02  0.00000000000E+00 0.  1.
         21    1    1    2  504  503 -0.63507669381E+02 -0.74857984306E+02 -0.69749006906E+02  0.12042369305E+03  0.00000000000E+00 0. -1.
         21    1    1    2  505  502 -0.21941364131E+02  0.21428344223E+02 -0.88807774925E+02  0.93954341481E+02  0.00000000000E+00 0. -1.
          1    1    1    2  501    0  0.84187477564E+02  0.89993234147E+02  0.27120930553E+03  0.29789394250E+03  0.00000000000E+00 0.  1.
<scales pt_clust_3="34.43619" pt_clust_4="14000.00000" pt_clust_5="30.66916" pt_clust_6="120.13570"></scales>
<clustering>
<clus scale="   30.669">  2  5  1 -1</clus>
<clus scale="   34.436">  2  3  1 -1</clus>
<clus scale="  120.136">  1  6  2 -1</clus>
<clus scale="   30.669">  2  3  1 -1</clus>
</clustering>
</event>
<event>
 6    0  0.3584505E+002  0.9686141E+02  0.7546771E-02  0.1287038E+00
         21   -1    0    0  505  502  0.00000000000E+00  0.00000000000E+00  0.33698512920E+03  0.33698512920E+03  0.00000000000E+00 0. -1.
         -2   -1    0    0    0  501 -0.00000000000E+00 -0.00000000000E+00 -0.34412210586E+03  0.34412210586E+03  0.00000000000E+00 0.  1.
         21    1    1    2  503  501 -0.90359655654E+02 -0.29264661373E+01  0.69622940567E+02  0.11410865623E+03  0.00000000000E+00 0. -1.
         21    1    1    2  504  502  0.10784480692E+03 -0.78595639661E+02  0.30681419925E+02  0.13692744970E+03  0.00000000000E+00 0. -1.
         21    1    1    2  505  503  0.11453821782E+02  0.27960655210E+02  0.15640262459E+03  0.15929459895E+03  0.00000000000E+00 0. -1.
         -2    1    1    2    0  504 -0.28938973049E+02  0.53561450588E+02 -0.26384396174E+03  0.27077653018E+03  0.00000000000E+00 0.  1.
<scales pt_clust_3="14000.00000" pt_clust_4="96.86141" pt_clust_5="30.21570" pt_clust_6="61.25165"></scales>
<clustering>
<clus scale="   30.216">  1  5  2 -1</clus>
<clus scale="   61.252">  2  6  1 -1</clus>
<clus scale="   96.861">  2  4  1 -1</clus>
<clus scale="   30.216">  1  3  2 -1</clus>
</clustering>
</event>
<event>
 6    0  0.3584505E+002  0.1104501E+03  0.7546771E-02  0.1259739E+00
         21   -1    0    0  505  502  0.00000000000E+00  0.00000000000E+00  0.93332900921E+03  0.93332900921E+03  0.00000000000E+00 0.  1.
          1   -1    0    0  504    0 -0.00000000000E+00 -0.00000000000E+00 -0.14079858716E+04  0.14079858716E+04  0.00000000000E+00 0. -1.
         21    1    1    2  503  502 -0.14206934687E+02 -0.91669548244E+02  0.86215619256E+02  0.12664231549E+03  0.00000000000E+00 0.  1.
         21    1    1    2  504  503 -0.90316584413E+02  0.13192165545E+03  0.57868477784E+02  0.17002696644E+03  0.00000000000E+00 0.  1.
         21    1    1    2  505  501  0.35637550023E+02 -0.13265736448E+02  0.71141659108E+03  0.71243215873E+03  0.00000000000E+00 0.  1.
          1    1    1    2  501    0  0.68885969077E+02 -0.26986370759E+02 -0.13301575505E+04  0.13322134402E+04  0.00000000000E+00 0. -1.
<scales pt_clust_3="14000.00000" pt_clust_4="110.45007" pt_clust_5="38.02650" pt_clust_6="74.15991"></scales>
<clustering>
<clus scale="   38.027">  1  5  2 -1</clus>
<clus scale="   74.160">  2  6  1 -1</clus>
<clus scale="  110.450">  2  4  1 -1</clus>
<clus scale="   38.027">  1  3  2 -1</clus>
</clustering>
</event>
<event>
 6    0  0.3584505E+002  0.9459205E+02  0.7546771E-02  0.1292098E+00
         -2   -1    0    0    0  501 -0.00000000000E+00  0.00000000000E+00  0.54202801187E+02  0.54202801187E+02  0.00000000000E+00 0. -1.
         21   -1    0    0  505  502  0.00000000000E+00 -0.00000000000E+00 -0.44626566528E+03  0.44626566528E+03  0.00000000000E+00 0. -1.
         21    1    1    2  503  502 -0.31512165076E+02  0.82182464787E+02 -0.13850540279E+03  0.16410582155E+03  0.00000000000E+00 0. -1.
         21    1    1    2  504  501 -0.21478269676E+02 -0.37166875424E+02 -0.23724889153E+02  0.49046539759E+02  0.00000000000E+00 0. -1.
         21    1    1    2  505  504  0.17628917268E+01  0.31903957486E+02 -0.17902446334E+03  0.18185359156E+03  0.00000000000E+00 0. -1.
         -2    1    1    2    0  503  0.51227543026E+02 -0.76919546849E+02 -0.50808108815E+02  0.10546251359E+03  0.00000000000E+00 0. -1.
<scales pt_clust_3="94.59205" pt_clust_4="39.07486" pt_clust_5="31.95263" pt_clust_6="14000.00000"></scales>
<clustering>
<clus scale="   31.953">  2  5  1 -1</clus>
<clus scale="   39.075">  1  4  2 -1</clus>
<clus scale="   94.592">  2  3  1 -1</clus>
<clus scale="   31.953">  2  3  1 -1</clus>
</clustering>
</event>
<event>
 6    0  0.3584505E+002  0.2050397E+03  0.7546771E-02  0.1145555E+00
         21   -1    0    0  501  502  0.00000000000E+00  0.00000000000E+00  0.20245302261E+04  0.20245302261E+04  0.00000000000E+00 0. -1.
          1   -1    0    0  503    0 -0.00000000000E+00 -0.00000000000E+00 -0.99364194300E+03  0.99364194300E+03  0.00000000000E+00 0.  1.
         21    1    1    2  503  504 -0.22978146409E+02  0.98361611821E+02 -0.11757190981E+03  0.15500372857E+03  0.00000000000E+00 0. -1.
         21    1    1    2  504  505  0.17631238965E+03 -0.47512546621E+01  0.92305737679E+03  0.93975717821E+03  0.00000000000E+00 0. -1.
         21    1    1    2  505  502  0.29317525714E+02 -0.13288586281E+02  0.10624364094E+04  0.10629239051E+04  0.00000000000E+00 0. -1.
          1    1    1    2  501    0 -0.18265176895E+03 -0.80321770878E+02 -0.83703359333E+03  0.86048735723E+03  0.00000000000E+00 0.  1.
<scales pt_clust_3="100.62957" pt_clust_4="205.03966" pt_clust_5="32.18857" pt_clust_6="14000.00000"></scales>
<clustering>
<clus scale="   32.189">  1  5  2 -1</clus>
<clus scale="  100.630">  2  3  1 -1</clus>
<clus scale="  205.040">  1  4  2 -1</clus>
<clus scale="   32.189">  1  3  2 -1</clus>
</clustering>
</event>
<event>
 6    0  0.3584505E+002  0.1016978E+03  0.7546771E-02  0.1276766E+00
         21   -1    0    0  503  502  0.00000000000E+00  0.00000000000E+00  0.61848775504E+03  0.61848775504E+03  0.00000000000E+00 0. -1.
          2   -1    0    0  504    0 -0.00000000000E+00 -0.00000000000E+00 -0.41162551886E+03  0.41162551886E+03  0.00000000000E+00 0. -1.
         21    1    1    2  503  505 -0.25025060183E+02  0.22815020499E+02  0.15782373244E+03  0.16141595125E+03  0.00000000000E+00 0. -1.
         21    1    1    2  504  502  0.96284302758E+02  0.56263865389E+02  0.41930067128E+03  0.43387710523E+03  0.00000000000E+00 0. -1.
         21    1    1    2  505  501 -0.52669161614E+02 -0.55265962699E+02 -0.14414666568E+02  0.77692662655E+02  0.00000000000E+00 0.  1.
          2    1    1    2  501    0 -0.18590080961E+02 -0.23812923189E+02 -0.35584750098E+03  0.35712755477E+03  0.00000000000E+00 0. -1.
<scales pt_clust_3="33.80326" pt_clust_4="101.69781" pt_clust_5="14000.00000" pt_clust_6="30.21004"></scales>
<clustering>
<clus scale="   30.210">  2  6  1 -1</clus>
<clus scale="   33.803">  1  3  2 -1</clus>
<clus scale="  101.698">  1  4  2 -1</clus>
<clus scale="   33.803">  1  3  2 -1</clus>
</clustering>
</event>
<event>
 6    0  0.3584505E+002  0.7071145E+02  0.7546771E-02  0.1357690E+00
         21   -1    0    0  503  502  0.00000000000E+00  0.00000000000E+00  0.14853328079E+04  0.14853328079E+04  0.00000000000E+00 0. -1.
          2   -1    0    0  505    0 -0.00000000000E+00 -0.00000000000E+00 -0.23224599803E+04  0.23224599803E+04  0.00000000000E+00 0.  1.
         21    1    1    2  503  504  0.38705653725E+02 -0.43295904146E+02  0.83683896769E+03  0.83885166793E+03  0.00000000000E+00 0. -1.
         21    1    1    2  504  501  0.35421522857E+02  0.13822968753E+03  0.60506475531E+03  0.62166348527E+03  0.00000000000E+00 0. -1.
         21    1    1    2  505  502 -0.45454676559E+02 -0.30364364121E+02  0.11331513701E+02  0.55825849141E+02  0.00000000000E+00 0. -1.
          2    1    1    2  501    0 -0.28672500024E+02 -0.64569419267E+02 -0.22903624091E+04  0.22914517859E+04  0.00000000000E+00 0.  1.
<scales pt_clust_3="62.08570" pt_clust_4="70.71145" pt_clust_5="54.66372" pt_clust_6="14000.00000"></scales>
<clustering>
<clus scale="   54.664">  1  5  2 -1</clus>
<clus scale="   62.086">  1  3  2 -1</clus>
<clus scale="   70.711">  1  4  2 -1</clus>
<clus scale="   54.664">  1  3  2 -1</clus>
</clustering>
</event>
<event>
 6    0  0.3584505E+002  0.2072968E+03  0.7546771E-02  0.1143725E+00
         21   -1    0    0  505  502  0.00000000000E+00  0.00000000000E+00  0.25808455561E+03  0.25808455561E+03  0.00000000000E+00 0. -1.
         -2   -1    0    0    0  501 -0.00000000000E+00 -0.00000000000E+00 -0.67066709696E+03  0.67066709696E+03  0.00000000000E+00 0.  1.
         21    1    1    2  503  501 -0.58435008212E+02 -0.21918142480E+03 -0.10136812007E+03  0.24845652120E+03  0.00000000000E+00 0. -1.
         21    1    1    2  504  503 -0.13027200938E+03  0.86316237807E+02 -0.27616364557E+02  0.15869452709E+03  0.00000000000E+00 0. -1.
         21    1    1    2  505  504  0.71203239594E+02 -0.33678332650E+02  0.75232623448E+02  0.10892235331E+03  0.00000000000E+00 0. -1.
         -2    1    1    2    0  502  0.11750377800E+03  0.16654351964E+03 -0.35883068018E+03  0.41267825096E+03  0.00000000000E+00 0.  1.
<scales pt_clust_3="207.29677" pt_clust_4="125.57408" pt_clust_5="78.76631" pt_clust_6="14000.00000"></scales>
<clustering>
<clus scale="   78.766">  1  5  2 -1</clus>
<clus scale="  125.574">  1  4  2 -1</clus>
<clus scale="  207.297">  1  3  2 -1</clus>
<clus scale="   78.766">  1  3  2 -1</clus>
</clustering>
</event>
<event>
 6    0  0.3584505E+002  0.9370229E+02  0.7546771E-02  0.1294126E+00
         21   -1    0    0  504  502  0.00000000000E+00  0.00000000000E+00  0.29452556827E+03  0.29452556827E+03  0.00000000000E+00 0.  1.
          1   -1    0    0  505    0 -0.00000000000E+00 -0.00000000000E+00 -0.39931640502E+03  0.39931640502E+03  0.00000000000E+00 0.  1.
         21    1    1    2  503  502 -0.35220660124E+02  0.31521258034E+02  0.20378580930E+03  0.20919546047E+03  0.00000000000E+00 0.  1.
         21    1    1    2  504  501  0.20850741451E+02  0.72901791392E+02 -0.13055486890E+02  0.76940693688E+02  0.00000000000E+00 0. -1.
         21    1    1    2  505  503 -0.47632232967E+02 -0.20016492379E+02  0.34060549027E+02  0.61883847526E+02  0.00000000000E+00 0.  1.
          1    1    1    2  501    0  0.62002151640E+02 -0.84406557046E+02 -0.32958170819E+03  0.34582197161E+03  0.00000000000E+00 0.  1.
<scales pt_clust_3="47.26610" pt_clust_4="93.70229" pt_clust_5="66.88507" pt_clust_6="14000.00000"></scales>
<clustering>
<clus scale="   47.266">  1  3  2 -1</clus>
<clus scale="   66.885">  1  5  2 -1</clus>
<clus scale="   93.702">  1  4  2 -1</clus>
<clus scale="   47.266">  1  3  2 -1</clus>
</clustering>
</event>
<event>
 6    0  0.3584505E+002  0.1447482E+03  0.7546771E-02  0.1207079E+00
         21   -1    0    0  504  502  0.00000000000E+00  0.00000000000E+00  0.15778258502E+03  0.15778258502E+03  0.00000000000E+00 0. -1.
          1   -1    0    0  503    0 -0.00000000000E+00 -0.00000000000E+00 -0.19829372241E+04  0.19829372241E+04  0.00000000000E+00 0.  1.
         21    1    1    2  503  505 -0.41143477323E+02  0.14723435915E+03  0.30353135931E+02  0.15585908732E+03  0.00000000000E+00 0. -1.
         21    1    1    2  504  501  0.34846817813E+02 -0.55595861122E+02 -0.67925355137E+02  0.94440745212E+02  0.00000000000E+00 0.  1.
         21    1    1    2  505  502 -0.25413806295E+02  0.36789633815E+02  0.38831423882E+02  0.59221771227E+02  0.00000000000E+00 0. -1.
          1    1    1    2  501    0  0.31710465804E+02 -0.12842813184E+03 -0.18264138438E+04  0.18311982054E+04  0.00000000000E+00 0.  1.
<scales pt_clust_3="30.49084" pt_clust_4="65.61403" pt_clust_5="30.49084" pt_clust_6="133.31716"></scales>
<clustering>
<clus scale="   30.491">  3  5 -1 -1</clus>
<clus scale="   65.614">  1  4  2 -1</clus>
<clus scale="  133.317">  2  6  1 -1</clus>
<clus scale="   65.614">  1  3  2 -1</clus>
</clustering>
</event>
<event>
 6    0  0.3584505E+002  0.7999346E+02  0.7546771E-02  0.1329070E+00
          2   -1    0    0  504    0 -0.00000000000E+00  0.00000000000E+00  0.68132468942E+03  0.68132468942E+03  0.00000000000E+00 0. -1.
         21   -1    0    0  503  502  0.00000000000E+00 -0.00000000000E+00 -0.11553875627E+03  0.11553875627E+03  0.00000000000E+00 0. -1.
         21    1    1    2  503  505  0.28421674512E+02  0.21824843830E+02 -0.44152682981E+01  0.36105539525E+02  0.00000000000E+00 0. -1.
         21    1    1    2  504  502  0.52997895416E+02 -0.10446621639E+02 -0.72966244394E+02  0.90785360291E+02  0.00000000000E+00 0. -1.
         21    1    1    2  505  501 -0.50903604667E+02 -0.87436823924E+02  0.28130792902E+03  0.29894903592E+03  0.00000000000E+00 0. -1.
          2    1    1    2  501    0 -0.30515965261E+02  0.76058601732E+02  0.36185951682E+03  0.37102350997E+03  0.00000000000E+00 0. -1.
<scales pt_clust_3="35.83456" pt_clust_4="77.86607" pt_clust_5="14000.00000" pt_clust_6="79.99346"></scales>
<clustering>
<clus scale="   35.835">  2  3  1 -1</clus>
<clus scale="   77.866">  2  4  1 -1</clus>
<clus scale="   79.993">  1  6  2 -1</clus>
<clus scale="   35.835">  2  3  1 -1</clus>
</clustering>
</event>
<event>
 6    0  0.3584505E+002  0.1545695E+03  0.7546771E-02  0.1194968E+00
          2   -1    0    0  505    0 -0.00000000000E+00  0.00000000000E+00  0.22280631947E+04  0.22280631947E+04  0.00000000000E+00 0. -1.
         21   -1    0    0  503  502  0.00000000000E+00 -0.00000000000E+00 -0.14051527335E+03  0.14051527335E+03  0.00000000000E+00 0.  1.
         21    1    1    2  503  501  0.56621921989E+02  0.11839704468E+03  0.95418481487E+03  0.96316798284E+03  0.00000000000E+00 0. -1.
         21    1    1    2  504  502 -0.26625808344E+02 -0.69907417312E+02  0.19981711137E+02  0.77428996152E+02  0.00000000000E+00 0.  1.
         21    1    1    2  505  504 -0.75101762300E+02 -0.55442627159E+02 -0.86480550768E+02  0.12725189691E+03  0.00000000000E+00 0.  1.
          2    1    1    2  501    0  0.45105648654E+02  0.69529997893E+01  0.11998619461E+04  0.12007295922E+04  0.00000000000E+00 0. -1.
<scales pt_clust_3="14000.00000" pt_clust_4="73.76152" pt_clust_5="154.56945" pt_clust_6="45.63840"></scales>
<clustering>
<clus scale="   45.638">  1  6  2 -1</clus>
<clus scale="   73.762">  2  4  1 -1</clus>
<clus scale="  154.569">  2  5  1 -1</clus>
<clus scale="   73.762">  2  3  1 -1</clus>
</clustering>
</event>
<event>
 6    0  0.3584505E+002  0.1223358E+03  0.7546771E-02  0.1239293E+00
         21   -1    0    0  503  502  0.00000000000E+00  0.00000000000E+00  0.11964139615E+03  0.11964139615E+03  0.00000000000E+00 0. -1.
         -2   -1    0    0    0  501 -0.00000000000E+00 -0.00000000000E+00 -0.65258674819E+03  0.65258674819E+03  0.00000000000E+00 0.  1.
         21    1    1    2  503  501  0.48673388081E+00 -0.39996453080E+02  0.35826619672E+02  0.53698229449E+02  0.00000000000E+00 0.  1.
         21    1    1    2  504  505  0.52179470106E+02  0.34045342564E+02 -0.27273253275E+03  0.27975849741E+03  0.00000000000E+00 0.  1.
         21    1    1    2  505  502 -0.11297668925E+03  0.77200754749E+01  0.21745620362E+02  0.11530916653E+03  0.00000000000E+00 0. -1.
         -2    1    1    2    0  504  0.60310485268E+02 -0.17689649589E+01 -0.31778505932E+03  0.32346225096E+03  0.00000000000E+00 0.  1.
<scales pt_clust_3="39.99941" pt_clust_4="37.71095" pt_clust_5="116.17895" pt_clust_6="37.71095"></scales>
<clustering>
<clus scale="   37.711">  4  6 -1 -1</clus>
<clus scale="   39.999">  1  3  2 -1</clus>
<clus scale="  116.179">  1  5  2 -1</clus>
<clus scale="   39.999">  1  3  2 -1</clus>
</clustering>
</event>
<event>
 6    0  0.3584505E+002  0.1297309E+03  0.7546771E-02  0.1227856E+00
          2   -1    0    0  503    0 -0.00000000000E+00  0.00000000000E+00  0.10396815513E+04  0.10396815513E+04  0.00000000000E+00 0. -1.
         21   -1    0    0  505  502  0.00000000000E+00 -0.00000000000E+00 -0.20492204440E+03  0.20492204440E+03  0.00000000000E+00 0. -1.
         21    1    1    2  503  504  0.63602273544E+02 -0.25384506834E+02  0.80430775783E+02  0.10563489992E+03  0.00000000000E+00 0. -1.
         21    1    1    2  504  502  0.14530410181E+02  0.43129265534E+02  0.27444501949E+02  0.53145715281E+02  0.00000000000E+00 0. -1.
         21    1    1    2  505  501 -0.12050700040E+03  0.40883600891E+02 -0.15524386279E+03  0.20073381105E+03  0.00000000000E+00 0. -1.
          2    1    1    2  501    0  0.42374316676E+02 -0.58628359591E+02  0.88212809197E+03  0.88508916947E+03  0.00000000000E+00 0. -1.
<scales pt_clust_3="68.38235" pt_clust_4="45.51117" pt_clust_5="129.73091" pt_clust_6="14000.00000"></scales>
<clustering>
<clus scale="   45.511">  2  4  1 -1</clus>
<clus scale="   68.382">  1  3  2 -1</clus>
<clus scale="  129.731">  2  5  1 -1</clus>
<clus scale="   45.511">  2  3  1 -1</clus>
</clustering>
</event>
<event>
 6    0  0.3584505E+002  0.7513489E+02  0.7546771E-02  0.1343454E+00
         21   -1    0    0  505  502  0.00000000000E+00  0.00000000000E+00  0.78787793062E+02  0.78787793062E+02  0.00000000000E+00 0.  1.
          2   -1    0    0  504    0 -0.00000000000E+00 -0.00000000000E+00 -0.26129507811E+04  0.26129507811E+04  0.00000000000E+00 0. -1.
         21    1    1    2  503  502  0.70199991692E+01 -0.41274165016E+02  0.62687121891E+02  0.75382440509E+02  0.00000000000E+00 0.  1.
         21    1    1    2  504  503  0.31511201504E+02 -0.80303728484E+02 -0.26279346307E+03  0.27659003753E+03  0.00000000000E+00 0.  1.
         21    1    1    2  505  501 -0.38017036173E+00  0.58047328854E+02 -0.38988560650E+03  0.39418323540E+03  0.00000000000E+00 0.  1.
          2    1    1    2  501    0 -0.38151030312E+02  0.63530564646E+02 -0.19441710404E+04  0.19455828608E+04  0.00000000000E+00 0. -1.
<scales pt_clust_3="41.86690" pt_clust_4="14000.00000" pt_clust_5="48.96757" pt_clust_6="75.13489"></scales>
<clustering>
<clus scale="   41.867">  1  3  2 -1</clus>
<clus scale="   48.968">  1  5  2 -1</clus>
<clus scale="   75.135">  2  6  1 -1</clus>
<clus scale="   41.867">  1  3  2 -1</clus>
</clustering>
</event>
<event>
 6    0  0.3584505E+002  0.1292344E+03  0.7546771E-02  0.1228596E+00
         -2   -1    0    0    0  501 -0.00000000000E+00  0.00000000000E+00  0.33524573640E+03  0.33524573640E+03  0.00000000000E+00 0. -1.
         21   -1    0    0  504  502  0.00000000000E+00 -0.00000000000E+00 -0.22640296236E+03  0.22640296236E+03  0.00000000000E+00 0.  1.
         21    1    1    2  503  505  0.71437816974E+02  0.28357791041E+02 -0.35046023312E+02  0.84473367145E+02  0.00000000000E+00 0.  1.
         21    1    1    2  504  501 -0.89239947054E+02 -0.10045549104E+03 -0.83106577007E+02  0.15799296495E+03  0.00000000000E+00 0.  1.
         21    1    1    2  505  502  0.10223608365E+02  0.36438842765E+02 -0.36854582305E+02  0.52825861725E+02  0.00000000000E+00 0.  1.
         -2    1    1    2    0  503  0.75785217147E+01  0.35658857235E+02  0.26384995667E+03  0.26635650494E+03  0.00000000000E+00 0. -1.
<scales pt_clust_3="37.36064" pt_clust_4="117.84456" pt_clust_5="37.36064" pt_clust_6="36.45529"></scales>
<clustering>
<clus scale="   36.455">  1  6  2 -1</clus>
<clus scale="   37.361">  3  5 -1 -1</clus>
<clus scale="  117.845">  1  4  2 -1</clus>
<clus scale="  129.234">  2  3  1 -1</clus>
</clustering>
</event>
<event>
 6    0  0.3584505E+002  0.2153996E+03  0.7546771E-02  0.1137360E+00
         21   -1    0    0  501  502  0.00000000000E+00  0.00000000000E+00  0.23049997247E+03  0.23049997247E+03  0.00000000000E+00 0.  1.
          2   -1    0    0  504    0 -0.00000000000E+00 -0.00000000000E+00 -0.51688805384E+03  0.51688805384E+03  0.00000000000E+00 0.  1.
         21    1    1    2  503  505  0.20310252035E+02  0.12074837801E+03 -0.10059607001E+02  0.12285712362E+03  0.00000000000E+00 0.  1.
         21    1    1    2  504  503 -0.51583893582E+02  0.50579233224E+02 -0.33154870059E+02  0.79488378517E+02  0.00000000000E+00 0.  1.
         21    1    1    2  505  502 -0.61005418689E+02 -0.20647383983E+03  0.62198420619E+02  0.22410209988E+03  0.00000000000E+00 0.  1.
          2    1    1    2  501    0  0.92279060235E+02  0.35146228593E+02 -0.30537202492E+03  0.32094042430E+03  0.00000000000E+00 0.  1.
<scales pt_clust_3="71.83080" pt_clust_4="71.83080" pt_clust_5="194.04113" pt_clust_6="98.74554"></scales>
<clustering>
<clus scale="   71.831">  3  4 -1 -1</clus>
<clus scale="   98.746">  2  6  1 -1</clus>
<clus scale="  194.041">  1  5  2 -1</clus>
<clus scale="  194.041">  1  3  2 -1</clus>
</clustering>
</event>
<event>
 6    0  0.3584505E+002  0.1061510E+03  0.7546771E-02  0.1267868E+00
         -2   -1    0    0    0  501 -0.00000000000E+00  0.00000000000E+00  0.14475330018E+04  0.14475330018E+04  0.00000000000E+00 0.  1.
         21   -1    0    0  505  502  0.00000000000E+00 -0.00000000000E+00 -0.13363015014E+03  0.13363015014E+03  0.00000000000E+00 0.  1.
         21    1    1    2  503  501 -0.39966385759E+02  0.10288371962E+03  0.23893971090E+03  0.26320060258E+03  0.00000000000E+00 0.  1.
         21    1    1    2  504  503  0.62277899168E+02 -0.72524307136E+02  0.98240025955E+02  0.13707448541E+03  0.00000000000E+00 0. -1.
         21    1    1    2  505  504 -0.28649118015E+02 -0.61655590673E+02 -0.90497408838E+02  0.11318995022E+03  0.00000000000E+00 0.  1.
         -2    1    1    2    0  502  0.63376046064E+01  0.31296178193E+02  0.10672205236E+04  0.10676981137E+04  0.00000000000E+00 0.  1.
<scales pt_clust_3="106.15103" pt_clust_4="14000.00000" pt_clust_5="67.06001" pt_clust_6="31.93143"></scales>
<clustering>
<clus scale="   31.931">  1  6  2 -1</clus>
<clus scale="   67.060">  2  5  1 -1</clus>
<clus scale="  106.151">  1  3  2 -1</clus>
<clus scale="   67.060">  2  3  1 -1</clus>
</clustering>
</event>
<event>
 6    0  0.3584505E+002  0.1402393E+03  0.7546771E-02  0.1213007E+00
         21   -1    0    0  501  502  0.00000000000E+00  0.00000000000E+00  0.25151763517E+03  0.25151763517E+03  0.00000000000E+00 0.  1.
          2   -1    0    0  503    0 -0.00000000000E+00 -0.00000000000E+00 -0.19596930775E+04  0.19596930775E+04  0.00000000000E+00 0. -1.
         21    1    1    2  503  505  0.64341548931E+02 -0.10453502189E+03 -0.15974195455E+04  0.16021287745E+04  0.00000000000E+00 0. -1.
         21    1    1    2  504  502  0.23695641707E+02  0.55947558105E+02  0.80134442005E+02  0.10056411631E+03  0.00000000000E+00 0.  1.
         21    1    1    2  505  504 -0.26010910228E+02  0.73877533299E+02  0.14565141621E+03  0.16537470309E+03  0.00000000000E+00 0.  1.
          2    1    1    2  501    0 -0.62026280409E+02 -0.25290069511E+02 -0.33654175504E+03  0.34314311877E+03  0.00000000000E+00 0. -1.
<scales pt_clust_3="129.54836" pt_clust_4="47.30197" pt_clust_5="47.30197" pt_clust_6="66.98393"></scales>
<clustering>
<clus scale="   47.302">  4  5 -1 -1</clus>
<clus scale="   66.984">  2  6  1 -1</clus>
<clus scale="  129.548">  2  3  1 -1</clus>
<clus scale="  140.239">  1  3  2 -1</clus>
</clustering>
</event>
<event>
 6    0  0.3584505E+002  0.9051917E+02  0.7546771E-02  0.1301599E+00
          1   -1    0    0  502    0 -0.00000000000E+00  0.00000000000E+00  0.30788323118E+04  0.30788323118E+04  0.00000000000E+00 0. -1.
         21   -1    0    0  503  502  0.00000000000E+00 -0.00000000000E+00 -0.32379182023E+03  0.32379182023E+03  0.00000000000E+00 0. -1.
         21    1    1    2  503  504 -0.33266111239E+02 -0.54302798621E+01 -0.24825185245E+03  0.25052964763E+03  0.00000000000E+00 0. -1.
         21    1    1    2  504  505 -0.41531651432E+02 -0.47145930842E+02 -0.49940638847E+02  0.80260103876E+02  0.00000000000E+00 0.  1.
         21    1    1    2  505  501  0.14247304594E+03  0.51933549230E+02  0.64255139565E+03  0.66020296758E+03  0.00000000000E+00 0. -1.
          1    1    1    2  501    0 -0.67675283266E+02  0.64266147374E+00  0.24106815872E+04  0.24116314129E+04  0.00000000000E+00 0. -1.
<scales pt_clust_3="33.70641" pt_clust_4="14000.00000" pt_clust_5="90.51917" pt_clust_6="67.89035"></scales>
<clustering>
<clus scale="   33.706">  2  3  1 -1</clus>
<clus scale="   67.890">  1  6  2 -1</clus>
<clus scale="   90.519">  1  5  2 -1</clus>
<clus scale="   33.706">  2  3  1 -1</clus>
</clustering>
</event>
<event>
 6    0  0.3584505E+002  0.7854257E+02  0.7546771E-02  0.1333239E+00
         -3   -1    0    0    0  501 -0.00000000000E+00  0.00000000000E+00  0.44804038337E+03  0.44804038337E+03  0.00000000000E+00 0. -1.
         21   -1    0    0  503  502  0.00000000000E+00 -0.00000000000E+00 -0.27928363216E+03  0.27928363216E+03  0.00000000000E+00 0.  1.
         21    1    1    2  503  504  0.51520621431E+02 -0.11488480131E+02 -0.71098529983E+02  0.88551457211E+02  0.00000000000E+00 0.  1.
         21    1    1    2  504  501 -0.82708842263E+01  0.12703826328E+03  0.12389691296E+03  0.17764451273E+03  0.00000000000E+00 0. -1.
         21    1    1    2  505  502 -0.39540610124E+02 -0.62603488139E+02 -0.16201471471E+03  0.17813316468E+03  0.00000000000E+00 0.  1.
         -3    1    1    2    0  505 -0.37091270799E+01 -0.52946295014E+02  0.27797308294E+03  0.28299488091E+03  0.00000000000E+00 0. -1.
<scales pt_clust_3="52.78598" pt_clust_4="14000.00000" pt_clust_5="78.54257" pt_clust_6="53.17906"></scales>
<clustering>
<clus scale="   52.786">  2  3  1 -1</clus>
<clus scale="   53.179">  1  6  2 -1</clus>
<clus scale="   78.543">  2  5  1 -1</clus>
<clus scale="   52.786">  2  3  1 -1</clus>
</clustering>
</event>
<event>
 6    0  0.3584505E+002  0.1089846E+03  0.7546771E-02  0.1262462E+00
         21   -1    0    0  503  502  0.00000000000E+00  0.00000000000E+00  0.24664421340E+03  0.24664421340E+03  0.00000000000E+00 0.  1.
         -2   -1    0    0    0  501 -0.00000000000E+00 -0.00000000000E+00 -0.24656538551E+03  0.24656538551E+03  0.00000000000E+00 0. -1.
         21    1    1    2  503  505  0.42572384539E+02  0.85481902646E+02 -0.14603917189E+02  0.96606614693E+02  0.00000000000E+00 0. -1.
         21    1    1    2  504  502  0.42236253408E+02 -0.34208338112E+02  0.12535509919E+03  0.13663093497E+03  0.00000000000E+00 0.  1.
         21    1    1    2  505  501 -0.63846195128E+02 -0.10509823575E+03  0.12820442615E+02  0.12363793729E+03  0.00000000000E+00 0. -1.
         -2    1    1    2    0  504 -0.20962442820E+02  0.53824671214E+02 -0.12349279672E+03  0.13633411196E+03  0.00000000000E+00 0. -1.
<scales pt_clust_3="108.98463" pt_clust_4="54.35174" pt_clust_5="14000.00000" pt_clust_6="55.16225"></scales>
<clustering>
<clus scale="   54.352">  1  4  2 -1</clus>
<clus scale="   55.162">  2  6  1 -1</clus>
<clus scale="  108.985">  1  3  2 -1</clus>
<clus scale="   54.352">  1  3  2 -1</clus>
</clustering>
</event>
<event>
 6    0  0.3584505E+002  0.9704123E+02  0.7546771E-02  0.1286644E+00
         21   -1    0    0  505  502  0.00000000000E+00  0.00000000000E+00  0.78646616528E+02  0.78646616528E+02  0.00000000000E+00 0. -1.
         -3   -1    0    0    0  501 -0.00000000000E+00 -0.00000000000E+00 -0.73447679766E+03  0.73447679766E+03  0.00000000000E+00 0.  1.
         21    1    1    2  503  504  0.61537053097E+02  0.35506055024E+02 -0.40640792136E+02  0.81848413746E+02  0.00000000000E+00 0. -1.
         21    1    1    2  504  502  0.31079390007E+02  0.17931408088E+02  0.32150974652E+02  0.48178304768E+02  0.00000000000E+00 0. -1.
         21    1    1    2  505  501 -0.84625049313E+02 -0.97295278402E+02 -0.23247329112E+03  0.26584130840E+03  0.00000000000E+00 0.  1.
         -3    1    1    2    0  503 -0.79913937914E+01  0.43857815291E+02 -0.41486707254E+03  0.41725538728E+03  0.00000000000E+00 0.  1.
<scales pt_clust_3="97.04123" pt_clust_4="35.88125" pt_clust_5="14000.00000" pt_clust_6="44.96670"></scales>
<clustering>
<clus scale="   35.881">  1  4  2 -1</clus>
<clus scale="   44.967">  2  6  1 -1</clus>
<clus scale="   97.041">  1  3  2 -1</clus>
<clus scale="   35.881">  1  3  2 -1</clus>
</clustering>
</event>
<event>
 6    0  0.3584505E+002  0.6923183E+02  0.7546771E-02  0.1362725E+00
          4   -1    0    0  505    0 -0.00000000000E+00  0.00000000000E+00  0.15393042242E+03  0.15393042242E+03  0.00000000000E+00 0. -1.
         21   -1    0    0  504  502  0.00000000000E+00 -0.00000000000E+00 -0.91964745189E+03  0.91964745189E+03  0.00000000000E+00 0. -1.
         21    1    1    2  503  501  0.16279122574E+02 -0.83190845639E+02 -0.18946781868E+03  0.20756632903E+03  0.00000000000E+00 0. -1.
         21    1    1    2  504  503  0.34925535800E+01  0.51103906789E+02 -0.43851127282E+03  0.44149285794E+03  0.00000000000E+00 0. -1.
         21    1    1    2  505  502  0.48012649799E+02  0.15417264421E+02 -0.27015947099E+03  0.27482548344E+03  0.00000000000E+00 0. -1.
          4    1    1    2  501    0 -0.67784325954E+02  0.16669674429E+02  0.13242153302E+03  0.14969320391E+03  0.00000000000E+00 0. -1.
<scales pt_clust_3="68.63882" pt_clust_4="14000.00000" pt_clust_5="50.42724" pt_clust_6="69.23183"></scales>
<clustering>
<clus scale="   50.427">  2  5  1 -1</clus>
<clus scale="   69.232">  1  6  2 -1</clus>
<clus scale="   68.639">  1  3  2 -1</clus>
<clus scale="   50.427">  2  3  1 -1</clus>
</clustering>
</event>
<event>
 6    0  0.3584505E+002  0.1207490E+03  0.7546771E-02  0.1241867E+00
          2   -1    0    0  505    0 -0.00000000000E+00  0.00000000000E+00  0.12076011507E+04  0.12076011507E+04  0.00000000000E+00 0. -1.
         21   -1    0    0  503  502  0.00000000000E+00 -0.00000000000E+00 -0.47807597822E+02  0.47807597822E+02  0.00000000000E+00 0.  1.
         21    1    1    2  503  501  0.32436946530E+02 -0.80905495093E+01 -0.77304553859E+01  0.34312861030E+02  0.00000000000E+00 0.  1.
         21    1    1    2  504  502  0.67105581499E+02  0.90144754013E+00  0.11768965263E+03  0.13547998380E+03  0.00000000000E+00 0.  1.
         21    1    1    2  505  504  0.26041746213E+02  0.81600128055E+02  0.13983865775E+03  0.16398659593E+03  0.00000000000E+00 0.  1.
          2    1    1    2  501    0 -0.12558427424E+03 -0.74411026086E+02  0.90999569791E+03  0.92162930778E+03  0.00000000000E+00 0. -1.
<scales pt_clust_3="33.43071" pt_clust_4="77.89781" pt_clust_5="14000.00000" pt_clust_6="120.74896"></scales>
<clustering>
<clus scale="   33.431">  2  3  1 -1</clus>
<clus scale="   77.898">  2  4  1 -1</clus>
<clus scale="  120.749">  1  6  2 -1</clus>
<clus scale="   33.431">  2  3  1 -1</clus>
</clustering>
</event>
<event>
 6    0  0.3584505E+002  0.1348433E+03  0.7546771E-02  0.1220441E+00
          2   -1    0    0  505    0 -0.00000000000E+00  0.00000000000E+00  0.86851898414E+03  0.86851898414E+03  0.00000000000E+00 0. -1.
         21   -1    0    0  504  502  0.00000000000E+00 -0.00000000000E+00 -0.28102377967E+03  0.28102377967E+03  0.00000000000E+00 0. -1.
         21    1    1    2  503  502  0.10164536624E+03 -0.20028701745E+02 -0.13253964175E+02  0.10444422884E+03  0.00000000000E+00 0. -1.
         21    1    1    2  504  501 -0.15552476758E+03 -0.46377189320E+02 -0.17679529073E+03  0.23999035781E+03  0.00000000000E+00 0. -1.
         21    1    1    2  505  503  0.54618252410E+02  0.11364489922E+03  0.30258589265E+03  0.32780564218E+03  0.00000000000E+00 0. -1.
          2    1    1    2  501    0 -0.73885107704E+00 -0.47239008158E+02  0.47495856672E+03  0.47730253497E+03  0.00000000000E+00 0. -1.
<scales pt_clust_3="14000.00000" pt_clust_4="134.84334" pt_clust_5="93.00006" pt_clust_6="47.24479"></scales>
<clustering>
<clus scale="   47.245">  1  6  2 -1</clus>
<clus scale="   93.000">  1  5  2 -1</clus>
<clus scale="  134.843">  2  4  1 -1</clus>
<clus scale="  134.843">  2  3  1 -1</clus>
</clustering>
</event>
<event>
 6    0  0.3584505E+002  0.1090249E+03  0.7546771E-02  0.1262386E+00
          2   -1    0    0  505    0 -0.00000000000E+00  0.00000000000E+00  0.10451594462E+04  0.10451594462E+04  0.00000000000E+00 0. -1.
         21   -1    0    0  503  502  0.00000000000E+00 -0.00000000000E+00 -0.23192054821E+03  0.23192054821E+03  0.00000000000E+00 0.  1.
         21    1    1    2  503  504 -0.14812895377E+03 -0.88261303343E+02  0.10033368579E+02  0.17272206894E+03  0.00000000000E+00 0.  1.
         21    1    1    2  504  501  0.62120978310E+02  0.41395407935E+02  0.18332949003E+03  0.19794518852E+03  0.00000000000E+00 0.  1.
         21    1    1    2  505  502  0.63352519600E+02  0.15425908614E+02 -0.13532695710E+03  0.15021613001E+03  0.00000000000E+00 0.  1.
          2    1    1    2  501    0  0.22655455865E+02  0.31439986794E+02  0.75520299649E+03  0.75619660695E+03  0.00000000000E+00 0. -1.
<scales pt_clust_3="14000.00000" pt_clust_4="109.02492" pt_clust_5="65.96414" pt_clust_6="38.75232"></scales>
<clustering>
<clus scale="   38.752">  1  6  2 -1</clus>
<clus scale="   65.964">  2  5  1 -1</clus>
<clus scale="  109.025">  1  4  2 -1</clus>
<clus scale="   65.964">  2  3  1 -1</clus>
</clustering>
</event>
<event>
 6    0  0.3584505E+002  0.2028653E+03  0.7546771E-02  0.1147344E+00
         21   -1    0    0  501  502  0.00000000000E+00  0.00000000000E+00  0.12139163076E+03  0.12139163076E+03  0.00000000000E+00 0.  1.
          2   -1    0    0  505    0 -0.00000000000E+00 -0.00000000000E+00 -0.12636317850E+04  0.12636317850E+04  0.00000000000E+00 0.  1.
         21    1    1    2  503  502 -0.35009566491E+02  0.84041454330E+02  0.43706026473E+01  0.91146793467E+02  0.00000000000E+00 0.  1.
         21    1    1    2  504  503 -0.50233288091E+02 -0.69272979968E+02 -0.30007883210E+02  0.90678564395E+02  0.00000000000E+00 0.  1.
         21    1    1    2  505  504 -0.10917289361E+03 -0.36073395623E+02 -0.62031934331E+02  0.13064444668E+03  0.00000000000E+00 0.  1.
          2    1    1    2  501    0  0.19441574819E+03  0.21304921261E+02 -0.10545709394E+04  0.10725536113E+04  0.00000000000E+00 0.  1.
<scales pt_clust_3="91.04195" pt_clust_4="54.59059" pt_clust_5="54.59059" pt_clust_6="192.74331"></scales>
<clustering>
<clus scale="   54.591">  4  5 -1 -1</clus>
<clus scale="   91.042">  1  3  2 -1</clus>
<clus scale="  192.743">  2  6  1 -1</clus>
<clus scale="   91.042">  1  3  2 -1</clus>
</clustering>
</event>
<event>
 6    0  0.3584505E+002  0.1146188E+03  0.7546771E-02  0.1252248E+00
         21   -1    0    0  504  502  0.00000000000E+00  0.00000000000E+00  0.76863960107E+03  0.76863960107E+03  0.00000000000E+00 0.  1.
          2   -1    0    0  503    0 -0.00000000000E+00 -0.00000000000E+00 -0.65508050785E+03  0.65508050785E+03  0.00000000000E+00 0. -1.
         21    1    1    2  503  502  0.23819217974E+02  0.47811639000E+02  0.10788290885E+03  0.12038284758E+03  0.00000000000E+00 0.  1.
         21    1    1    2  504  505 -0.68549295498E+02  0.60878796345E+02  0.64069769963E+03  0.64722389949E+03  0.00000000000E+00 0.  1.
         21    1    1    2  505  501  0.64040406234E+02 -0.55467251893E+02 -0.19696551978E+03  0.21441363214E+03  0.00000000000E+00 0. -1.
          2    1    1    2  501    0 -0.19310328710E+02 -0.53223183451E+02 -0.43805599548E+03  0.44169972971E+03  0.00000000000E+00 0. -1.
<scales pt_clust_3="53.41636" pt_clust_4="114.61876" pt_clust_5="14000.00000" pt_clust_6="56.47027"></scales>
<clustering>
<clus scale="   53.416">  1  3  2 -1</clus>
<clus scale="   56.470">  2  6  1 -1</clus>
<clus scale="  114.619">  1  4  2 -1</clus>
<clus scale="   53.416">  1  3  2 -1</clus>
</clustering>
</event>
<event>
 6    0  0.3584505E+002  0.7017459E+02  0.7546771E-02  0.1359500E+00
         21   -1    0    0  505  502  0.00000000000E+00  0.00000000000E+00  0.10738977116E+03  0.10738977116E+03  0.00000000000E+00 0.  1.
          2   -1    0    0  504    0 -0.00000000000E+00 -0.00000000000E+00 -0.81657560306E+03  0.81657560306E+03  0.00000000000E+00 0.  1.
         21    1    1    2  503  502 -0.54414912086E+02  0.26747877918E+01 -0.24132668194E+02  0.59586263696E+02  0.00000000000E+00 0.  1.
         21    1    1    2  504  503 -0.40613401977E+02 -0.94141648449E+01 -0.11803459612E+03  0.12518083240E+03  0.00000000000E+00 0.  1.
         21    1    1    2  505  501  0.12169089231E+03 -0.25665044392E+02  0.40068112100E+02  0.13066300694E+03  0.00000000000E+00 0.  1.
          2    1    1    2  501    0 -0.26662578249E+02  0.32404421446E+02 -0.60708667969E+03  0.60853527118E+03  0.00000000000E+00 0.  1.
<scales pt_clust_3="56.90020" pt_clust_4="41.69023" pt_clust_5="14000.00000" pt_clust_6="70.17459"></scales>
<clustering>
<clus scale="   41.690">  2  4  1 -1</clus>
<clus scale="   56.900">  1  3  2 -1</clus>
<clus scale="   70.175">  2  6  1 -1</clus>
<clus scale="   56.900">  1  3  2 -1</clus>
</clustering>
</event>
<event>
 6    0  0.3584505E+002  0.1799466E+03  0.7546771E-02  0.1167855E+00
          1   -1    0    0  504    0 -0.00000000000E+00  0.00000000000E+00  0.82652665662E+03  0.82652665662E+03  0.00000000000E+00 0.  1.
         21   -1    0    0  505  502  0.00000000000E+00 -0.00000000000E+00 -0.33776470660E+03  0.33776470660E+03  0.00000000000E+00 0.  1.
         21    1    1    2  503  502  0.28925890471E+02  0.21804732743E+02 -0.24897554739E+02  0.43954996776E+02  0.00000000000E+00 0. -1.
         21    1    1    2  504  503 -0.13329623283E+02 -0.26730463901E+03  0.19516296958E+03  0.33123712593E+03  0.00000000000E+00 0.  1.
         21    1    1    2  505  501 -0.38515250126E+02  0.82956268442E+02 -0.21354666213E+03  0.23230872535E+03  0.00000000000E+00 0.  1.
          1    1    1    2  501    0  0.22918982938E+02  0.16254363783E+03  0.53204319731E+03  0.55679051517E+03  0.00000000000E+00 0.  1.
<scales pt_clust_3="36.22366" pt_clust_4="14000.00000" pt_clust_5="100.47400" pt_clust_6="179.94655"></scales>
<clustering>
<clus scale="   36.224">  2  3  1 -1</clus>
<clus scale="  100.474">  2  5  1 -1</clus>
<clus scale="  179.947">  1  6  2 -1</clus>
<clus scale="   36.224">  2  3  1 -1</clus>
</clustering>
</event>
<event>
 6    0  0.3584505E+002  0.2023557E+03  0.7546771E-02  0.1147767E+00
         -4   -1    0    0    0  501 -0.00000000000E+00  0.00000000000E+00  0.52423359140E+03  0.52423359140E+03  0.00000000000E+00 0. -1.
         21   -1    0    0  505  502  0.00000000000E+00 -0.00000000000E+00 -0.21956990159E+03  0.21956990159E+03  0.00000000000E+00 0.  1.
         21    1    1    2  503  502  0.10457233836E+03 -0.13903644820E+03  0.17956371342E+03  0.25001926937E+03  0.00000000000E+00 0.  1.
         21    1    1    2  504  501 -0.61274541627E+02  0.11198790733E+02 -0.84406614011E+01  0.62858787217E+02  0.00000000000E+00 0.  1.
         21    1    1    2  505  504 -0.10031218829E+03  0.94275215028E+02 -0.11147442077E+03  0.17713525277E+03  0.00000000000E+00 0.  1.
         -4    1    1    2    0  503  0.57014391556E+02  0.33562442443E+02  0.24501505856E+03  0.25379018363E+03  0.00000000000E+00 0. -1.
<scales pt_clust_3="186.99030" pt_clust_4="52.02877" pt_clust_5="52.02877" pt_clust_6="66.15949"></scales>
<clustering>
<clus scale="   52.029">  4  5 -1 -1</clus>
<clus scale="   66.159">  1  6  2 -1</clus>
<clus scale="  186.990">  1  3  2 -1</clus>
<clus scale="  202.356">  2  3  1 -1</clus>
</clustering>
</event>
<event>
 6    0  0.3584505E+002  0.9730632E+02  0.7546771E-02  0.1286065E+00
         21   -1    0    0  503  502  0.00000000000E+00  0.00000000000E+00  0.23033224161E+03  0.23033224161E+03  0.00000000000E+00 0. -1.
         -2   -1    0    0    0  501 -0.00000000000E+00 -0.00000000000E+00 -0.68161290433E+03  0.68161290433E+03  0.00000000000E+00 0.  1.
         21    1    1    2  503  501  0.20693225008E+02  0.39781432309E+02 -0.51057523518E+01  0.45131370740E+02  0.00000000000E+00 0.  1.
         21    1    1    2  504  502 -0.66548748178E+02  0.70823109660E+02  0.18531799329E+03  0.20925440827E+03  0.00000000000E+00 0. -1.
         21    1    1    2  505  504  0.66005456576E+02 -0.74384916713E+02 -0.19302651825E+03  0.21713837266E+03  0.00000000000E+00 0.  1.
         -2    1    1    2    0  505 -0.20149933407E+02 -0.36219625256E+02 -0.43846638540E+03  0.44042099427E+03  0.00000000000E+00 0.  1.
<scales pt_clust_3="40.54445" pt_clust_4="14000.00000" pt_clust_5="97.30632" pt_clust_6="41.44733"></scales>
<clustering>
<clus scale="   41.447">  2  6  1 -1</clus>
<clus scale="   40.544">  2  3  1 -1</clus>
<clus scale="   97.306">  2  5  1 -1</clus>
<clus scale="   97.306">  1  3  2 -1</clus>
</clustering>
</event>
<event>
 6    0  0.3584505E+002  0.1029018E+03  0.7546771E-02  0.1274310E+00
         -4   -1    0    0    0  501 -0.00000000000E+00  0.00000000000E+00  0.49525227589E+03  0.49525227589E+03  0.00000000000E+00 0.  1.
         21   -1    0    0  504  502  0.00000000000E+00 -0.00000000000E+00 -0.24091372184E+03  0.24091372184E+03  0.00000000000E+00 0.  1.
         21    1    1    2  503  505  0.10008823727E+02  0.85695231007E+02  0.15844154940E+03  0.18040946135E+03  0.00000000000E+00 0.  1.
         21    1    1    2  504  501 -0.53046486131E+02  0.14151983382E+02 -0.49281633367E+02  0.73775929081E+02  0.00000000000E+00 0.  1.
         21    1    1    2  505  502 -0.46676123516E+01 -0.10585880855E+03 -0.14958962757E+03  0.18331647670E+03  0.00000000000E+00 0.  1.
         -4    1    1    2    0  503  0.47705274756E+02  0.60115941656E+01  0.29476826559E+03  0.29866413059E+03  0.00000000000E+00 0.  1.
<scales pt_clust_3="102.90177" pt_clust_4="52.16599" pt_clust_5="14000.00000" pt_clust_6="48.08256"></scales>
<clustering>
<clus scale="   48.083">  1  6  2 -1</clus>
<clus scale="   52.166">  2  4  1 -1</clus>
<clus scale="  102.902">  1  3  2 -1</clus>
<clus scale="   52.166">  2  3  1 -1</clus>
</clustering>
</event>
<event>
 6    0  0.3584505E+002  0.7379142E+02  0.7546771E-02  0.1347655E+00
          2   -1    0    0  505    0 -0.00000000000E+00  0.00000000000E+00  0.69110026747E+03  0.69110026747E+03  0.00000000000E+00 0. -1.
         21   -1    0    0  504  502  0.00000000000E+00 -0.00000000000E+00 -0.15879727772E+04  0.15879727772E+04  0.00000000000E+00 0. -1.
         21    1    1    2  503  502 -0.24117160950E+02 -0.59909225602E+02 -0.62022315719E+03  0.62357639265E+03  0.00000000000E+00 0. -1.
         21    1    1    2  504  501  0.30628180132E+02 -0.74046131749E+02 -0.24029658654E+03  0.25330488457E+03  0.00000000000E+00 0. -1.
         21    1    1    2  505  503 -0.94810456541E+00  0.95211629673E+02 -0.71555520394E+03  0.72186245450E+03  0.00000000000E+00 0. -1.
          2    1    1    2  501    0 -0.55629146170E+01  0.38743727678E+02  0.67920243790E+03  0.68032931299E+03  0.00000000000E+00 0. -1.
<scales pt_clust_3="73.79142" pt_clust_4="58.62896" pt_clust_5="14000.00000" pt_clust_6="39.14106"></scales>
<clustering>
<clus scale="   39.141">  1  6  2 -1</clus>
<clus scale="   58.629">  1  4  2 -1</clus>
<clus scale="   73.791">  2  3  1 -1</clus>
<clus scale="   73.791">  2  3  1 -1</clus>
</clustering>
</event>
<event>
 6    0  0.3584505E+002  0.8549723E+02  0.7546771E-02  0.1314137E+00
         21   -1    0    0  504  502  0.00000000000E+00  0.00000000000E+00  0.10716802381E+04  0.10716802381E+04  0.00000000000E+00 0.  1.
          1   -1    0    0  503    0 -0.00000000000E+00 -0.00000000000E+00 -0.87719043029E+02  0.87719043029E+02  0.00000000000E+00 0.  1.
         21    1    1    2  503  502 -0.13267587929E+02 -0.45732380733E+02  0.13591031238E+03  0.14401073762E+03  0.00000000000E+00 0.  1.
         21    1    1    2  504  505  0.51656929840E+02  0.62508536746E+02  0.64783824773E+03  0.65289367495E+03  0.00000000000E+00 0.  1.
         21    1    1    2  505  501  0.50549185253E+02 -0.15561082121E+02  0.25339864481E+03  0.25885949972E+03  0.00000000000E+00 0.  1.
          1    1    1    2  501    0 -0.88938527165E+02 -0.12150738915E+01 -0.53186009888E+02  0.10363536880E+03  0.00000000000E+00 0.  1.
<scales pt_clust_3="47.61806" pt_clust_4="52.27725" pt_clust_5="14000.00000" pt_clust_6="85.49723"></scales>
<clustering>
<clus scale="   47.618">  1  3  2 -1</clus>
<clus scale="   52.277">  1  4  2 -1</clus>
<clus scale="   85.497">  2  6  1 -1</clus>
<clus scale="   47.618">  1  3  2 -1</clus>
</clustering>
</event>
<event>
 6    0  0.3584505E+002  0.4151731E+03  0.7546771E-02  0.1038649E+00
         21   -1    0    0  501  502  0.00000000000E+00  0.00000000000E+00  0.45884774948E+03  0.45884774948E+03  0.00000000000E+00 0. -1.
         -4   -1    0    0    0  501 -0.00000000000E+00 -0.00000000000E+00 -0.34974815166E+04  0.34974815166E+04  0.00000000000E+00 0.  1.
         21    1    1    2  503  504  0.19305731984E+03  0.20497217376E+02  0.47816498102E+02  0.19994419761E+03  0.00000000000E+00 0.  1.
         21    1    1    2  504  502  0.17457059149E+03 -0.48157648030E+02  0.20266948650E+03  0.27178846781E+03  0.00000000000E+00 0. -1.
         21    1    1    2  505  503 -0.46809073525E+03  0.90061882147E+02 -0.49223273502E+03  0.68521029215E+03  0.00000000000E+00 0.  1.
         -4    1    1    2    0  505  0.10046282391E+03 -0.62401451493E+02 -0.27968870167E+04  0.27993863085E+04  0.00000000000E+00 0.  1.
<scales pt_clust_3="147.65365" pt_clust_4="147.65365" pt_clust_5="385.35128" pt_clust_6="118.26546"></scales>
<clustering>
<clus scale="  118.265">  2  6  1 -1</clus>
<clus scale="  147.654">  3  4 -1 -1</clus>
<clus scale="  385.351">  2  5  1 -1</clus>
<clus scale="  415.173">  1  3  2 -1</clus>
</clustering>
</event>
<event>
 6    0  0.3584505E+002  0.6684727E+02  0.7546771E-02  0.1371155E+00
         21   -1    0    0  505  502  0.00000000000E+00  0.00000000000E+00  0.71116022409E+03  0.71116022409E+03  0.00000000000E+00 0.  1.
          2   -1    0    0  504    0 -0.00000000000E+00 -0.00000000000E+00 -0.74615213826E+03  0.74615213826E+03  0.00000000000E+00 0.  1.
         21    1    1    2  503  502  0.26654925946E+02  0.24777094796E+02  0.53250437392E+03  0.53374647329E+03  0.00000000000E+00 0.  1.
         21    1    1    2  504  503 -0.87898512996E+02  0.60201613899E+02  0.14008722718E+03  0.17599663099E+03  0.00000000000E+00 0.  1.
         21    1    1    2  505  501  0.41429663387E+02 -0.21315606220E+02 -0.11092091533E+02  0.47893700749E+02  0.00000000000E+00 0. -1.
          2    1    1    2  501    0  0.19813923663E+02 -0.63663102475E+02 -0.69649142373E+03  0.69967555733E+03  0.00000000000E+00 0.  1.
<scales pt_clust_3="36.39216" pt_clust_4="66.84727" pt_clust_5="48.00020" pt_clust_6="14000.00000"></scales>
<clustering>
<clus scale="   36.392">  1  3  2 -1</clus>
<clus scale="   48.000">  1  5  2 -1</clus>
<clus scale="   66.847">  1  4  2 -1</clus>
<clus scale="   36.392">  1  3  2 -1</clus>
</clustering>
</event>
<event>
 6    0  0.3584505E+002  0.1461601E+03  0.7546771E-02  0.1205272E+00
          1   -1    0    0  504    0 -0.00000000000E+00  0.00000000000E+00  0.10155843986E+04  0.10155843986E+04  0.00000000000E+00 0.  1.
         21   -1    0    0  505  502  0.00000000000E+00 -0.00000000000E+00 -0.89654402790E+02  0.89654402790E+02  0.00000000000E+00 0. -1.
         21    1    1    2  503  501  0.85041733894E+02 -0.12246593121E+03  0.14622355322E+03  0.20883325484E+03  0.00000000000E+00 0. -1.
         21    1    1    2  504  502 -0.33366572529E+02 -0.17668858984E+01  0.46794963625E+02  0.57499727554E+02  0.00000000000E+00 0. -1.
         21    1    1    2  505  503  0.46979685848E+02  0.16928242353E+02 -0.32602958032E+02  0.59637313353E+02  0.00000000000E+00 0. -1.
          1    1    1    2  501    0 -0.98654847212E+02  0.10730457475E+03  0.76551443703E+03  0.77926850567E+03  0.00000000000E+00 0.  1.
<scales pt_clust_3="14000.00000" pt_clust_4="33.41332" pt_clust_5="32.86219" pt_clust_6="146.16012"></scales>
<clustering>
<clus scale="   33.413">  2  4  1 -1</clus>
<clus scale="   32.862">  2  5  1 -1</clus>
<clus scale="  146.160">  1  6  2 -1</clus>
<clus scale="   33.413">  2  3  1 -1</clus>
</clustering>
</event>
<event>
 6    0  0.3584505E+002  0.8773335E+02  0.7546771E-02  0.1308435E+00
         21   -1    0    0  504  502  0.00000000000E+00  0.00000000000E+00  0.16782183225E+04  0.16782183225E+04  0.00000000000E+00 0.  1.
         -4   -1    0    0    0  501 -0.00000000000E+00 -0.00000000000E+00 -0.30951360138E+02  0.30951360138E+02  0.00000000000E+00 0.  1.
         21    1    1    2  503  505 -0.31107316201E+02 -0.11529471301E+03  0.19636396315E+03  0.22982458962E+03  0.00000000000E+00 0.  1.
         21    1    1    2  504  503  0.77012967957E+02 -0.25377034621E+02  0.74824794214E+03  0.75262870928E+03  0.00000000000E+00 0.  1.
         21    1    1    2  505  501  0.34064606512E+02  0.54079203643E+02  0.18233239949E+03  0.19320988999E+03  0.00000000000E+00 0.  1.
         -4    1    1    2    0  502 -0.79970258268E+02  0.86592543992E+02  0.52032265758E+03  0.53350649375E+03  0.00000000000E+00 0.  1.
<scales pt_clust_3="80.31155" pt_clust_4="87.73335" pt_clust_5="63.91367" pt_clust_6="14000.00000"></scales>
<clustering>
<clus scale="   63.914">  2  5  1 -1</clus>
<clus scale="   80.312">  2  3  1 -1</clus>
<clus scale="   87.733">  1  4  2 -1</clus>
<clus scale="   87.733">  1  3  2 -1</clus>
</clustering>
</event>
<event>
 6    0  0.3584505E+002  0.1003817E+03  0.7546771E-02  0.1279495E+00
         21   -1    0    0  504  502  0.00000000000E+00  0.00000000000E+00  0.32344615541E+02  0.32344615541E+02  0.00000000000E+00 0. -1.
          2   -1    0    0  503    0 -0.00000000000E+00 -0.00000000000E+00 -0.19615676767E+04  0.19615676767E+04  0.00000000000E+00 0. -1.
         21    1    1    2  503  505  0.15083410250E+01  0.76472141846E+02 -0.64536633918E+02  0.10007617443E+03  0.00000000000E+00 0. -1.
         21    1    1    2  504  501 -0.55290511454E+02  0.21557344063E+02 -0.28783818836E+03  0.29389212718E+03  0.00000000000E+00 0.  1.
         21    1    1    2  505  502  0.43597924500E+02  0.41994346994E+01 -0.38935508125E+02  0.58603652322E+02  0.00000000000E+00 0. -1.
          2    1    1    2  501    0  0.10184245929E+02 -0.10222892061E+03 -0.15379127307E+04  0.15413403383E+04  0.00000000000E+00 0. -1.
<scales pt_clust_3="14000.00000" pt_clust_4="54.15262" pt_clust_5="43.79971" pt_clust_6="100.38173"></scales>
<clustering>
<clus scale="   43.800">  1  5  2 -1</clus>
<clus scale="   54.153">  1  4  2 -1</clus>
<clus scale="  100.382">  2  6  1 -1</clus>
<clus scale="   43.800">  1  3  2 -1</clus>
</clustering>
</event>
<event>
 6    0  0.3584505E+002  0.8118258E+02  0.7546771E-02  0.1325729E+00
          2   -1    0    0  504    0 -0.00000000000E+00  0.00000000000E+00  0.18669939032E+04  0.18669939032E+04  0.00000000000E+00 0. -1.
         21   -1    0    0  503  502  0.00000000000E+00 -0.00000000000E+00 -0.31854578326E+03  0.31854578326E+03  0.00000000000E+00 0. -1.
         21    1    1    2  503  501  0.32971696934E+02  0.46219143857E+02 -0.60276803368E+01  0.57093563454E+02  0.00000000000E+00 0. -1.
         21    1    1    2  504  505  0.62393803643E+02 -0.12957737345E+03  0.72640065929E+02  0.16112064306E+03  0.00000000000E+00 0. -1.
         21    1    1    2  505  502 -0.80230013216E+02  0.48417616797E+01 -0.23513540504E+03  0.24849337291E+03  0.00000000000E+00 0. -1.
          2    1    1    2  501    0 -0.15135487360E+02  0.78516467910E+02  0.17169711394E+04  0.17188321070E+04  0.00000000000E+00 0. -1.
<scales pt_clust_3="56.77448" pt_clust_4="81.18258" pt_clust_5="68.32288" pt_clust_6="14000.00000"></scales>
<clustering>
<clus scale="   56.774">  2  3  1 -1</clus>
<clus scale="   68.323">  2  5  1 -1</clus>
<clus scale="   81.183">  2  4  1 -1</clus>
<clus scale="   56.774">  2  3  1 -1</clus>
</clustering>
</event>
<event>
 6    0  0.3584505E+002  0.2968180E+03  0.7546771E-02  0.1086842E+00
         21   -1    0    0  505  502  0.00000000000E+00  0.00000000000E+00  0.12831032212E+04  0.12831032212E+04  0.00000000000E+00 0. -1.
          3   -1    0    0  502    0 -0.00000000000E+00 -0.00000000000E+00 -0.28345490999E+03  0.28345490999E+03  0.00000000000E+00 0.  1.
         21    1    1    2  503  501 -0.20415704702E+03  0.33308947356E+02 -0.32968155925E+02  0.20946714570E+03  0.00000000000E+00 0.  1.
         21    1    1    2  504  503  0.23726942686E+03 -0.82683938689E+02  0.16035399413E+03  0.29807183375E+03  0.00000000000E+00 0. -1.
         21    1    1    2  505  504  0.68207102254E+02  0.22233229517E+02  0.93436933292E+03  0.93711929635E+03  0.00000000000E+00 0. -1.
          3    1    1    2  501    0 -0.10131948210E+03  0.27141761816E+02 -0.62106859942E+02  0.12189985537E+03  0.00000000000E+00 0.  1.
<scales pt_clust_3="43.86532" pt_clust_4="290.35551" pt_clust_5="71.73929" pt_clust_6="43.86532"></scales>
<clustering>
<clus scale="   43.865">  3  6 -1 -1</clus>
<clus scale="   71.739">  1  5  2 -1</clus>
<clus scale="  290.356">  1  4  2 -1</clus>
<clus scale="   71.739">  1  3  2 -1</clus>
</clustering>
</event>
<event>
 6    0  0.3584505E+002  0.2098023E+03  0.7546771E-02  0.1141723E+00
         21   -1    0    0  504  502  0.00000000000E+00  0.00000000000E+00  0.11629209366E+04  0.11629209366E+04  0.00000000000E+00 0.  1.
          1   -1    0    0  503    0 -0.00000000000E+00 -0.00000000000E+00 -0.99080424368E+03  0.99080424368E+03  0.00000000000E+00 0.  1.
         21    1    1    2  503  502 -0.47889186145E+02 -0.15631761524E+02  0.43580027875E+02  0.66610396693E+02  0.00000000000E+00 0.  1.
         21    1    1    2  504  505 -0.62912233233E+02 -0.18080119075E+03  0.66786757809E+03  0.69476191716E+03  0.00000000000E+00 0.  1.
         21    1    1    2  505  501  0.15835494028E+03  0.16495797053E+03  0.39493063216E+03  0.45635252095E+03  0.00000000000E+00 0.  1.
          1    1    1    2  501    0 -0.47553520907E+02  0.31474981747E+02 -0.93426154523E+03  0.93600034547E+03  0.00000000000E+00 0.  1.
<scales pt_clust_3="50.37585" pt_clust_4="14000.00000" pt_clust_5="209.80233" pt_clust_6="57.05099"></scales>
<clustering>
<clus scale="   50.376">  1  3  2 -1</clus>
<clus scale="   57.051">  2  6  1 -1</clus>
<clus scale="  209.802">  2  5  1 -1</clus>
<clus scale="   50.376">  1  3  2 -1</clus>
</clustering>
</event>
<event>
 6    0  0.3584505E+002  0.8332241E+02  0.7546771E-02  0.1319879E+00
         21   -1    0    0  503  502  0.00000000000E+00  0.00000000000E+00  0.25563161163E+02  0.25563161163E+02  0.00000000000E+00 0. -1.
          2   -1    0    0  505    0 -0.00000000000E+00 -0.00000000000E+00 -0.12523977545E+04  0.12523977545E+04  0.00000000000E+00 0. -1.
         21    1    1    2  503  501  0.57601978617E+02  0.63178644259E+02 -0.28565014412E+03  0.29817031017E+03  0.00000000000E+00 0. -1.
         21    1    1    2  504  502 -0.45356030002E+01 -0.44585629391E+02 -0.37642444525E+02  0.58526948260E+02  0.00000000000E+00 0. -1.
         21    1    1    2  505  504 -0.45196458216E+02 -0.75196110319E+02 -0.24478386621E+03  0.26003137503E+03  0.00000000000E+00 0. -1.
          2    1    1    2  501    0 -0.78699174011E+01  0.56603095451E+02 -0.65875813851E+03  0.66123228223E+03  0.00000000000E+00 0. -1.
<scales pt_clust_3="83.32241" pt_clust_4="44.81573" pt_clust_5="14000.00000" pt_clust_6="53.59286"></scales>
<clustering>
<clus scale="   44.816">  1  4  2 -1</clus>
<clus scale="   53.593">  2  6  1 -1</clus>
<clus scale="   83.322">  1  3  2 -1</clus>
<clus scale="   44.816">  1  3  2 -1</clus>
</clustering>
</event>
<event>
 6    0  0.3584505E+002  0.1776755E+03  0.7546771E-02  0.1170072E+00
         21   -1    0    0  505  502  0.00000000000E+00  0.00000000000E+00  0.21495610522E+03  0.21495610522E+03  0.00000000000E+00 0. -1.
          2   -1    0    0  503    0 -0.00000000000E+00 -0.00000000000E+00 -0.24192940348E+04  0.24192940348E+04  0.00000000000E+00 0.  1.
         21    1    1    2  503  502  0.95600384371E+00 -0.56371306455E+02 -0.14804824170E+03  0.15842007450E+03  0.00000000000E+00 0.  1.
         21    1    1    2  504  501 -0.15256991109E+03 -0.89883558769E+02 -0.17550191968E+03  0.24931417071E+03  0.00000000000E+00 0.  1.
         21    1    1    2  505  504  0.13191206067E+03  0.12022526356E+03  0.12662665524E+03  0.21883604723E+03  0.00000000000E+00 0. -1.
          2    1    1    2  501    0  0.19701846570E+02  0.26029601664E+02 -0.20074144234E+04  0.20076798476E+04  0.00000000000E+00 0.  1.
<scales pt_clust_3="47.41425" pt_clust_4="14000.00000" pt_clust_5="177.67555" pt_clust_6="32.64511"></scales>
<clustering>
<clus scale="   32.645">  2  6  1 -1</clus>
<clus scale="   47.414">  2  3  1 -1</clus>
<clus scale="  177.676">  1  5  2 -1</clus>
<clus scale="  177.676">  1  3  2 -1</clus>
</clustering>
</event>
<event>
 6    0  0.3584505E+002  0.9923750E+02  0.7546771E-02  0.1281908E+00
         21   -1    0    0  505  502  0.00000000000E+00  0.00000000000E+00  0.55203091242E+03  0.55203091242E+03  0.00000000000E+00 0.  1.
         -1   -1    0    0    0  501 -0.00000000000E+00 -0.00000000000E+00 -0.19750722569E+03  0.19750722569E+03  0.00000000000E+00 0.  1.
         21    1    1    2  503  501 -0.17808362850E+02 -0.56663566620E+02  0.75046100741E+02  0.95706921411E+02  0.00000000000E+00 0.  1.
         21    1    1    2  504  502  0.35453901751E+02  0.13946883851E+03  0.67647877293E+00  0.14390619753E+03  0.00000000000E+00 0.  1.
         21    1    1    2  505  503 -0.14049984020E+02 -0.52947712050E+02  0.39046162423E+03  0.39428561000E+03  0.00000000000E+00 0.  1.
         -1    1    1    2    0  504 -0.35955548809E+01 -0.29857559837E+02 -0.11166051701E+03  0.11563940917E+03  0.00000000000E+00 0.  1.
<scales pt_clust_3="99.23750" pt_clust_4="14000.00000" pt_clust_5="55.45923" pt_clust_6="30.07328"></scales>
<clustering>
<clus scale="   30.073">  2  6  1 -1</clus>
<clus scale="   55.459">  1  5  2 -1</clus>
<clus scale="   99.237">  1  3  2 -1</clus>
<clus scale="   55.459">  1  3  2 -1</clus>
</clustering>
</event>
<event>
 6    0  0.3584505E+002  0.2162522E+03  0.7546771E-02  0.1136708E+00
          2   -1    0    0  505    0 -0.00000000000E+00  0.00000000000E+00  0.44134133117E+04  0.44134133117E+04  0.00000000000E+00 0. -1.
         21   -1    0    0  503  502  0.00000000000E+00 -0.00000000000E+00 -0.22265771303E+04  0.22265771303E+04  0.00000000000E+00 0. -1.
         21    1    1    2  503  501 -0.21080688015E+03 -0.13442446465E+03  0.36813860975E+03  0.44501181266E+03  0.00000000000E+00 0. -1.
         21    1    1    2  504  502 -0.44717677451E+02  0.35754340249E+01 -0.20442330613E+04  0.20447252293E+04  0.00000000000E+00 0. -1.
         21    1    1    2  505  504  0.48415413050E+02  0.74976137863E+02 -0.12663468782E+03  0.15492520011E+03  0.00000000000E+00 0. -1.
          2    1    1    2  501    0  0.20710914455E+03  0.55872892762E+02  0.39895653206E+04  0.39953282000E+04  0.00000000000E+00 0. -1.
<scales pt_clust_3="216.25220" pt_clust_4="44.86039" pt_clust_5="78.96339" pt_clust_6="14000.00000"></scales>
<clustering>
<clus scale="   44.860">  2  4  1 -1</clus>
<clus scale="   78.963">  2  5  1 -1</clus>
<clus scale="  216.252">  2  3  1 -1</clus>
<clus scale="   44.860">  2  3  1 -1</clus>
</clustering>
</event>
<event>
 6    0  0.3584505E+002  0.1065522E+03  0.7546771E-02  0.1267091E+00
          2   -1    0    0  505    0 -0.00000000000E+00  0.00000000000E+00  0.80828480727E+03  0.80828480727E+03  0.00000000000E+00 0. -1.
         21   -1    0    0  504  502  0.00000000000E+00 -0.00000000000E+00 -0.15505141461E+03  0.15505141461E+03  0.00000000000E+00 0. -1.
         21    1    1    2  503  501  0.95674614331E+02 -0.43751792550E+01  0.34667392070E+03  0.35966036940E+03  0.00000000000E+00 0. -1.
         21    1    1    2  504  503 -0.34689829815E+01 -0.43798174132E+02  0.27203410045E+02  0.51675326978E+02  0.00000000000E+00 0. -1.
         21    1    1    2  505  502 -0.99571047152E+02  0.31976974510E+01 -0.11663840529E+03  0.15339209982E+03  0.00000000000E+00 0. -1.
          2    1    1    2  501    0  0.73654158023E+01  0.44975655936E+02  0.39599446720E+03  0.39860842569E+03  0.00000000000E+00 0. -1.
<scales pt_clust_3="106.55219" pt_clust_4="43.93534" pt_clust_5="14000.00000" pt_clust_6="45.17409"></scales>
<clustering>
<clus scale="   43.935">  2  4  1 -1</clus>
<clus scale="   45.174">  1  6  2 -1</clus>
<clus scale="  106.552">  1  3  2 -1</clus>
<clus scale="   43.935">  2  3  1 -1</clus>
</clustering>
</event>
<event>
 6    0  0.3584505E+002  0.8504893E+02  0.7546771E-02  0.1315305E+00
          2   -1    0    0  504    0 -0.00000000000E+00  0.00000000000E+00  0.13891283793E+04  0.13891283793E+04  0.00000000000E+00 0.  1.
         21   -1    0    0  503  502  0.00000000000E+00 -0.00000000000E+00 -0.74287382997E+03  0.74287382997E+03  0.00000000000E+00 0. -1.
         21    1    1    2  503  505  0.36591605655E+02  0.59735509291E+01 -0.70451544092E+03  0.70549035104E+03  0.00000000000E+00 0. -1.
         21    1    1    2  504  502 -0.50364093506E+02  0.58288103980E+02  0.15788020731E+03  0.17567072847E+03  0.00000000000E+00 0. -1.
         21    1    1    2  505  501 -0.21838649196E+02 -0.10080668304E+03  0.65257909230E+02  0.12205535081E+03  0.00000000000E+00 0. -1.
          2    1    1    2  501    0  0.35611137047E+02  0.36545028129E+02  0.11276318737E+04  0.11287857789E+04  0.00000000000E+00 0.  1.
<scales pt_clust_3="37.07599" pt_clust_4="14000.00000" pt_clust_5="85.04893" pt_clust_6="51.48171"></scales>
<clustering>
<clus scale="   37.076">  2  3  1 -1</clus>
<clus scale="   51.482">  1  6  2 -1</clus>
<clus scale="   85.049">  2  5  1 -1</clus>
<clus scale="   37.076">  2  3  1 -1</clus>
</clustering>
</event>
<event>
 6    0  0.3584505E+002  0.3638021E+03  0.7546771E-02  0.1057088E+00
         21   -1    0    0  505  502  0.00000000000E+00  0.00000000000E+00  0.57553167307E+03  0.57553167307E+03  0.00000000000E+00 0.  1.
          1   -1    0    0  503    0 -0.00000000000E+00 -0.00000000000E+00 -0.17635050589E+04  0.17635050589E+04  0.00000000000E+00 0. -1.
         21    1    1    2  503  504 -0.95085519247E+00  0.42923919494E+02  0.14406462747E+02  0.45287008724E+02  0.00000000000E+00 0. -1.
         21    1    1    2  504  502 -0.12396793830E+03  0.29593215910E+03  0.34432090789E+03  0.47063869383E+03  0.00000000000E+00 0.  1.
         21    1    1    2  505  501  0.85191471902E+02 -0.32539608012E+03 -0.67193115478E+02  0.34300890747E+03  0.00000000000E+00 0.  1.
          1    1    1    2  501    0  0.39727321589E+02 -0.13459998480E+02 -0.14795076410E+04  0.14801021220E+04  0.00000000000E+00 0. -1.
<scales pt_clust_3="30.74930" pt_clust_4="30.74930" pt_clust_5="353.95779" pt_clust_6="41.94558"></scales>
<clustering>
<clus scale="   30.749">  3  4 -1 -1</clus>
<clus scale="   41.946">  2  6  1 -1</clus>
<clus scale="  353.958">  2  5  1 -1</clus>
<clus scale="  363.802">  1  3  2 -1</clus>
</clustering>
</event>
<event>
 6    0  0.3584505E+002  0.6125433E+02  0.7546771E-02  0.1392642E+00
         -1   -1    0    0    0  501 -0.00000000000E+00  0.00000000000E+00  0.51618175171E+03  0.51618175171E+03  0.00000000000E+00 0. -1.
         21   -1    0    0  504  502  0.00000000000E+00 -0.00000000000E+00 -0.99055152782E+02  0.99055152782E+02  0.00000000000E+00 0. -1.
         21    1    1    2  503  502 -0.17318490414E+02 -0.81722447576E+02  0.71277883620E+02  0.10981359315E+03  0.00000000000E+00 0. -1.
         21    1    1    2  504  505  0.11416135438E+02  0.45767637106E+02 -0.59611719937E+02  0.76016852792E+02  0.00000000000E+00 0. -1.
         21    1    1    2  505  501  0.29089692170E+02  0.83415784269E+02  0.24179842581E+03  0.25743131507E+03  0.00000000000E+00 0. -1.
         -1    1    1    2    0  503 -0.23187337193E+02 -0.47460973798E+02  0.16366200944E+03  0.17197514347E+03  0.00000000000E+00 0. -1.
<scales pt_clust_3="14000.00000" pt_clust_4="47.16996" pt_clust_5="61.25433" pt_clust_6="46.70260"></scales>
<clustering>
<clus scale="   47.170">  2  4  1 -1</clus>
<clus scale="   46.703">  1  6  2 -1</clus>
<clus scale="   61.254">  1  5  2 -1</clus>
<clus scale="   47.170">  2  3  1 -1</clus>
</clustering>
</event>
<event>
 6    0  0.3584505E+002  0.1437433E+03  0.7546771E-02  0.1208379E+00
         21   -1    0    0  503  502  0.00000000000E+00  0.00000000000E+00  0.63505774394E+02  0.63505774394E+02  0.00000000000E+00 0. -1.
          2   -1    0    0  502    0 -0.00000000000E+00 -0.00000000000E+00 -0.16007158204E+04  0.16007158204E+04  0.00000000000E+00 0.  1.
         21    1    1    2  503  504  0.20776782325E+02  0.48261666195E+02 -0.31309798896E+01  0.52637117538E+02  0.00000000000E+00 0. -1.
         21    1    1    2  504  505  0.88285807370E+02 -0.61926739318E+02 -0.92829208025E+02  0.14229043077E+03  0.00000000000E+00 0. -1.
         21    1    1    2  505  501 -0.10507875598E+01 -0.50110853838E+02 -0.44810142925E+02  0.67232066277E+02  0.00000000000E+00 0. -1.
          2    1    1    2  501    0 -0.10801180213E+03  0.63775926962E+02 -0.13964397152E+04  0.14020619802E+04  0.00000000000E+00 0.  1.
<scales pt_clust_3="52.54392" pt_clust_4="47.19717" pt_clust_5="47.19717" pt_clust_6="125.97386"></scales>
<clustering>
<clus scale="   47.197">  4  5 -1 -1</clus>
<clus scale="   52.544">  1  3  2 -1</clus>
<clus scale="  125.974">  2  6  1 -1</clus>
<clus scale="   52.544">  1  3  2 -1</clus>
</clustering>
</event>
<event>
 6    0  0.3584505E+002  0.7911710E+02  0.7546771E-02  0.1331576E+00
          2   -1    0    0  503    0 -0.00000000000E+00  0.00000000000E+00  0.12985283963E+04  0.12985283963E+04  0.00000000000E+00 0. -1.
         21   -1    0    0  505  502  0.00000000000E+00 -0.00000000000E+00 -0.13054213344E+03  0.13054213344E+03  0.00000000000E+00 0. -1.
         21    1    1    2  503  504  0.20084049549E+02  0.54743754601E+02  0.37493321599E+02  0.69325297537E+02  0.00000000000E+00 0.  1.
         21    1    1    2  504  502  0.21570445308E+02  0.35638064256E+02 -0.10193264473E+03  0.11011639205E+03  0.00000000000E+00 0. -1.
         21    1    1    2  505  501 -0.93547220902E+02 -0.32193606121E+02  0.34846638288E+03  0.36223794778E+03  0.00000000000E+00 0. -1.
          2    1    1    2  501    0  0.51892726045E+02 -0.58188212736E+02  0.88395920312E+03  0.88739089239E+03  0.00000000000E+00 0. -1.
<scales pt_clust_3="14000.00000" pt_clust_4="41.65760" pt_clust_5="79.11710" pt_clust_6="77.15984"></scales>
<clustering>
<clus scale="   41.658">  2  4  1 -1</clus>
<clus scale="   77.160">  1  6  2 -1</clus>
<clus scale="   79.117">  1  5  2 -1</clus>
<clus scale="   41.658">  2  3  1 -1</clus>
</clustering>
</event>
<event>
 6    0  0.3584505E+002  0.1399944E+03  0.7546771E-02  0.1213337E+00
         21   -1    0    0  505  502  0.00000000000E+00  0.00000000000E+00  0.33711778654E+03  0.33711778654E+03  0.00000000000E+00 0.  1.
          2   -1    0    0  503    0 -0.00000000000E+00 -0.00000000000E+00 -0.77842139945E+03  0.77842139945E+03  0.00000000000E+00 0.  1.
         21    1    1    2  503  502  0.30125355587E+02 -0.42091585451E+02  0.46490833069E+02  0.69574680556E+02  0.00000000000E+00 0. -1.
         21    1    1    2  504  501 -0.10516309450E+03 -0.72182592610E+02 -0.20144992646E+03  0.23843589494E+03  0.00000000000E+00 0.  1.
         21    1    1    2  505  504  0.10209686234E+03  0.96429522442E+02  0.24113759770E+03  0.27905154205E+03  0.00000000000E+00 0.  1.
          2    1    1    2  501    0 -0.27059123421E+02  0.17844655618E+02 -0.52748211721E+03  0.52847706845E+03  0.00000000000E+00 0.  1.
<scales pt_clust_3="50.36966" pt_clust_4="139.99437" pt_clust_5="14000.00000" pt_clust_6="32.41339"></scales>
<clustering>
<clus scale="   32.413">  2  6  1 -1</clus>
<clus scale="   50.370">  1  3  2 -1</clus>
<clus scale="  139.994">  2  4  1 -1</clus>
<clus scale="   50.370">  1  3  2 -1</clus>
</clustering>
</event>
<event>
 6    0  0.3584505E+002  0.1135149E+03  0.7546771E-02  0.1254196E+00
          1   -1    0    0  505    0 -0.00000000000E+00  0.00000000000E+00  0.29270851522E+04  0.29270851522E+04  0.00000000000E+00 0. -1.
         21   -1    0    0  501  502  0.00000000000E+00 -0.00000000000E+00 -0.10997554220E+03  0.10997554220E+03  0.00000000000E+00 0.  1.
         21    1    1    2  503  504 -0.11624792570E+03 -0.60919236170E+02  0.50380488482E+02  0.14058067856E+03  0.00000000000E+00 0.  1.
         21    1    1    2  504  502 -0.33354177181E+01  0.42911919139E+02 -0.50188118689E+02  0.66116602099E+02  0.00000000000E+00 0.  1.
         21    1    1    2  505  503  0.85428779295E+02  0.19635727474E+02  0.28410056640E+03  0.29731594298E+03  0.00000000000E+00 0.  1.
          1    1    1    2  501    0  0.34154564125E+02 -0.16284104438E+01  0.25328166738E+04  0.25330474707E+04  0.00000000000E+00 0. -1.
<scales pt_clust_3="113.51489" pt_clust_4="42.96053" pt_clust_5="14000.00000" pt_clust_6="34.19336"></scales>
<clustering>
<clus scale="   34.193">  1  6  2 -1</clus>
<clus scale="   42.961">  2  4  1 -1</clus>
<clus scale="  113.515">  2  3  1 -1</clus>
<clus scale="   42.961">  2  3  1 -1</clus>
</clustering>
</event>
<event>
 6    0  0.3584505E+002  0.6304066E+02  0.7546771E-02  0.1385497E+00
         -1   -1    0    0    0  501 -0.00000000000E+00  0.00000000000E+00  0.21084519658E+04  0.21084519658E+04  0.00000000000E+00 0.  1.
         21   -1    0    0  503  502  0.00000000000E+00 -0.00000000000E+00 -0.49027896634E+02  0.49027896634E+02  0.00000000000E+00 0. -1.
         21    1    1    2  503  501 -0.92807639392E+02 -0.42315599408E+02  0.24185714680E+02  0.10482755686E+03  0.00000000000E+00 0. -1.
         21    1    1    2  504  505  0.80303511634E+02  0.28401603211E+02  0.81798264026E+03  0.82240555981E+03  0.00000000000E+00 0. -1.
         21    1    1    2  505  502  0.45210117242E+02  0.99222679122E+01  0.79342556517E+02  0.91856667565E+02  0.00000000000E+00 0. -1.
         -1    1    1    2    0  504 -0.32705989484E+02  0.39917282841E+01  0.11379131577E+04  0.11383900782E+04  0.00000000000E+00 0.  1.
<scales pt_clust_3="63.04066" pt_clust_4="14000.00000" pt_clust_5="43.55402" pt_clust_6="32.94868"></scales>
<clustering>
<clus scale="   32.949">  1  6  2 -1</clus>
<clus scale="   43.554">  2  5  1 -1</clus>
<clus scale="   63.041">  2  3  1 -1</clus>
<clus scale="   43.554">  2  3  1 -1</clus>
</clustering>
</event>
<event>
 6    0  0.3584505E+002  0.1539001E+03  0.7546771E-02  0.1195761E+00
         21   -1    0    0  504  502  0.00000000000E+00  0.00000000000E+00  0.75939286297E+02  0.75939286297E+02  0.00000000000E+00 0.  1.
          2   -1    0    0  503    0 -0.00000000000E+00 -0.00000000000E+00 -0.19026070202E+04  0.19026070202E+04  0.00000000000E+00 0.  1.
         21    1    1    2  503  502 -0.15711773729E+03  0.72202664951E+02 -0.10529194386E+03  0.20244900998E+03  0.00000000000E+00 0.  1.
         21    1    1    2  504  505  0.27495469312E+01 -0.38539510608E+02  0.42971476272E+01  0.38875691170E+02  0.00000000000E+00 0.  1.
         21    1    1    2  505  501  0.12834580105E+03 -0.82956209849E+00 -0.76943793600E+03  0.78006927268E+03  0.00000000000E+00 0.  1.
          2    1    1    2  501    0  0.26022389312E+02 -0.32833592245E+02 -0.95623500169E+03  0.95715233269E+03  0.00000000000E+00 0.  1.
<scales pt_clust_3="14000.00000" pt_clust_4="38.63747" pt_clust_5="153.90008" pt_clust_6="42.16491"></scales>
<clustering>
<clus scale="   38.637">  1  4  2 -1</clus>
<clus scale="   42.165">  2  6  1 -1</clus>
<clus scale="  153.900">  2  5  1 -1</clus>
<clus scale="   38.637">  1  3  2 -1</clus>
</clustering>
</event>
<event>
 6    0  0.3584505E+002  0.8194253E+02  0.7546771E-02  0.1323627E+00
          2   -1    0    0  505    0 -0.00000000000E+00  0.00000000000E+00  0.17435676547E+03  0.17435676547E+03  0.00000000000E+00 0. -1.
         21   -1    0    0  503  502  0.00000000000E+00 -0.00000000000E+00 -0.38043270855E+03  0.38043270855E+03  0.00000000000E+00 0.  1.
         21    1    1    2  503  504  0.45880745478E+02 -0.14346475139E+00 -0.56133101619E+02  0.72498196427E+02  0.00000000000E+00 0.  1.
         21    1    1    2  504  501  0.26640641133E+02  0.97438894716E+02 -0.51162669630E+02  0.11323286063E+03  0.00000000000E+00 0.  1.
         21    1    1    2  505  502  0.82102848592E+00 -0.57996053185E+02 -0.21692934155E+03  0.22454967267E+03  0.00000000000E+00 0.  1.
          2    1    1    2  501    0 -0.73342415097E+02 -0.39299376779E+02  0.11814916973E+03  0.14450874429E+03  0.00000000000E+00 0. -1.
<scales pt_clust_3="45.88097" pt_clust_4="81.94253" pt_clust_5="66.74485" pt_clust_6="14000.00000"></scales>
<clustering>
<clus scale="   45.881">  2  3  1 -1</clus>
<clus scale="   66.745">  2  5  1 -1</clus>
<clus scale="   81.943">  2  4  1 -1</clus>
<clus scale="   45.881">  2  3  1 -1</clus>
</clustering>
</event>
<event>
 6    0  0.3584505E+002  0.1498242E+03  0.7546771E-02  0.1200689E+00
          2   -1    0    0  504    0 -0.00000000000E+00  0.00000000000E+00  0.25076679393E+04  0.25076679393E+04  0.00000000000E+00 0. -1.
         21   -1    0    0  503  502  0.00000000000E+00 -0.00000000000E+00 -0.22065607349E+02  0.22065607349E+02  0.00000000000E+00 0.  1.
         21    1    1    2  503  501  0.16834374528E+02 -0.75053924617E+02  0.84991474449E+03  0.85338828248E+03  0.00000000000E+00 0. -1.
         21    1    1    2  504  505 -0.79278840887E+02  0.90785639205E+02  0.32910893396E+03  0.35048517416E+03  0.00000000000E+00 0.  1.
         21    1    1    2  505  502  0.75332064401E+01  0.33799789903E+02  0.26393106791E+02  0.43540453407E+02  0.00000000000E+00 0.  1.
          2    1    1    2  501    0  0.54911259919E+02 -0.49531504491E+02  0.12801855467E+04  0.12823196366E+04  0.00000000000E+00 0. -1.
<scales pt_clust_3="56.92186" pt_clust_4="138.54673" pt_clust_5="34.62911" pt_clust_6="56.92186"></scales>
<clustering>
<clus scale="   34.629">  2  5  1 -1</clus>
<clus scale="   56.922">  3  6 -1 -1</clus>
<clus scale="  138.547">  2  4  1 -1</clus>
<clus scale="   34.629">  2  3  1 -1</clus>
</clustering>
</event>
<event>
 6    0  0.3584505E+002  0.8554683E+02  0.7546771E-02  0.1314009E+00
         -2   -1    0    0    0  501 -0.00000000000E+00  0.00000000000E+00  0.26064427236E+04  0.26064427236E+04  0.00000000000E+00 0. -1.
         21   -1    0    0  505  502  0.00000000000E+00 -0.00000000000E+00 -0.63487796460E+02  0.63487796460E+02  0.00000000000E+00 0. -1.
         21    1    1    2  503  501  0.65186920893E+02 -0.11513951526E+02  0.35364911380E+03  0.35979105245E+03  0.00000000000E+00 0.  1.
         21    1    1    2  504  502 -0.11658481175E+02 -0.49918988789E+02  0.10614600425E+03  0.11787620558E+03  0.00000000000E+00 0.  1.
         21    1    1    2  505  503  0.36485593156E+02  0.89634358970E+02 -0.97166169901E+01  0.97262168708E+02  0.00000000000E+00 0. -1.
         -2    1    1    2    0  504 -0.90014032875E+02 -0.28201418655E+02  0.20928764261E+04  0.20950010933E+04  0.00000000000E+00 0. -1.
<scales pt_clust_3="14000.00000" pt_clust_4="51.26232" pt_clust_5="50.33051" pt_clust_6="85.54683"></scales>
<clustering>
<clus scale="   51.262">  2  4  1 -1</clus>
<clus scale="   50.331">  2  5  1 -1</clus>
<clus scale="   85.547">  1  6  2 -1</clus>
<clus scale="   51.262">  2  3  1 -1</clus>
</clustering>
</event>
<event>
 6    0  0.3584505E+002  0.1019400E+03  0.7546771E-02  0.1276269E+00
          2   -1    0    0  505    0 -0.00000000000E+00  0.00000000000E+00  0.70047539414E+03  0.70047539414E+03  0.00000000000E+00 0.  1.
         21   -1    0    0  501  502  0.00000000000E+00 -0.00000000000E+00 -0.30275952134E+03  0.30275952134E+03  0.00000000000E+00 0. -1.
         21    1    1    2  503  502  0.28423198492E+02  0.12721834394E+02 -0.24629705443E+03  0.24825785447E+03  0.00000000000E+00 0. -1.
         21    1    1    2  504  503  0.33644504584E+02 -0.35488087184E+02 -0.16926770002E+02  0.51748164831E+02  0.00000000000E+00 0. -1.
         21    1    1    2  505  504  0.10079632593E+02  0.10211542565E+03  0.15389876278E+03  0.18497023635E+03  0.00000000000E+00 0. -1.
          2    1    1    2  501    0 -0.72147335669E+02 -0.79349172857E+02  0.50704093445E+03  0.51825865983E+03  0.00000000000E+00 0.  1.
<scales pt_clust_3="31.14038" pt_clust_4="58.20341" pt_clust_5="14000.00000" pt_clust_6="101.93996"></scales>
<clustering>
<clus scale="   31.140">  2  3  1 -1</clus>
<clus scale="   58.203">  2  4  1 -1</clus>
<clus scale="  101.940">  1  6  2 -1</clus>
<clus scale="   31.140">  2  3  1 -1</clus>
</clustering>
</event>
<event>
 6    0  0.9581331E+002  0.9196261E+02  0.7546771E-02  0.1298167E+00
         21   -1    0    0  505  502  0.00000000000E+00  0.00000000000E+00  0.16631917232E+03  0.16631917232E+03  0.00000000000E+00 0.  1.
          2   -1    0    0  504    0 -0.00000000000E+00 -0.00000000000E+00 -0.21855804613E+04  0.21855804613E+04  0.00000000000E+00 0.  1.
         21    1    1    2  503  501  0.86271804528E+02  0.77582832358E+02  0.11525320205E+03  0.16353966099E+03  0.00000000000E+00 0.  1.
         21    1    1    2  504  502 -0.34903783126E+02 -0.25126017954E+02 -0.54683666352E+02  0.69569348282E+02  0.00000000000E+00 0.  1.
         21    1    1    2  505  503  0.31250857061E+02 -0.12392293962E+02  0.31696872445E+01  0.33767320502E+02  0.00000000000E+00 0.  1.
          2    1    1    2  501    0 -0.82618878463E+02 -0.40064520442E+02 -0.20830005120E+04  0.20850233039E+04  0.00000000000E+00 0.  1.
<scales pt_clust_3="14000.00000" pt_clust_4="42.11869" pt_clust_5="33.61822" pt_clust_6="91.96261"></scales>
<clustering>
<clus scale="   33.618">  1  5  2 -1</clus>
<clus scale="   42.119">  1  4  2 -1</clus>
<clus scale="   91.963">  2  6  1 -1</clus>
<clus scale="   33.618">  1  3  2 -1</clus>
</clustering>
</event>
<event>
 6    0  0.3584505E+002  0.6977125E+02  0.7546771E-02  0.1360873E+00
          2   -1    0    0  504    0 -0.00000000000E+00  0.00000000000E+00  0.15440691742E+04  0.15440691742E+04  0.00000000000E+00 0.  1.
         21   -1    0    0  503  502  0.00000000000E+00 -0.00000000000E+00 -0.69835534004E+03  0.69835534004E+03  0.00000000000E+00 0. -1.
         21    1    1    2  503  501 -0.45438203025E+02 -0.54659572455E+02 -0.46267923810E+03  0.46810722759E+03  0.00000000000E+00 0. -1.
         21    1    1    2  504  505 -0.13183294292E+02  0.63889224062E+02  0.18697125808E+03  0.19802495688E+03  0.00000000000E+00 0.  1.
         21    1    1    2  505  502  0.87065627216E+02  0.33993296202E+01 -0.21890278245E+03  0.23560646648E+03  0.00000000000E+00 0. -1.
          2    1    1    2  501    0 -0.28444129898E+02 -0.12628981227E+02  0.13403245967E+04  0.13406858633E+04  0.00000000000E+00 0.  1.
<scales pt_clust_3="69.77125" pt_clust_4="65.61225" pt_clust_5="14000.00000" pt_clust_6="31.12169"></scales>
<clustering>
<clus scale="   31.122">  1  6  2 -1</clus>
<clus scale="   65.612">  1  4  2 -1</clus>
<clus scale="   69.771">  2  3  1 -1</clus>
<clus scale="   69.771">  2  3  1 -1</clus>
</clustering>
</event>
<event>
 6    0  0.3584505E+002  0.1566895E+03  0.7546771E-02  0.1192486E+00
         21   -1    0    0  505  502  0.00000000000E+00  0.00000000000E+00  0.44951688289E+03  0.44951688289E+03  0.00000000000E+00 0. -1.
          2   -1    0    0  503    0 -0.00000000000E+00 -0.00000000000E+00 -0.31442433711E+04  0.31442433711E+04  0.00000000000E+00 0. -1.
         21    1    1    2  503  502 -0.36602313628E+02 -0.17619205520E+02  0.40283921867E+02  0.57209790483E+02  0.00000000000E+00 0.  1.
         21    1    1    2  504  501  0.12070765118E+03 -0.80091073586E+02  0.13125983812E+03  0.19548417385E+03  0.00000000000E+00 0.  1.
         21    1    1    2  505  504 -0.48050193021E+02 -0.55411147655E+02  0.22968822566E+03  0.24111386800E+03  0.00000000000E+00 0. -1.
          2    1    1    2  501    0 -0.36055144529E+02  0.15312142676E+03 -0.30959584739E+04  0.30999524217E+04  0.00000000000E+00 0. -1.
<scales pt_clust_3="40.62223" pt_clust_4="14000.00000" pt_clust_5="95.71580" pt_clust_6="156.68952"></scales>
<clustering>
<clus scale="   40.622">  1  3  2 -1</clus>
<clus scale="   95.716">  1  5  2 -1</clus>
<clus scale="  156.690">  2  6  1 -1</clus>
<clus scale="   40.622">  1  3  2 -1</clus>
</clustering>
</event>
<event>
 6    0  0.3584505E+002  0.9705787E+02  0.7546771E-02  0.1286607E+00
          2   -1    0    0  505    0 -0.00000000000E+00  0.00000000000E+00  0.99433272044E+03  0.99433272044E+03  0.00000000000E+00 0.  1.
         21   -1    0    0  504  502  0.00000000000E+00 -0.00000000000E+00 -0.14959666020E+03  0.14959666020E+03  0.00000000000E+00 0. -1.
         21    1    1    2  503  501 -0.73011037329E+02 -0.58148700390E+02  0.13241277194E+03  0.16200316386E+03  0.00000000000E+00 0. -1.
         21    1    1    2  504  503  0.96768662142E+01  0.10048200187E+03 -0.11171102611E+03  0.15056436429E+03  0.00000000000E+00 0. -1.
         21    1    1    2  505  502  0.14157092520E+02 -0.26995613835E+02  0.81030092610E+02  0.86574028111E+02  0.00000000000E+00 0. -1.
          2    1    1    2  501    0  0.49177078594E+02 -0.15337687646E+02  0.74300422181E+03  0.74478782438E+03  0.00000000000E+00 0.  1.
<scales pt_clust_3="14000.00000" pt_clust_4="97.05787" pt_clust_5="30.48256" pt_clust_6="71.33006"></scales>
<clustering>
<clus scale="   30.483">  1  5  2 -1</clus>
<clus scale="   71.330">  1  6  2 -1</clus>
<clus scale="   97.058">  2  4  1 -1</clus>
<clus scale="   97.058">  2  3  1 -1</clus>
</clustering>
</event>
<event>
 6    0  0.3584505E+002  0.1235815E+03  0.7546771E-02  0.1237303E+00
         21   -1    0    0  501  502  0.00000000000E+00  0.00000000000E+00  0.46921969637E+03  0.46921969637E+03  0.00000000000E+00 0. -1.
          2   -1    0    0  504    0 -0.00000000000E+00 -0.00000000000E+00 -0.19152988809E+04  0.19152988809E+04  0.00000000000E+00 0. -1.
         21    1    1    2  503  505  0.57464310874E+02  0.60398570877E+02 -0.29814921010E+02  0.88538488258E+02  0.00000000000E+00 0.  1.
         21    1    1    2  504  503 -0.35028676691E+02  0.19093465332E+02 -0.80756496055E+02  0.90073193927E+02  0.00000000000E+00 0. -1.
         21    1    1    2  505  502  0.59795597315E+02  0.58571285908E+01  0.43113089632E+03  0.43529721936E+03  0.00000000000E+00 0. -1.
          2    1    1    2  501    0 -0.82231231498E+02 -0.85349164799E+02 -0.17666386638E+04  0.17706096758E+04  0.00000000000E+00 0. -1.
<scales pt_clust_3="14000.00000" pt_clust_4="39.89447" pt_clust_5="60.04421" pt_clust_6="123.58146"></scales>
<clustering>
<clus scale="   39.894">  2  4  1 -1</clus>
<clus scale="   60.044">  1  5  2 -1</clus>
<clus scale="  123.581">  2  6  1 -1</clus>
<clus scale="   60.044">  1  3  2 -1</clus>
</clustering>
</event>
<event>
 6    0  0.3584505E+002  0.8998183E+02  0.7546771E-02  0.1302896E+00
         21   -1    0    0  504  502  0.00000000000E+00  0.00000000000E+00  0.15372174987E+04  0.15372174987E+04  0.00000000000E+00 0.  1.
          3   -1    0    0  505    0 -0.00000000000E+00 -0.00000000000E+00 -0.68598136302E+03  0.68598136302E+03  0.00000000000E+00 0.  1.
         21    1    1    2  503  501 -0.20634637138E+02  0.84114036466E+02 -0.14100079041E+03  0.16547562442E+03  0.00000000000E+00 0. -1.
         21    1    1    2  504  503 -0.29245578349E+02 -0.46047083957E+02  0.25917468098E+03  0.26485307824E+03  0.00000000000E+00 0. -1.
         21    1    1    2  505  502 -0.12597798645E+02  0.31859292891E+02  0.12585827975E+04  0.12590489971E+04  0.00000000000E+00 0.  1.
          3    1    1    2  501    0  0.62478014132E+02 -0.69926245400E+02 -0.52552055232E+03  0.53382116196E+03  0.00000000000E+00 0.  1.
<scales pt_clust_3="89.98183" pt_clust_4="44.12918" pt_clust_5="34.25958" pt_clust_6="14000.00000"></scales>
<clustering>
<clus scale="   34.260">  1  5  2 -1</clus>
<clus scale="   44.129">  1  4  2 -1</clus>
<clus scale="   89.982">  1  3  2 -1</clus>
<clus scale="   34.260">  1  3  2 -1</clus>
</clustering>
</event>
<event>
 6    0  0.3584505E+002  0.1607726E+03  0.7546771E-02  0.1187827E+00
         21   -1    0    0  505  502  0.00000000000E+00  0.00000000000E+00  0.28015909051E+03  0.28015909051E+03  0.00000000000E+00 0. -1.
          2   -1    0    0  504    0 -0.00000000000E+00 -0.00000000000E+00 -0.11578642154E+04  0.11578642154E+04  0.00000000000E+00 0. -1.
         21    1    1    2  503  501 -0.15171733884E+03 -0.45778481378E+02  0.21077158373E+01  0.15848742135E+03  0.00000000000E+00 0. -1.
         21    1    1    2  504  502 -0.32227828302E+02  0.98539722189E+02 -0.31246975714E+02  0.10828242358E+03  0.00000000000E+00 0. -1.
         21    1    1    2  505  503  0.23357762557E+02 -0.31188787423E+02  0.15237734719E+03  0.15728058199E+03  0.00000000000E+00 0. -1.
          2    1    1    2  501    0  0.16058740458E+03 -0.21572453388E+02 -0.10009432122E+04  0.10139728790E+04  0.00000000000E+00 0. -1.
<scales pt_clust_3="160.77255" pt_clust_4="92.41409" pt_clust_5="38.96570" pt_clust_6="14000.00000"></scales>
<clustering>
<clus scale="   38.966">  1  5  2 -1</clus>
<clus scale="   92.414">  1  4  2 -1</clus>
<clus scale="  160.773">  1  3  2 -1</clus>
<clus scale="   38.966">  1  3  2 -1</clus>
</clustering>
</event>
<event>
 6    0  0.3584505E+002  0.7546920E+02  0.7546771E-02  0.1342424E+00
         -4   -1    0    0    0  501 -0.00000000000E+00  0.00000000000E+00  0.39237885829E+03  0.39237885829E+03  0.00000000000E+00 0.  1.
         21   -1    0    0  504  502  0.00000000000E+00 -0.00000000000E+00 -0.11458289542E+03  0.11458289542E+03  0.00000000000E+00 0. -1.
         21    1    1    2  503  502  0.46987409089E+02 -0.78329811959E+01 -0.65729149938E+02  0.81175694385E+02  0.00000000000E+00 0. -1.
         21    1    1    2  504  501 -0.67612932771E+02 -0.92414981090E+02  0.12467867024E+03  0.16928321896E+03  0.00000000000E+00 0.  1.
         21    1    1    2  505  503  0.33456210510E+02  0.39546335138E+02  0.35119039027E+02  0.62582565836E+02  0.00000000000E+00 0.  1.
         -4    1    1    2    0  505 -0.12830686827E+02  0.60701627148E+02  0.18372740354E+03  0.19392027453E+03  0.00000000000E+00 0.  1.
<scales pt_clust_3="47.63583" pt_clust_4="75.46920" pt_clust_5="14000.00000" pt_clust_6="60.14082"></scales>
<clustering>
<clus scale="   47.636">  2  3  1 -1</clus>
<clus scale="   60.141">  1  6  2 -1</clus>
<clus scale="   75.469">  1  4  2 -1</clus>
<clus scale="   47.636">  2  3  1 -1</clus>
</clustering>
</event>
<event>
 6    0  0.3584505E+002  0.1180297E+03  0.7546771E-02  0.1246383E+00
         21   -1    0    0  503  502  0.00000000000E+00  0.00000000000E+00  0.28273117009E+04  0.28273117009E+04  0.00000000000E+00 0.  1.
         -1   -1    0    0    0  501 -0.00000000000E+00 -0.00000000000E+00 -0.55351478508E+02  0.55351478508E+02  0.00000000000E+00 0.  1.
         21    1    1    2  503  504 -0.62454705985E+02 -0.46165803089E+01  0.36168989733E+03  0.36707149841E+03  0.00000000000E+00 0.  1.
         21    1    1    2  504  501  0.33339672077E+02  0.11751123926E+02 -0.36925024368E+01  0.35542330002E+02  0.00000000000E+00 0. -1.
         21    1    1    2  505  502  0.31148173561E+02 -0.11245703987E+03  0.23577716336E+04  0.23606575081E+04  0.00000000000E+00 0.  1.
         -1    1    1    2    0  505 -0.20331396537E+01  0.10532249625E+03  0.56191193933E+02  0.11939184289E+03  0.00000000000E+00 0.  1.
<scales pt_clust_3="60.06025" pt_clust_4="35.35000" pt_clust_5="118.02970" pt_clust_6="14000.00000"></scales>
<clustering>
<clus scale="   35.350">  2  4  1 -1</clus>
<clus scale="   60.060">  1  3  2 -1</clus>
<clus scale="  118.030">  1  5  2 -1</clus>
<clus scale="   60.060">  1  3  2 -1</clus>
</clustering>
</event>
<event>
 6    0  0.3584505E+002  0.1404598E+03  0.7546771E-02  0.1212712E+00
          1   -1    0    0  503    0 -0.00000000000E+00  0.00000000000E+00  0.67892059798E+03  0.67892059798E+03  0.00000000000E+00 0.  1.
         21   -1    0    0  504  502  0.00000000000E+00 -0.00000000000E+00 -0.37792432705E+03  0.37792432705E+03  0.00000000000E+00 0.  1.
         21    1    1    2  503  505 -0.81167670807E+01 -0.40299539210E+02  0.68340561301E+02  0.79751909616E+02  0.00000000000E+00 0.  1.
         21    1    1    2  504  501 -0.13207194826E+03  0.47038306584E+02 -0.32802673149E+03  0.35673118503E+03  0.00000000000E+00 0.  1.
         21    1    1    2  505  502  0.16521530487E+03  0.35903552249E+02  0.22704478752E+03  0.28308037298E+03  0.00000000000E+00 0. -1.
          1    1    1    2  501    0 -0.25026589531E+02 -0.42642319624E+02  0.33363765360E+03  0.33728145740E+03  0.00000000000E+00 0.  1.
<scales pt_clust_3="41.10882" pt_clust_4="14000.00000" pt_clust_5="140.45975" pt_clust_6="71.38553"></scales>
<clustering>
<clus scale="   41.109">  1  3  2 -1</clus>
<clus scale="   71.386">  1  6  2 -1</clus>
<clus scale="  140.460">  1  5  2 -1</clus>
<clus scale="  140.460">  2  3  1 -1</clus>
</clustering>
</event>
<event>
 6    0  0.3584505E+002  0.1974847E+03  0.7546771E-02  0.1151879E+00
         21   -1    0    0  505  502  0.00000000000E+00  0.00000000000E+00  0.54882558802E+03  0.54882558802E+03  0.00000000000E+00 0. -1.
          2   -1    0    0  504    0 -0.00000000000E+00 -0.00000000000E+00 -0.14249853265E+04  0.14249853265E+04  0.00000000000E+00 0.  1.
         21    1    1    2  503  502  0.25575596891E+02  0.30105088997E+02  0.79757077877E+02  0.89003477524E+02  0.00000000000E+00 0.  1.
         21    1    1    2  504  503  0.11008101935E+03 -0.79101825483E+02 -0.56143450650E+03  0.57756699586E+03  0.00000000000E+00 0.  1.
         21    1    1    2  505  501 -0.14817913753E+03  0.12904496874E+03  0.43315882001E+03  0.47564295865E+03  0.00000000000E+00 0. -1.
          2    1    1    2  501    0  0.12522521287E+02 -0.80048232250E+02 -0.82764112983E+03  0.83159748245E+03  0.00000000000E+00 0.  1.
<scales pt_clust_3="39.50225" pt_clust_4="14000.00000" pt_clust_5="197.48465" pt_clust_6="80.91206"></scales>
<clustering>
<clus scale="   39.502">  1  3  2 -1</clus>
<clus scale="   80.912">  2  6  1 -1</clus>
<clus scale="  197.485">  1  5  2 -1</clus>
<clus scale="   39.502">  1  3  2 -1</clus>
</clustering>
</event>
<event>
 6    0  0.3584505E+002  0.7515094E+02  0.7546771E-02  0.1343404E+00
          1   -1    0    0  504    0 -0.00000000000E+00  0.00000000000E+00  0.16767071167E+04  0.16767071167E+04  0.00000000000E+00 0. -1.
         21   -1    0    0  505  502  0.00000000000E+00 -0.00000000000E+00 -0.76761047372E+02  0.76761047372E+02  0.00000000000E+00 0. -1.
         21    1    1    2  503  502 -0.24640718959E+02 -0.17180144069E+02 -0.51471236711E+02  0.59595390674E+02  0.00000000000E+00 0. -1.
         21    1    1    2  504  503 -0.60132078788E+02 -0.86040052572E+02  0.26327456701E+03  0.28342945362E+03  0.00000000000E+00 0. -1.
         21    1    1    2  505  501  0.24342183722E+02  0.62722507166E+02  0.10167156823E+03  0.12191703163E+03  0.00000000000E+00 0. -1.
          1    1    1    2  501    0  0.60430614025E+02  0.40497689475E+02  0.12864711708E+04  0.12885262881E+04  0.00000000000E+00 0. -1.
<scales pt_clust_3="30.03868" pt_clust_4="75.15094" pt_clust_5="55.96489" pt_clust_6="14000.00000"></scales>
<clustering>
<clus scale="   30.039">  2  3  1 -1</clus>
<clus scale="   55.965">  2  5  1 -1</clus>
<clus scale="   75.151">  2  4  1 -1</clus>
<clus scale="   30.039">  2  3  1 -1</clus>
</clustering>
</event>
<event>
 6    0  0.3584505E+002  0.9421192E+02  0.7546771E-02  0.1292961E+00
         21   -1    0    0  501  502  0.00000000000E+00  0.00000000000E+00  0.85609028493E+01  0.85609028493E+01  0.00000000000E+00 0. -1.
          1   -1    0    0  504    0 -0.00000000000E+00 -0.00000000000E+00 -0.46168892500E+04  0.46168892500E+04  0.00000000000E+00 0. -1.
         21    1    1    2  503  502 -0.31022911765E+02  0.40959940339E+02 -0.15557413246E+03  0.16383970354E+03  0.00000000000E+00 0.  1.
         21    1    1    2  504  505 -0.43171344982E+02  0.21074578196E+02 -0.60040796267E+03  0.60232684193E+03  0.00000000000E+00 0. -1.
         21    1    1    2  505  503  0.10524533933E+03 -0.10457777988E+03 -0.17501525427E+04  0.17564301911E+04  0.00000000000E+00 0. -1.
          1    1    1    2  501    0 -0.31051082579E+02  0.42543261350E+02 -0.21021937093E+04  0.21028534162E+04  0.00000000000E+00 0. -1.
<scales pt_clust_3="53.09413" pt_clust_4="48.04064" pt_clust_5="94.21192" pt_clust_6="14000.00000"></scales>
<clustering>
<clus scale="   48.041">  2  4  1 -1</clus>
<clus scale="   53.094">  1  3  2 -1</clus>
<clus scale="   94.212">  1  5  2 -1</clus>
<clus scale="   53.094">  1  3  2 -1</clus>
</clustering>
</event>
<event>
 6    0  0.3584505E+002  0.1170684E+03  0.7546771E-02  0.1248013E+00
         21   -1    0    0  503  502  0.00000000000E+00  0.00000000000E+00  0.49003318547E+02  0.49003318547E+02  0.00000000000E+00 0. -1.
          2   -1    0    0  504    0 -0.00000000000E+00 -0.00000000000E+00 -0.28448203003E+04  0.28448203003E+04  0.00000000000E+00 0. -1.
         21    1    1    2  503  505 -0.51436667410E+02 -0.34107784657E+02 -0.61862033436E+01  0.62026936409E+02  0.00000000000E+00 0. -1.
         21    1    1    2  504  502  0.11335790519E+02  0.28232130168E+02 -0.26722509969E+02  0.40492540789E+02  0.00000000000E+00 0. -1.
         21    1    1    2  505  501 -0.77780911741E+02  0.32012325054E+02 -0.12517829336E+03  0.15081201648E+03  0.00000000000E+00 0.  1.
          2    1    1    2  501    0  0.11788178863E+03 -0.26136670565E+02 -0.26377299751E+04  0.26404921252E+04  0.00000000000E+00 0. -1.
<scales pt_clust_3="46.54123" pt_clust_4="30.42291" pt_clust_5="14000.00000" pt_clust_6="117.06840"></scales>
<clustering>
<clus scale="   30.423">  1  4  2 -1</clus>
<clus scale="   46.541">  1  3  2 -1</clus>
<clus scale="  117.068">  2  6  1 -1</clus>
<clus scale="   30.423">  1  3  2 -1</clus>
</clustering>
</event>
<event>
 6    0  0.3584505E+002  0.7806428E+02  0.7546771E-02  0.1334636E+00
          2   -1    0    0  502    0 -0.00000000000E+00  0.00000000000E+00  0.11772163618E+04  0.11772163618E+04  0.00000000000E+00 0.  1.
         21   -1    0    0  505  502  0.00000000000E+00 -0.00000000000E+00 -0.20678542975E+02  0.20678542975E+02  0.00000000000E+00 0.  1.
         21    1    1    2  503  501 -0.31451255185E+02 -0.81772308589E+02  0.50748991601E+03  0.51499699684E+03  0.00000000000E+00 0.  1.
         21    1    1    2  504  503  0.50264447268E+02 -0.34623564841E+02  0.17037086280E+03  0.18097385665E+03  0.00000000000E+00 0. -1.
         21    1    1    2  505  504  0.20149217829E+01  0.41921769447E+02  0.45510672729E+02  0.61908933084E+02  0.00000000000E+00 0.  1.
          2    1    1    2  501    0 -0.20828113866E+02  0.74474103983E+02  0.43316636729E+03  0.44001511819E+03  0.00000000000E+00 0.  1.
<scales pt_clust_3="78.06428" pt_clust_4="53.81469" pt_clust_5="41.97016" pt_clust_6="14000.00000"></scales>
<clustering>
<clus scale="   41.970">  2  5  1 -1</clus>
<clus scale="   53.815">  2  4  1 -1</clus>
<clus scale="   78.064">  2  3  1 -1</clus>
<clus scale="   41.970">  2  3  1 -1</clus>
</clustering>
</event>
<event>
 6    0  0.3584505E+002  0.9990152E+02  0.7546771E-02  0.1280503E+00
          2   -1    0    0  505    0 -0.00000000000E+00  0.00000000000E+00  0.23267169987E+03  0.23267169987E+03  0.00000000000E+00 0.  1.
         21   -1    0    0  504  502  0.00000000000E+00 -0.00000000000E+00 -0.62524495765E+03  0.62524495765E+03  0.00000000000E+00 0. -1.
         21    1    1    2  503  501  0.34616807319E+02  0.92384671939E+02 -0.26756743624E+03  0.28517640838E+03  0.00000000000E+00 0. -1.
         21    1    1    2  504  503 -0.30515240744E+02  0.12616076706E+02 -0.27848933793E+03  0.28044011241E+03  0.00000000000E+00 0. -1.
         21    1    1    2  505  502  0.31296628343E+02 -0.94336205630E+02 -0.31026930854E+02  0.10412237548E+03  0.00000000000E+00 0.  1.
          2    1    1    2  501    0 -0.35398194917E+02 -0.10664543015E+02  0.18451044725E+03  0.18817776124E+03  0.00000000000E+00 0.  1.
<scales pt_clust_3="14000.00000" pt_clust_4="33.02038" pt_clust_5="99.90152" pt_clust_6="37.10559"></scales>
<clustering>
<clus scale="   33.020">  2  4  1 -1</clus>
<clus scale="   37.106">  1  6  2 -1</clus>
<clus scale="   99.902">  1  5  2 -1</clus>
<clus scale="   33.020">  2  3  1 -1</clus>
</clustering>
</event>
<event>
 6    0  0.3584505E+002  0.1419510E+03  0.7546771E-02  0.1210728E+00
          2   -1    0    0  504    0 -0.00000000000E+00  0.00000000000E+00  0.70343754152E+03  0.70343754152E+03  0.00000000000E+00 0.  1.
         21   -1    0    0  505  502  0.00000000000E+00 -0.00000000000E+00 -0.19225016652E+03  0.19225016652E+03  0.00000000000E+00 0.  1.
         21    1    1    2  503  502  0.12086980887E+02 -0.33672618839E+02 -0.63964058499E+02  0.73289434069E+02  0.00000000000E+00 0.  1.
         21    1    1    2  504  503  0.87272500371E+02 -0.96947270107E+02 -0.19206059157E+02  0.13184891054E+03  0.00000000000E+00 0.  1.
         21    1    1    2  505  501  0.45130421087E+02  0.17506472391E+03  0.20753247977E+03  0.27523470461E+03  0.00000000000E+00 0.  1.
          2    1    1    2  501    0 -0.14448990234E+03 -0.44444834960E+02  0.38682501289E+03  0.41531465882E+03  0.00000000000E+00 0.  1.
<scales pt_clust_3="35.77625" pt_clust_4="150.89991" pt_clust_5="14000.00000" pt_clust_6="141.95098"></scales>
<clustering>
<clus scale="   35.776">  2  3  1 -1</clus>
<clus scale="  150.900">  2  4  1 -1</clus>
<clus scale="  141.951">  1  6  2 -1</clus>
<clus scale="   35.776">  2  3  1 -1</clus>
</clustering>
</event>
<event>
 6    0  0.3584505E+002  0.8984072E+02  0.7546771E-02  0.1303238E+00
          1   -1    0    0  503    0 -0.00000000000E+00  0.00000000000E+00  0.13254953506E+04  0.13254953506E+04  0.00000000000E+00 0.  1.
         21   -1    0    0  505  502  0.00000000000E+00 -0.00000000000E+00 -0.47635431740E+03  0.47635431740E+03  0.00000000000E+00 0.  1.
         21    1    1    2  503  504 -0.56574294565E+02  0.47376366793E+02  0.12769798837E+04  0.12791101572E+04  0.00000000000E+00 0.  1.
         21    1    1    2  504  502  0.12094450600E+03  0.61226359127E+02 -0.25438585888E+03  0.28825059546E+03  0.00000000000E+00 0.  1.
         21    1    1    2  505  501 -0.22707970727E+02 -0.52048628436E+02 -0.15007206965E+03  0.16045665379E+03  0.00000000000E+00 0. -1.
          1    1    1    2  501    0 -0.41662240711E+02 -0.56554097484E+02 -0.23380921929E+02  0.74032261572E+02  0.00000000000E+00 0.  1.
<scales pt_clust_3="73.73852" pt_clust_4="14000.00000" pt_clust_5="56.78654" pt_clust_6="89.84072"></scales>
<clustering>
<clus scale="   56.787">  2  5  1 -1</clus>
<clus scale="   73.739">  1  3  2 -1</clus>
<clus scale="   89.841">  1  6  2 -1</clus>
<clus scale="   56.787">  2  3  1 -1</clus>
</clustering>
</event>
<event>
 6    0  0.3818965E+002  0.1480754E+03  0.7546771E-02  0.1202858E+00
          1   -1    0    0  503    0 -0.00000000000E+00  0.00000000000E+00  0.28575275083E+04  0.28575275083E+04  0.00000000000E+00 0.  1.
         21   -1    0    0  505  502  0.00000000000E+00 -0.00000000000E+00 -0.46821419390E+03  0.46821419390E+03  0.00000000000E+00 0. -1.
         21    1    1    2  503  504  0.16661605928E+03 -0.81418369194E+02  0.37888872560E+03  0.42183708756E+03  0.00000000000E+00 0.  1.
         21    1    1    2  504  502 -0.11225906448E+03  0.66161411887E+02 -0.41971243278E+03  0.43947463659E+03  0.00000000000E+00 0. -1.
         21    1    1    2  505  501 -0.28631322279E+02 -0.27902771882E+02  0.67771939587E+01  0.40549323695E+02  0.00000000000E+00 0.  1.
          1    1    1    2  501    0 -0.25725672518E+02  0.43159729189E+02  0.24233598276E+04  0.24238806544E+04  0.00000000000E+00 0.  1.
<scales pt_clust_3="148.07543" pt_clust_4="14000.00000" pt_clust_5="39.97896" pt_clust_6="50.23976"></scales>
<clustering>
<clus scale="   39.979">  2  5  1 -1</clus>
<clus scale="   50.240">  1  6  2 -1</clus>
<clus scale="  148.075">  1  3  2 -1</clus>
<clus scale="   39.979">  2  3  1 -1</clus>
</clustering>
</event>
<event>
 6    0  0.7230264E+002  0.7010862E+02  0.7546771E-02  0.1359724E+00
         21   -1    0    0  505  502  0.00000000000E+00  0.00000000000E+00  0.97609964462E+03  0.97609964462E+03  0.00000000000E+00 0. -1.
          2   -1    0    0  504    0 -0.00000000000E+00 -0.00000000000E+00 -0.17431882872E+04  0.17431882872E+04  0.00000000000E+00 0.  1.
         21    1    1    2  503  502 -0.24418207204E+02 -0.96730719150E+02 -0.11628833903E+04  0.11671550283E+04  0.00000000000E+00 0.  1.
         21    1    1    2  504  503 -0.20132072368E+02  0.33556794155E+02 -0.36680176146E+02  0.53635753876E+02  0.00000000000E+00 0.  1.
         21    1    1    2  505  501 -0.34714276640E+02  0.60130099170E+02  0.96127577032E+03  0.96377996266E+03  0.00000000000E+00 0. -1.
          2    1    1    2  501    0  0.79264556212E+02  0.30438258252E+01 -0.52880084652E+03  0.53471718696E+03  0.00000000000E+00 0.  1.
<scales pt_clust_3="70.10862" pt_clust_4="39.13258" pt_clust_5="69.46018" pt_clust_6="14000.00000"></scales>
<clustering>
<clus scale="   39.133">  2  4  1 -1</clus>
<clus scale="   69.460">  1  5  2 -1</clus>
<clus scale="   70.109">  2  3  1 -1</clus>
<clus scale="   69.460">  1  3  2 -1</clus>
</clustering>
</event>
<event>
 6    0  0.3584505E+002  0.1039922E+03  0.7546771E-02  0.1272118E+00
         21   -1    0    0  503  502  0.00000000000E+00  0.00000000000E+00  0.85972850787E+02  0.85972850787E+02  0.00000000000E+00 0. -1.
         -1   -1    0    0    0  501 -0.00000000000E+00 -0.00000000000E+00 -0.47722658547E+03  0.47722658547E+03  0.00000000000E+00 0. -1.
         21    1    1    2  503  504  0.29558814580E+02  0.74377774277E+01 -0.14208867052E+01  0.30513324491E+02  0.00000000000E+00 0.  1.
         21    1    1    2  504  501 -0.51074323480E+02 -0.21704940267E+02 -0.57290284826E+02  0.79761316980E+02  0.00000000000E+00 0. -1.
         21    1    1    2  505  502 -0.62490444465E+02 -0.52661271946E+02  0.20210026581E+02  0.84182601449E+02  0.00000000000E+00 0. -1.
         -1    1    1    2    0  505  0.84005953365E+02  0.66928434786E+02 -0.35275258973E+03  0.36874219334E+03  0.00000000000E+00 0. -1.
<scales pt_clust_3="30.48022" pt_clust_4="50.76353" pt_clust_5="14000.00000" pt_clust_6="103.99218"></scales>
<clustering>
<clus scale="   30.480">  1  3  2 -1</clus>
<clus scale="   50.764">  1  4  2 -1</clus>
<clus scale="  103.992">  2  6  1 -1</clus>
<clus scale="   30.480">  1  3  2 -1</clus>
</clustering>
</event>
<event>
 6    0  0.3584505E+002  0.7068147E+02  0.7546771E-02  0.1357791E+00
          1   -1    0    0  503    0 -0.00000000000E+00  0.00000000000E+00  0.19490617868E+03  0.19490617868E+03  0.00000000000E+00 0.  1.
         21   -1    0    0  505  502  0.00000000000E+00 -0.00000000000E+00 -0.52396245649E+03  0.52396245649E+03  0.00000000000E+00 0.  1.
         21    1    1    2  503  502 -0.14753679228E+01 -0.45984003061E+02 -0.26729831204E+02  0.53208919593E+02  0.00000000000E+00 0.  1.
         21    1    1    2  504  501  0.90677921513E+02  0.26411786414E+02 -0.32155027536E+03  0.33513377552E+03  0.00000000000E+00 0.  1.
         21    1    1    2  505  504 -0.31928050619E+02  0.60269169431E+02 -0.14041847047E+03  0.15610611791E+03  0.00000000000E+00 0.  1.
          1    1    1    2  501    0 -0.57274502971E+02 -0.40696952784E+02  0.15964229922E+03  0.17441982214E+03  0.00000000000E+00 0.  1.
<scales pt_clust_3="46.00767" pt_clust_4="14000.00000" pt_clust_5="56.40317" pt_clust_6="70.68147"></scales>
<clustering>
<clus scale="   46.008">  2  3  1 -1</clus>
<clus scale="   56.403">  2  5  1 -1</clus>
<clus scale="   70.681">  1  6  2 -1</clus>
<clus scale="   46.008">  2  3  1 -1</clus>
</clustering>
</event>
<event>
 6    0  0.3584505E+002  0.1462454E+03  0.7546771E-02  0.1205164E+00
          1   -1    0    0  504    0 -0.00000000000E+00  0.00000000000E+00  0.19852156471E+04  0.19852156471E+04  0.00000000000E+00 0.  1.
         21   -1    0    0  503  502  0.00000000000E+00 -0.00000000000E+00 -0.15885976014E+03  0.15885976014E+03  0.00000000000E+00 0.  1.
         21    1    1    2  503  501 -0.18443584971E+03 -0.35280199808E+02  0.10723088909E+04  0.10886264890E+04  0.00000000000E+00 0.  1.
         21    1    1    2  504  505  0.10367324784E+03  0.13529090638E+02 -0.10657331875E+03  0.14929518036E+03  0.00000000000E+00 0.  1.
         21    1    1    2  505  502 -0.43610084448E+02  0.26778040186E+02  0.17786609745E+02  0.54178098786E+02  0.00000000000E+00 0. -1.
          1    1    1    2  501    0  0.12437268632E+03 -0.50269310162E+01  0.84283370513E+03  0.85197563911E+03  0.00000000000E+00 0.  1.
<scales pt_clust_3="14000.00000" pt_clust_4="74.38032" pt_clust_5="51.17522" pt_clust_6="146.24540"></scales>
<clustering>
<clus scale="   51.175">  2  5  1 -1</clus>
<clus scale="   74.380">  2  4  1 -1</clus>
<clus scale="  146.245">  1  6  2 -1</clus>
<clus scale="   51.175">  2  3  1 -1</clus>
</clustering>
</event>
<event>
 6    0  0.3584505E+002  0.7210735E+02  0.7546771E-02  0.1353070E+00
         21   -1    0    0  504  502  0.00000000000E+00  0.00000000000E+00  0.15421886141E+03  0.15421886141E+03  0.00000000000E+00 0. -1.
          2   -1    0    0  505    0 -0.00000000000E+00 -0.00000000000E+00 -0.20040031349E+04  0.20040031349E+04  0.00000000000E+00 0. -1.
         21    1    1    2  503  501  0.55645334725E+02  0.72805686936E+01 -0.49450484627E+02  0.74798130906E+02  0.00000000000E+00 0. -1.
         21    1    1    2  504  503  0.57281741113E+02  0.43308197676E+02  0.12876207208E+03  0.14743293071E+03  0.00000000000E+00 0. -1.
         21    1    1    2  505  502 -0.76222443722E+02 -0.55873438246E+02 -0.70178475455E+03  0.70811972416E+03  0.00000000000E+00 0. -1.
          2    1    1    2  501    0 -0.36704632116E+02  0.52846718765E+01 -0.12273111064E+04  0.12278712106E+04  0.00000000000E+00 0. -1.
<scales pt_clust_3="53.26839" pt_clust_4="72.10735" pt_clust_5="14000.00000" pt_clust_6="37.08312"></scales>
<clustering>
<clus scale="   37.083">  2  6  1 -1</clus>
<clus scale="   53.268">  2  3  1 -1</clus>
<clus scale="   72.107">  1  4  2 -1</clus>
<clus scale="   72.107">  1  3  2 -1</clus>
</clustering>
</event>
<event>
 6    0  0.3584505E+002  0.8274738E+02  0.7546771E-02  0.1321431E+00
         21   -1    0    0  504  502  0.00000000000E+00  0.00000000000E+00  0.38908892844E+03  0.38908892844E+03  0.00000000000E+00 0.  1.
          2   -1    0    0  505    0 -0.00000000000E+00 -0.00000000000E+00 -0.17798182507E+04  0.17798182507E+04  0.00000000000E+00 0.  1.
         21    1    1    2  503  501 -0.50117196701E+02 -0.54245871815E+02  0.22850212480E+02  0.77307698352E+02  0.00000000000E+00 0.  1.
         21    1    1    2  504  503 -0.31573287261E+02  0.37569802192E+02  0.32979169073E+03  0.33342303727E+03  0.00000000000E+00 0.  1.
         21    1    1    2  505  502  0.11657427891E+03 -0.17161470088E+02 -0.49392345218E+03  0.50778386659E+03  0.00000000000E+00 0.  1.
          2    1    1    2  501    0 -0.34883794947E+02  0.33837539710E+02 -0.12494477733E+04  0.12503925769E+04  0.00000000000E+00 0.  1.
<scales pt_clust_3="14000.00000" pt_clust_4="49.24073" pt_clust_5="82.74738" pt_clust_6="48.59895"></scales>
<clustering>
<clus scale="   48.599">  2  6  1 -1</clus>
<clus scale="   49.241">  1  4  2 -1</clus>
<clus scale="   82.747">  2  5  1 -1</clus>
<clus scale="   49.241">  1  3  2 -1</clus>
</clustering>
</event>
<event>
 6    0  0.3584505E+002  0.1315505E+03  0.7546771E-02  0.1225173E+00
         21   -1    0    0  505  502  0.00000000000E+00  0.00000000000E+00  0.10612698858E+03  0.10612698858E+03  0.00000000000E+00 0.  1.
          2   -1    0    0  503    0 -0.00000000000E+00 -0.00000000000E+00 -0.76631234229E+03  0.76631234229E+03  0.00000000000E+00 0.  1.
         21    1    1    2  503  504 -0.10541058035E+02 -0.10804907691E+03 -0.98883945193E+02  0.14684601303E+03  0.00000000000E+00 0. -1.
         21    1    1    2  504  502 -0.13159579858E+02  0.33131520879E+02 -0.38083835459E+01  0.35852140843E+02  0.00000000000E+00 0. -1.
         21    1    1    2  505  501  0.13351006965E+03  0.13334518472E+03 -0.95868529207E+02  0.21165219554E+03  0.00000000000E+00 0.  1.
          2    1    1    2  501    0 -0.10980943175E+03 -0.58427628693E+02 -0.46162449577E+03  0.47808898145E+03  0.00000000000E+00 0.  1.
<scales pt_clust_3="100.22008" pt_clust_4="35.64929" pt_clust_5="14000.00000" pt_clust_6="131.55048"></scales>
<clustering>
<clus scale="   35.649">  1  4  2 -1</clus>
<clus scale="  100.220">  1  3  2 -1</clus>
<clus scale="  131.550">  2  6  1 -1</clus>
<clus scale="   35.649">  1  3  2 -1</clus>
</clustering>
</event>
<event>
 6    0  0.3584505E+002  0.1181876E+03  0.7546771E-02  0.1246117E+00
          3   -1    0    0  502    0 -0.00000000000E+00  0.00000000000E+00  0.14425744539E+03  0.14425744539E+03  0.00000000000E+00 0. -1.
         21   -1    0    0  503  502  0.00000000000E+00 -0.00000000000E+00 -0.18870944663E+03  0.18870944663E+03  0.00000000000E+00 0. -1.
         21    1    1    2  503  505  0.71603478686E+02  0.63825949625E+02 -0.59622740055E+02  0.11294105160E+03  0.00000000000E+00 0. -1.
         21    1    1    2  504  501 -0.65125671987E+02 -0.62159046432E+02 -0.14191565882E+02  0.91140006294E+02  0.00000000000E+00 0. -1.
         21    1    1    2  505  504 -0.90904901706E+01 -0.39296184270E+02 -0.35579699055E+02  0.53784217895E+02  0.00000000000E+00 0.  1.
          3    1    1    2  501    0  0.26126834720E+01  0.37629281077E+02  0.64942003754E+02  0.75101616233E+02  0.00000000000E+00 0. -1.
<scales pt_clust_3="106.03610" pt_clust_4="34.93824" pt_clust_5="34.93824" pt_clust_6="37.71987"></scales>
<clustering>
<clus scale="   34.938">  4  5 -1 -1</clus>
<clus scale="   37.720">  1  6  2 -1</clus>
<clus scale="  106.036">  2  3  1 -1</clus>
<clus scale="  106.036">  2  3  1 -1</clus>
</clustering>
</event>
<event>
 6    0  0.3584505E+002  0.1714123E+03  0.7546771E-02  0.1176383E+00
         21   -1    0    0  501  502  0.00000000000E+00  0.00000000000E+00  0.12353412953E+03  0.12353412953E+03  0.00000000000E+00 0.  1.
          2   -1    0    0  504    0 -0.00000000000E+00 -0.00000000000E+00 -0.20537692755E+04  0.20537692755E+04  0.00000000000E+00 0.  1.
         21    1    1    2  503  505  0.84819152661E+02 -0.99705782162E+02 -0.81368888772E+01  0.13115540635E+03  0.00000000000E+00 0.  1.
         21    1    1    2  504  503 -0.12849199368E+03  0.20765404199E+03 -0.20883618132E+03  0.32131440090E+03  0.00000000000E+00 0.  1.
         21    1    1    2  505  502 -0.73976571446E+01 -0.32217200976E+02 -0.55796990406E+02  0.64853508065E+02  0.00000000000E+00 0.  1.
          2    1    1    2  501    0  0.51070498165E+02 -0.75731058856E+02 -0.16574650854E+04  0.16599800898E+04  0.00000000000E+00 0.  1.
<scales pt_clust_3="171.41230" pt_clust_4="14000.00000" pt_clust_5="33.05561" pt_clust_6="91.58105"></scales>
<clustering>
<clus scale="   33.056">  1  5  2 -1</clus>
<clus scale="   91.581">  2  6  1 -1</clus>
<clus scale="  171.412">  1  3  2 -1</clus>
<clus scale="   33.056">  1  3  2 -1</clus>
</clustering>
</event>
<event>
 6    0  0.3584505E+002  0.1271786E+03  0.7546771E-02  0.1231703E+00
         21   -1    0    0  503  502  0.00000000000E+00  0.00000000000E+00  0.12134532739E+03  0.12134532739E+03  0.00000000000E+00 0. -1.
          2   -1    0    0  504    0 -0.00000000000E+00 -0.00000000000E+00 -0.21301211136E+04  0.21301211136E+04  0.00000000000E+00 0.  1.
         21    1    1    2  503  505 -0.12008833501E+02  0.40068831634E+02  0.52375505735E+02  0.67029224608E+02  0.00000000000E+00 0. -1.
         21    1    1    2  504  502 -0.63259351490E+02 -0.15636760849E+02 -0.82181428301E+01  0.65679461876E+02  0.00000000000E+00 0. -1.
         21    1    1    2  505  501 -0.35461744255E+02 -0.93311530881E+02 -0.50110843705E+02  0.11169455563E+03  0.00000000000E+00 0. -1.
          2    1    1    2  501    0  0.11072992925E+03  0.68879460096E+02 -0.20028223054E+04  0.20070631989E+04  0.00000000000E+00 0.  1.
<scales pt_clust_3="41.82969" pt_clust_4="68.92346" pt_clust_5="127.17864" pt_clust_6="14000.00000"></scales>
<clustering>
<clus scale="   41.830">  1  3  2 -1</clus>
<clus scale="   68.923">  1  4  2 -1</clus>
<clus scale="  127.179">  1  5  2 -1</clus>
<clus scale="   41.830">  1  3  2 -1</clus>
</clustering>
</event>
<event>
 6    0  0.3584505E+002  0.1199963E+03  0.7546771E-02  0.1243103E+00
          2   -1    0    0  503    0 -0.00000000000E+00  0.00000000000E+00  0.12666891711E+04  0.12666891711E+04  0.00000000000E+00 0.  1.
         21   -1    0    0  505  502  0.00000000000E+00 -0.00000000000E+00 -0.69519270735E+02  0.69519270735E+02  0.00000000000E+00 0.  1.
         21    1    1    2  503  502 -0.13077746402E+03 -0.17959275638E+02  0.36276289692E+03  0.38603393640E+03  0.00000000000E+00 0.  1.
         21    1    1    2  504  501  0.11337658524E+03  0.48645381252E+01  0.28280913370E+03  0.30472761593E+03  0.00000000000E+00 0.  1.
         21    1    1    2  505  504  0.41838798726E+02 -0.71610735895E+01 -0.36809163650E+02  0.56184344638E+02  0.00000000000E+00 0.  1.
          2    1    1    2  501    0 -0.24437919944E+02  0.20255811103E+02  0.58840703337E+03  0.58926254483E+03  0.00000000000E+00 0.  1.
<scales pt_clust_3="14000.00000" pt_clust_4="119.99627" pt_clust_5="42.05474" pt_clust_6="31.74130"></scales>
<clustering>
<clus scale="   31.741">  1  6  2 -1</clus>
<clus scale="   42.055">  2  5  1 -1</clus>
<clus scale="  119.996">  1  4  2 -1</clus>
<clus scale="   42.055">  2  3  1 -1</clus>
</clustering>
</event>
<event>
 6    0  0.3584505E+002  0.1141958E+03  0.7546771E-02  0.1252991E+00
         21   -1    0    0  505  502  0.00000000000E+00  0.00000000000E+00  0.21330192588E+03  0.21330192588E+03  0.00000000000E+00 0.  1.
          2   -1    0    0  504    0 -0.00000000000E+00 -0.00000000000E+00 -0.15295345167E+04  0.15295345167E+04  0.00000000000E+00 0. -1.
         21    1    1    2  503  502 -0.31298926049E+01 -0.85565185121E+02  0.78914662432E+02  0.11644192149E+03  0.00000000000E+00 0.  1.
         21    1    1    2  504  503 -0.44174640269E+02  0.15927924843E+03  0.37369745965E+02  0.16946319877E+03  0.00000000000E+00 0.  1.
         21    1    1    2  505  501  0.33585757642E+02 -0.65656453047E+01 -0.14348631034E+02  0.37107870152E+02  0.00000000000E+00 0.  1.
          2    1    1    2  501    0  0.13718775232E+02 -0.67148418008E+02 -0.14181683682E+04  0.14198234522E+04  0.00000000000E+00 0. -1.
<scales pt_clust_3="14000.00000" pt_clust_4="114.19576" pt_clust_5="34.22150" pt_clust_6="68.58954"></scales>
<clustering>
<clus scale="   34.221">  1  5  2 -1</clus>
<clus scale="   68.590">  2  6  1 -1</clus>
<clus scale="  114.196">  2  4  1 -1</clus>
<clus scale="   34.221">  1  3  2 -1</clus>
</clustering>
</event>
<event>
 6    0  0.3584505E+002  0.8499638E+02  0.7546771E-02  0.1315442E+00
         21   -1    0    0  503  502  0.00000000000E+00  0.00000000000E+00  0.76710045927E+02  0.76710045927E+02  0.00000000000E+00 0. -1.
         -2   -1    0    0    0  501 -0.00000000000E+00 -0.00000000000E+00 -0.79370813366E+03  0.79370813366E+03  0.00000000000E+00 0. -1.
         21    1    1    2  503  501 -0.10906904405E+03 -0.27988592706E+01 -0.28908472351E+02  0.11286979116E+03  0.00000000000E+00 0. -1.
         21    1    1    2  504  505  0.74323832895E+02 -0.12734141329E+02 -0.14336922449E+03  0.16199050905E+03  0.00000000000E+00 0. -1.
         21    1    1    2  505  502  0.29668964976E+02 -0.29655172233E+02  0.65138795073E+01  0.42451234954E+02  0.00000000000E+00 0. -1.
         -2    1    1    2    0  504  0.50762461787E+01  0.45188172833E+02 -0.55123427040E+03  0.55310664442E+03  0.00000000000E+00 0. -1.
<scales pt_clust_3="84.99638" pt_clust_4="14000.00000" pt_clust_5="41.94850" pt_clust_6="45.00736"></scales>
<clustering>
<clus scale="   41.949">  1  5  2 -1</clus>
<clus scale="   45.007">  2  6  1 -1</clus>
<clus scale="   84.996">  1  3  2 -1</clus>
<clus scale="   41.949">  1  3  2 -1</clus>
</clustering>
</event>
<event>
 6    0  0.3584505E+002  0.9766160E+02  0.7546771E-02  0.1285292E+00
         21   -1    0    0  504  502  0.00000000000E+00  0.00000000000E+00  0.43551451650E+02  0.43551451650E+02  0.00000000000E+00 0.  1.
          1   -1    0    0  503    0 -0.00000000000E+00 -0.00000000000E+00 -0.26562540343E+04  0.26562540343E+04  0.00000000000E+00 0. -1.
         21    1    1    2  503  502 -0.85437608930E+02  0.77372066893E+02 -0.17476414060E+03  0.20935263694E+03  0.00000000000E+00 0.  1.
         21    1    1    2  504  505  0.44310564751E+02 -0.79088539267E+02 -0.75419596744E+02  0.11792598851E+03  0.00000000000E+00 0.  1.
         21    1    1    2  505  501  0.43740853123E+02 -0.28303697759E+02 -0.13352442396E+03  0.14332875962E+03  0.00000000000E+00 0.  1.
          1    1    1    2  501    0 -0.26138089442E+01  0.30020170133E+02 -0.22289944214E+04  0.22291981009E+04  0.00000000000E+00 0. -1.
<scales pt_clust_3="14000.00000" pt_clust_4="97.66160" pt_clust_5="46.74311" pt_clust_6="30.13375"></scales>
<clustering>
<clus scale="   30.134">  2  6  1 -1</clus>
<clus scale="   46.743">  2  5  1 -1</clus>
<clus scale="   97.662">  1  4  2 -1</clus>
<clus scale="   97.662">  1  3  2 -1</clus>
</clustering>
</event>
<event>
 6    0  0.3584505E+002  0.2836680E+03  0.7546771E-02  0.1093702E+00
          1   -1    0    0  505    0 -0.00000000000E+00  0.00000000000E+00  0.33980273114E+04  0.33980273114E+04  0.00000000000E+00 0. -1.
         21   -1    0    0  501  502  0.00000000000E+00 -0.00000000000E+00 -0.20214243237E+03  0.20214243237E+03  0.00000000000E+00 0. -1.
         21    1    1    2  503  504  0.28483879303E+03 -0.98752299745E+02  0.48671181590E+02  0.30537524235E+03  0.00000000000E+00 0. -1.
         21    1    1    2  504  502  0.21219518136E+02  0.14516032203E+03  0.53259004137E+02  0.15607148542E+03  0.00000000000E+00 0. -1.
         21    1    1    2  505  503 -0.23808929887E+03 -0.52220857152E+02  0.65611192661E+03  0.69992599065E+03  0.00000000000E+00 0. -1.
          1    1    1    2  501    0 -0.67969012300E+02  0.58128348693E+01  0.24378427667E+04  0.24387970254E+04  0.00000000000E+00 0. -1.
<scales pt_clust_3="14000.00000" pt_clust_4="146.44657" pt_clust_5="283.66801" pt_clust_6="68.21712"></scales>
<clustering>
<clus scale="   68.217">  1  6  2 -1</clus>
<clus scale="  146.447">  2  4  1 -1</clus>
<clus scale="  283.668">  1  5  2 -1</clus>
<clus scale="  146.447">  2  3  1 -1</clus>
</clustering>
</event>
<event>
 6    0  0.3584505E+002  0.1475662E+03  0.7546771E-02  0.1203496E+00
          2   -1    0    0  503    0 -0.00000000000E+00  0.00000000000E+00  0.23668034435E+04  0.23668034435E+04  0.00000000000E+00 0. -1.
         21   -1    0    0  505  502  0.00000000000E+00 -0.00000000000E+00 -0.25647173127E+03  0.25647173127E+03  0.00000000000E+00 0. -1.
         21    1    1    2  503  504 -0.99730218540E+02 -0.13263777430E+03  0.11235754175E+03  0.20040736725E+03  0.00000000000E+00 0. -1.
         21    1    1    2  504  502 -0.31670566409E+02 -0.26550742805E+02 -0.74900668435E+02  0.85545758820E+02  0.00000000000E+00 0. -1.
         21    1    1    2  505  501  0.74549088536E+02  0.23838465013E+02 -0.11796545078E+03  0.14156866388E+03  0.00000000000E+00 0. -1.
          2    1    1    2  501    0  0.56851696414E+02  0.13535005209E+03  0.21908402897E+04  0.21957533848E+04  0.00000000000E+00 0. -1.
<scales pt_clust_3="14000.00000" pt_clust_4="41.32755" pt_clust_5="51.41019" pt_clust_6="147.56616"></scales>
<clustering>
<clus scale="   41.328">  2  4  1 -1</clus>
<clus scale="   51.410">  2  5  1 -1</clus>
<clus scale="  147.566">  1  6  2 -1</clus>
<clus scale="   41.328">  2  3  1 -1</clus>
</clustering>
</event>
<event>
 6    0  0.3584505E+002  0.1610874E+03  0.7546771E-02  0.1187475E+00
         21   -1    0    0  504  502  0.00000000000E+00  0.00000000000E+00  0.85354628512E+03  0.85354628512E+03  0.00000000000E+00 0. -1.
          1   -1    0    0  505    0 -0.00000000000E+00 -0.00000000000E+00 -0.35380746172E+03  0.35380746172E+03  0.00000000000E+00 0.  1.
         21    1    1    2  503  501 -0.28342682188E+02  0.17510478309E+02  0.38281133013E+02  0.50748099757E+02  0.00000000000E+00 0.  1.
         21    1    1    2  504  503 -0.31889437780E+02 -0.42992288999E+01  0.38871332942E+03  0.39004291056E+03  0.00000000000E+00 0. -1.
         21    1    1    2  505  502 -0.19622129430E+02  0.12889277915E+03  0.38927399902E+03  0.41052724976E+03  0.00000000000E+00 0. -1.
          1    1    1    2  501    0  0.79854249397E+02 -0.14210402856E+03 -0.31652963804E+03  0.35603548677E+03  0.00000000000E+00 0.  1.
<scales pt_clust_3="35.75425" pt_clust_4="32.17794" pt_clust_5="161.08742" pt_clust_6="14000.00000"></scales>
<clustering>
<clus scale="   32.178">  1  4  2 -1</clus>
<clus scale="   35.754">  1  3  2 -1</clus>
<clus scale="  161.087">  1  5  2 -1</clus>
<clus scale="   32.178">  1  3  2 -1</clus>
</clustering>
</event>
<event>
 6    0  0.3584505E+002  0.1390157E+03  0.7546771E-02  0.1214660E+00
          1   -1    0    0  504    0 -0.00000000000E+00  0.00000000000E+00  0.24990526585E+03  0.24990526585E+03  0.00000000000E+00 0. -1.
         21   -1    0    0  503  502  0.00000000000E+00 -0.00000000000E+00 -0.15812187490E+03  0.15812187490E+03  0.00000000000E+00 0. -1.
         21    1    1    2  503  501 -0.20864712413E+02  0.13740913158E+03 -0.83657526318E+02  0.16221956533E+03  0.00000000000E+00 0. -1.
         21    1    1    2  504  505 -0.17894946993E+02 -0.60729054199E+02  0.66583287757E+02  0.91878078780E+02  0.00000000000E+00 0. -1.
         21    1    1    2  505  502  0.11033464035E+02 -0.51317883311E+02  0.17805421397E+02  0.55428291578E+02  0.00000000000E+00 0. -1.
          1    1    1    2  501    0  0.27726195372E+02 -0.25362194070E+02  0.91052208112E+02  0.98501205068E+02  0.00000000000E+00 0. -1.
<scales pt_clust_3="131.71657" pt_clust_4="40.06850" pt_clust_5="40.06850" pt_clust_6="37.57636"></scales>
<clustering>
<clus scale="   37.576">  1  6  2 -1</clus>
<clus scale="   40.069">  4  5 -1 -1</clus>
<clus scale="  131.717">  2  3  1 -1</clus>
<clus scale="  131.717">  2  3  1 -1</clus>
</clustering>
</event>
<event>
 6    0  0.3584505E+002  0.6829160E+02  0.7546771E-02  0.1366001E+00
         21   -1    0    0  505  502  0.00000000000E+00  0.00000000000E+00  0.31863579012E+03  0.31863579012E+03  0.00000000000E+00 0.  1.
          1   -1    0    0  503    0 -0.00000000000E+00 -0.00000000000E+00 -0.14835544599E+04  0.14835544599E+04  0.00000000000E+00 0.  1.
         21    1    1    2  503  504  0.56090228020E+02  0.82104262055E+02 -0.45321078891E+02  0.10927590640E+03  0.00000000000E+00 0.  1.
         21    1    1    2  504  502  0.14230788448E+02 -0.66658148868E+02  0.26153854350E+03  0.27027436780E+03  0.00000000000E+00 0.  1.
         21    1    1    2  505  501 -0.56496695951E+02  0.20360166008E+02 -0.23541435741E+02  0.64502807768E+02  0.00000000000E+00 0.  1.
          1    1    1    2  501    0 -0.13824320517E+02 -0.35806279195E+02 -0.13575946986E+04  0.13581371680E+04  0.00000000000E+00 0.  1.
<scales pt_clust_3="14000.00000" pt_clust_4="68.29160" pt_clust_5="61.83499" pt_clust_6="38.38231"></scales>
<clustering>
<clus scale="   38.382">  2  6  1 -1</clus>
<clus scale="   61.835">  2  5  1 -1</clus>
<clus scale="   68.292">  1  4  2 -1</clus>
<clus scale="   68.292">  1  3  2 -1</clus>
</clustering>
</event>
<event>
 6    0  0.3584505E+002  0.7333737E+02  0.7546771E-02  0.1349098E+00
         21   -1    0    0  503  502  0.00000000000E+00  0.00000000000E+00  0.30168922386E+03  0.30168922386E+03  0.00000000000E+00 0. -1.
          2   -1    0    0  504    0 -0.00000000000E+00 -0.00000000000E+00 -0.17007207884E+04  0.17007207884E+04  0.00000000000E+00 0. -1.
         21    1    1    2  503  501  0.67148184679E+02  0.76430345256E+02  0.69476707924E+02  0.12319695339E+03  0.00000000000E+00 0. -1.
         21    1    1    2  504  505 -0.59404089015E+02 -0.11261546092E+03 -0.44017471512E+03  0.45821923537E+03  0.00000000000E+00 0.  1.
         21    1    1    2  505  502 -0.21587550980E+02 -0.25548199040E+02  0.19408157100E+03  0.19694260340E+03  0.00000000000E+00 0. -1.
          2    1    1    2  501    0  0.13843455316E+02  0.61733314704E+02 -0.12224151283E+04  0.12240512201E+04  0.00000000000E+00 0. -1.
<scales pt_clust_3="14000.00000" pt_clust_4="73.33737" pt_clust_5="33.44746" pt_clust_6="63.03810"></scales>
<clustering>
<clus scale="   33.447">  1  5  2 -1</clus>
<clus scale="   63.038">  2  6  1 -1</clus>
<clus scale="   73.337">  2  4  1 -1</clus>
<clus scale="   33.447">  1  3  2 -1</clus>
</clustering>
</event>
<event>
 6    0  0.3584505E+002  0.2288505E+03  0.7546771E-02  0.1127451E+00
         21   -1    0    0  503  502  0.00000000000E+00  0.00000000000E+00  0.61942911275E+03  0.61942911275E+03  0.00000000000E+00 0.  1.
          2   -1    0    0  504    0 -0.00000000000E+00 -0.00000000000E+00 -0.45704291504E+03  0.45704291504E+03  0.00000000000E+00 0.  1.
         21    1    1    2  503  505  0.39297504192E+02  0.61011316507E+01  0.67260022363E+02  0.78137239851E+02  0.00000000000E+00 0. -1.
         21    1    1    2  504  502 -0.15855726662E+02 -0.95258524529E+02  0.20765493871E+01  0.96591421051E+02  0.00000000000E+00 0.  1.
         21    1    1    2  505  501  0.95980924000E+02 -0.18789877418E+03  0.41189123118E+03  0.46278793571E+03  0.00000000000E+00 0.  1.
          2    1    1    2  501    0 -0.11942270153E+03  0.27705616706E+03 -0.31884160522E+03  0.43895543118E+03  0.00000000000E+00 0.  1.
<scales pt_clust_3="39.76830" pt_clust_4="95.50462" pt_clust_5="228.85054" pt_clust_6="14000.00000"></scales>
<clustering>
<clus scale="   39.768">  1  3  2 -1</clus>
<clus scale="   95.505">  2  4  1 -1</clus>
<clus scale="  228.851">  1  5  2 -1</clus>
<clus scale="   39.768">  1  3  2 -1</clus>
</clustering>
</event>
<event>
 6    0  0.3584505E+002  0.1496718E+03  0.7546771E-02  0.1200877E+00
          2   -1    0    0  503    0 -0.00000000000E+00  0.00000000000E+00  0.16613428338E+04  0.16613428338E+04  0.00000000000E+00 0. -1.
         21   -1    0    0  504  502  0.00000000000E+00 -0.00000000000E+00 -0.15519577231E+03  0.15519577231E+03  0.00000000000E+00 0. -1.
         21    1    1    2  503  502 -0.49107526797E+02  0.30283858158E+02 -0.45487921964E+02  0.73469805346E+02  0.00000000000E+00 0. -1.
         21    1    1    2  504  505  0.86158664993E+02  0.10088035383E+03  0.68491522117E+02  0.14930254500E+03  0.00000000000E+00 0. -1.
         21    1    1    2  505  501 -0.12266627079E+03 -0.51626048990E+00  0.22400948405E+02  0.12469596226E+03  0.00000000000E+00 0. -1.
          2    1    1    2  501    0  0.85615132593E+02 -0.13064795150E+03  0.14607425130E+04  0.14690702935E+04  0.00000000000E+00 0. -1.
<scales pt_clust_3="57.69455" pt_clust_4="131.15055" pt_clust_5="14000.00000" pt_clust_6="149.67178"></scales>
<clustering>
<clus scale="   57.695">  2  3  1 -1</clus>
<clus scale="  131.151">  2  4  1 -1</clus>
<clus scale="  149.672">  1  6  2 -1</clus>
<clus scale="   57.695">  2  3  1 -1</clus>
</clustering>
</event>
<event>
 6    0  0.3584505E+002  0.1241555E+03  0.7546771E-02  0.1236395E+00
          2   -1    0    0  504    0 -0.00000000000E+00  0.00000000000E+00  0.50750174176E+03  0.50750174176E+03  0.00000000000E+00 0.  1.
         21   -1    0    0  505  502  0.00000000000E+00 -0.00000000000E+00 -0.19811505968E+03  0.19811505968E+03  0.00000000000E+00 0.  1.
         21    1    1    2  503  502 -0.65392741215E+02 -0.81498726780E+02 -0.63586104341E+02  0.12231698874E+03  0.00000000000E+00 0.  1.
         21    1    1    2  504  503  0.88284370488E+02  0.15439381305E+03  0.17356566861E+03  0.24850879442E+03  0.00000000000E+00 0.  1.
         21    1    1    2  505  501 -0.30908688414E+02  0.63848896976E+01 -0.57618707937E+02  0.65696494124E+02  0.00000000000E+00 0.  1.
          2    1    1    2  501    0  0.80170591405E+01 -0.79279975971E+02  0.25702582575E+03  0.26909452415E+03  0.00000000000E+00 0.  1.
<scales pt_clust_3="14000.00000" pt_clust_4="124.15554" pt_clust_5="31.56127" pt_clust_6="79.27705"></scales>
<clustering>
<clus scale="   31.561">  2  5  1 -1</clus>
<clus scale="   79.277">  1  6  2 -1</clus>
<clus scale="  124.156">  1  4  2 -1</clus>
<clus scale="   31.561">  2  3  1 -1</clus>
</clustering>
</event>
<event>
 6    0  0.3584505E+002  0.1224707E+03  0.7546771E-02  0.1239076E+00
          2   -1    0    0  504    0 -0.00000000000E+00  0.00000000000E+00  0.26772919413E+03  0.26772919413E+03  0.00000000000E+00 0.  1.
         21   -1    0    0  503  502  0.00000000000E+00 -0.00000000000E+00 -0.31298482754E+03  0.31298482754E+03  0.00000000000E+00 0.  1.
         21    1    1    2  503  501 -0.78943072948E+02 -0.33249766235E+02 -0.55320203489E+02  0.10196999870E+03  0.00000000000E+00 0.  1.
         21    1    1    2  504  505  0.70694456801E+00  0.34126334608E+02  0.81196273854E+01  0.35086105986E+02  0.00000000000E+00 0.  1.
         21    1    1    2  505  502 -0.56266411967E+02 -0.15670145427E+01 -0.19623283312E+03  0.20414624524E+03  0.00000000000E+00 0.  1.
          2    1    1    2  501    0  0.13450254035E+03  0.69044617064E+00  0.19817777581E+03  0.23951167174E+03  0.00000000000E+00 0.  1.
<scales pt_clust_3="122.47073" pt_clust_4="34.13366" pt_clust_5="56.26426" pt_clust_6="14000.00000"></scales>
<clustering>
<clus scale="   34.134">  1  4  2 -1</clus>
<clus scale="   56.264">  2  5  1 -1</clus>
<clus scale="  122.471">  2  3  1 -1</clus>
<clus scale="   56.264">  2  3  1 -1</clus>
</clustering>
</event>
<event>
 6    0  0.3584505E+002  0.1087289E+03  0.7546771E-02  0.1262942E+00
         21   -1    0    0  505  502  0.00000000000E+00  0.00000000000E+00  0.83619524129E+02  0.83619524129E+02  0.00000000000E+00 0. -1.
          2   -1    0    0  504    0 -0.00000000000E+00 -0.00000000000E+00 -0.12017569503E+04  0.12017569503E+04  0.00000000000E+00 0. -1.
         21    1    1    2  503  502  0.12139910277E+02 -0.13558803772E+03 -0.18230712946E+03  0.22752446648E+03  0.00000000000E+00 0. -1.
         21    1    1    2  504  503 -0.11603501317E+01  0.40024088027E+02 -0.13948638554E+03  0.14511969469E+03  0.00000000000E+00 0. -1.
         21    1    1    2  505  501 -0.22405675076E+02  0.24564123324E+02  0.51796253117E+02  0.61548860812E+02  0.00000000000E+00 0. -1.
          2    1    1    2  501    0  0.11426114931E+02  0.70999826372E+02 -0.84814016423E+03  0.85118345240E+03  0.00000000000E+00 0. -1.
<scales pt_clust_3="14000.00000" pt_clust_4="42.73543" pt_clust_5="33.24771" pt_clust_6="108.72888"></scales>
<clustering>
<clus scale="   33.248">  1  5  2 -1</clus>
<clus scale="   42.735">  2  4  1 -1</clus>
<clus scale="  108.729">  2  6  1 -1</clus>
<clus scale="   33.248">  1  3  2 -1</clus>
</clustering>
</event>
<event>
 6    0  0.3584505E+002  0.1530549E+03  0.7546771E-02  0.1196769E+00
          2   -1    0    0  503    0 -0.00000000000E+00  0.00000000000E+00  0.41770239773E+02  0.41770239773E+02  0.00000000000E+00 0.  1.
         21   -1    0    0  504  502  0.00000000000E+00 -0.00000000000E+00 -0.16518866367E+04  0.16518866367E+04  0.00000000000E+00 0.  1.
         21    1    1    2  503  505 -0.14820155726E+03 -0.89465724383E+02 -0.24698465560E+03  0.30161106995E+03  0.00000000000E+00 0.  1.
         21    1    1    2  504  501  0.14147302373E+03  0.10471006355E+03 -0.11327505948E+04  0.11463431964E+04  0.00000000000E+00 0.  1.
         21    1    1    2  505  502 -0.23998929686E+02 -0.30612306243E+02 -0.18351689032E+03  0.18759400565E+03  0.00000000000E+00 0.  1.
          2    1    1    2  501    0  0.30727463217E+02  0.15367967073E+02 -0.46864256194E+02  0.58108604495E+02  0.00000000000E+00 0.  1.
<scales pt_clust_3="14000.00000" pt_clust_4="153.05492" pt_clust_5="37.15616" pt_clust_6="34.35624"></scales>
<clustering>
<clus scale="   34.356">  1  6  2 -1</clus>
<clus scale="   37.156">  2  5  1 -1</clus>
<clus scale="  153.055">  2  4  1 -1</clus>
<clus scale="   37.156">  2  3  1 -1</clus>
</clustering>
</event>
<event>
 6    0  0.3584505E+002  0.9514352E+02  0.7546771E-02  0.1290853E+00
          1   -1    0    0  503    0 -0.00000000000E+00  0.00000000000E+00  0.55417531416E+03  0.55417531416E+03  0.00000000000E+00 0.  1.
         21   -1    0    0  504  502  0.00000000000E+00 -0.00000000000E+00 -0.33898874833E+03  0.33898874833E+03  0.00000000000E+00 0. -1.
         21    1    1    2  503  505 -0.68558801545E+02  0.16155551580E+02 -0.48365065181E+02  0.85442908694E+02  0.00000000000E+00 0. -1.
         21    1    1    2  504  501  0.12643382268E+03  0.27729372828E+02 -0.26398954964E+02  0.13210349903E+03  0.00000000000E+00 0. -1.
         21    1    1    2  505  502 -0.42485469214E+02 -0.24688255914E+01 -0.18945723817E+03  0.19417815348E+03  0.00000000000E+00 0. -1.
          1    1    1    2  501    0 -0.15389551916E+02 -0.41416098816E+02  0.47940782414E+03  0.48143950129E+03  0.00000000000E+00 0.  1.
<scales pt_clust_3="95.14352" pt_clust_4="14000.00000" pt_clust_5="42.55714" pt_clust_6="44.30187"></scales>
<clustering>
<clus scale="   42.557">  2  5  1 -1</clus>
<clus scale="   44.302">  1  6  2 -1</clus>
<clus scale="   95.144">  2  3  1 -1</clus>
<clus scale="   42.557">  2  3  1 -1</clus>
</clustering>
</event>
<event>
 6    0  0.3584505E+002  0.9257156E+02  0.7546771E-02  0.1296741E+00
          1   -1    0    0  503    0 -0.00000000000E+00  0.00000000000E+00  0.10203810207E+04  0.10203810207E+04  0.00000000000E+00 0.  1.
         21   -1    0    0  504  502  0.00000000000E+00 -0.00000000000E+00 -0.51428725586E+03  0.51428725586E+03  0.00000000000E+00 0. -1.
         21    1    1    2  503  502  0.91840961877E+02  0.33945587734E+02 -0.17789165565E+03  0.20305788917E+03  0.00000000000E+00 0.  1.
         21    1    1    2  504  505  0.37711224629E+02  0.19376314219E+02 -0.27528286863E+03  0.27852869830E+03  0.00000000000E+00 0. -1.
         21    1    1    2  505  501 -0.40200308490E+02 -0.29334510843E+02 -0.30914881766E+02  0.58585904821E+02  0.00000000000E+00 0.  1.
          1    1    1    2  501    0 -0.89351878016E+02 -0.23987391110E+02  0.99018317088E+03  0.99449578427E+03  0.00000000000E+00 0.  1.
<scales pt_clust_3="14000.00000" pt_clust_4="42.39785" pt_clust_5="41.88763" pt_clust_6="92.57156"></scales>
<clustering>
<clus scale="   42.398">  2  4  1 -1</clus>
<clus scale="   41.888">  2  5  1 -1</clus>
<clus scale="   92.572">  1  6  2 -1</clus>
<clus scale="   42.398">  2  3  1 -1</clus>
</clustering>
</event>
<event>
 6    0  0.3584505E+002  0.1043297E+03  0.7546771E-02  0.1271446E+00
          2   -1    0    0  503    0 -0.00000000000E+00  0.00000000000E+00  0.52401934702E+03  0.52401934702E+03  0.00000000000E+00 0. -1.
         21   -1    0    0  504  502  0.00000000000E+00 -0.00000000000E+00 -0.79019241077E+02  0.79019241077E+02  0.00000000000E+00 0.  1.
         21    1    1    2  503  505  0.26912496851E+02  0.10628862940E+03  0.40206367835E+02  0.11678230705E+03  0.00000000000E+00 0.  1.
         21    1    1    2  504  501 -0.28669073008E+02 -0.82322657933E+02  0.15762289909E+03  0.18012194224E+03  0.00000000000E+00 0. -1.
         21    1    1    2  505  502  0.37641880827E+02 -0.50525989297E+01 -0.15007078735E+02  0.40836899494E+02  0.00000000000E+00 0.  1.
          2    1    1    2  501    0 -0.35885304669E+02 -0.18913372537E+02  0.26217791775E+03  0.26529743932E+03  0.00000000000E+00 0. -1.
<scales pt_clust_3="104.32965" pt_clust_4="14000.00000" pt_clust_5="37.97947" pt_clust_6="39.62553"></scales>
<clustering>
<clus scale="   37.979">  2  5  1 -1</clus>
<clus scale="   39.626">  1  6  2 -1</clus>
<clus scale="  104.330">  2  3  1 -1</clus>
<clus scale="   37.979">  2  3  1 -1</clus>
</clustering>
</event>
<event>
 6    0  0.3584505E+002  0.1150120E+03  0.7546771E-02  0.1251560E+00
         21   -1    0    0  505  502  0.00000000000E+00  0.00000000000E+00  0.86672888599E+03  0.86672888599E+03  0.00000000000E+00 0.  1.
          2   -1    0    0  504    0 -0.00000000000E+00 -0.00000000000E+00 -0.40449486943E+03  0.40449486943E+03  0.00000000000E+00 0.  1.
         21    1    1    2  503  502 -0.84000557760E+01  0.83131937535E+02  0.12105321950E+03  0.14708963909E+03  0.00000000000E+00 0.  1.
         21    1    1    2  504  503  0.49741025724E+02 -0.93751123394E+02 -0.15489155099E+03  0.18776271021E+03  0.00000000000E+00 0.  1.
         21    1    1    2  505  501 -0.34442590617E+00  0.40476734034E+02  0.71271901257E+03  0.71386754760E+03  0.00000000000E+00 0.  1.
          2    1    1    2  501    0 -0.40996544042E+02 -0.29857548175E+02 -0.21664666453E+03  0.22250385852E+03  0.00000000000E+00 0.  1.
<scales pt_clust_3="115.01204" pt_clust_4="14000.00000" pt_clust_5="40.47820" pt_clust_6="50.27118"></scales>
<clustering>
<clus scale="   40.478">  1  5  2 -1</clus>
<clus scale="   50.271">  2  6  1 -1</clus>
<clus scale="  115.012">  1  3  2 -1</clus>
<clus scale="   40.478">  1  3  2 -1</clus>
</clustering>
</event>
<event>
 6    0  0.3584505E+002  0.6785521E+02  0.7546771E-02  0.1367542E+00
          1   -1    0    0  504    0 -0.00000000000E+00  0.00000000000E+00  0.41601832152E+04  0.41601832152E+04  0.00000000000E+00 0.  1.
         21   -1    0    0  505  502  0.00000000000E+00 -0.00000000000E+00 -0.66617765064E+02  0.66617765064E+02  0.00000000000E+00 0. -1.
         21    1    1    2  503  501 -0.14044454022E+02  0.76576156468E+02  0.24181925459E+04  0.24194454619E+04  0.00000000000E+00 0.  1.
         21    1    1    2  504  502 -0.27351979073E+02  0.32780234733E+02  0.12959188019E+02  0.44616309826E+02  0.00000000000E+00 0. -1.
         21    1    1    2  505  503  0.10536990127E+02 -0.98027176925E+02 -0.13989822700E+01  0.98601788667E+02  0.00000000000E+00 0. -1.
          1    1    1    2  501    0  0.30859442968E+02 -0.11329214276E+02  0.16638126985E+04  0.16641374198E+04  0.00000000000E+00 0.  1.
<scales pt_clust_3="14000.00000" pt_clust_4="42.36489" pt_clust_5="67.85521" pt_clust_6="32.87334"></scales>
<clustering>
<clus scale="   32.873">  1  6  2 -1</clus>
<clus scale="   42.365">  2  4  1 -1</clus>
<clus scale="   67.855">  2  5  1 -1</clus>
<clus scale="   42.365">  2  3  1 -1</clus>
</clustering>
</event>
<event>
 6    0  0.3584505E+002  0.1568930E+03  0.7546771E-02  0.1192250E+00
         21   -1    0    0  503  502  0.00000000000E+00  0.00000000000E+00  0.62451332198E+03  0.62451332198E+03  0.00000000000E+00 0. -1.
         -1   -1    0    0    0  501 -0.00000000000E+00 -0.00000000000E+00 -0.88388601468E+03  0.88388601468E+03  0.00000000000E+00 0. -1.
         21    1    1    2  503  501  0.42557041791E+02 -0.25048484356E+02 -0.35713638106E+03  0.36053421897E+03  0.00000000000E+00 0. -1.
         21    1    1    2  504  502 -0.44656027001E+02 -0.30023080923E+02  0.48263856774E+03  0.48562900778E+03  0.00000000000E+00 0. -1.
         21    1    1    2  505  504 -0.11284804935E+03 -0.16869219999E+02  0.10431519847E+03  0.15459920264E+03  0.00000000000E+00 0.  1.
         -1    1    1    2    0  505  0.11494703456E+03  0.71940785278E+02 -0.48919007785E+03  0.50763690726E+03  0.00000000000E+00 0. -1.
<scales pt_clust_3="49.38146" pt_clust_4="53.74965" pt_clust_5="156.89304" pt_clust_6="14000.00000"></scales>
<clustering>
<clus scale="   49.381">  2  3  1 -1</clus>
<clus scale="   53.750">  1  4  2 -1</clus>
<clus scale="  156.893">  1  5  2 -1</clus>
<clus scale="   53.750">  1  3  2 -1</clus>
</clustering>
</event>
<event>
 6    0  0.3584505E+002  0.9209951E+02  0.7546771E-02  0.1297846E+00
          3   -1    0    0  504    0 -0.00000000000E+00  0.00000000000E+00  0.45067128805E+03  0.45067128805E+03  0.00000000000E+00 0.  1.
         21   -1    0    0  503  502  0.00000000000E+00 -0.00000000000E+00 -0.92890881523E+03  0.92890881523E+03  0.00000000000E+00 0.  1.
         21    1    1    2  503  501  0.63007983690E+02  0.35303662144E+02 -0.76194741214E+03  0.76536279857E+03  0.00000000000E+00 0.  1.
         21    1    1    2  504  505  0.68260540667E+02  0.23771708321E+02  0.26073718231E+03  0.27057064469E+03  0.00000000000E+00 0.  1.
         21    1    1    2  505  502 -0.57080582124E+01  0.35894131767E+02 -0.12342522404E+03  0.12866528884E+03  0.00000000000E+00 0.  1.
          3    1    1    2  501    0 -0.12556046615E+03 -0.94969502232E+02  0.14639792669E+03  0.21498137117E+03  0.00000000000E+00 0.  1.
<scales pt_clust_3="92.09951" pt_clust_4="72.32098" pt_clust_5="36.34516" pt_clust_6="14000.00000"></scales>
<clustering>
<clus scale="   36.345">  2  5  1 -1</clus>
<clus scale="   72.321">  1  4  2 -1</clus>
<clus scale="   92.100">  2  3  1 -1</clus>
<clus scale="   36.345">  2  3  1 -1</clus>
</clustering>
</event>
<event>
 6    0  0.3584505E+002  0.6043836E+02  0.7546771E-02  0.1396001E+00
         -3   -1    0    0    0  501 -0.00000000000E+00  0.00000000000E+00  0.54108760671E+03  0.54108760671E+03  0.00000000000E+00 0.  1.
         21   -1    0    0  503  502  0.00000000000E+00 -0.00000000000E+00 -0.69860224929E+03  0.69860224929E+03  0.00000000000E+00 0.  1.
         21    1    1    2  503  505  0.34519921287E+02 -0.49064824605E+02 -0.65841147245E+03  0.66113890298E+03  0.00000000000E+00 0.  1.
         21    1    1    2  504  502 -0.78746875640E+02  0.70429500085E+02  0.10827772590E+03  0.15127938006E+03  0.00000000000E+00 0.  1.
         21    1    1    2  505  501  0.43913220483E+02  0.16803815421E+02  0.17429010606E+02  0.50144885647E+02  0.00000000000E+00 0.  1.
         -3    1    1    2    0  504  0.31373386998E+00 -0.38168490901E+02  0.37519009336E+03  0.37712668731E+03  0.00000000000E+00 0.  1.
<scales pt_clust_3="60.43836" pt_clust_4="14000.00000" pt_clust_5="44.88591" pt_clust_6="38.16978"></scales>
<clustering>
<clus scale="   38.170">  1  6  2 -1</clus>
<clus scale="   44.886">  1  5  2 -1</clus>
<clus scale="   60.438">  2  3  1 -1</clus>
<clus scale="   60.438">  2  3  1 -1</clus>
</clustering>
</event>
<event>
 6    0  0.3584505E+002  0.1707491E+03  0.7546771E-02  0.1177069E+00
         21   -1    0    0  503  502  0.00000000000E+00  0.00000000000E+00  0.14266505304E+03  0.14266505304E+03  0.00000000000E+00 0.  1.
          2   -1    0    0  504    0 -0.00000000000E+00 -0.00000000000E+00 -0.19948133819E+04  0.19948133819E+04  0.00000000000E+00 0.  1.
         21    1    1    2  503  501 -0.24196276850E+02  0.18095599099E+02  0.66967511621E+02  0.73468075604E+02  0.00000000000E+00 0.  1.
         21    1    1    2  504  505  0.10211968670E+03 -0.34377294423E+02 -0.42564738925E+03  0.43907394452E+03  0.00000000000E+00 0.  1.
         21    1    1    2  505  502 -0.16862425829E+03  0.27928122546E+02 -0.49318938058E+02  0.17789457036E+03  0.00000000000E+00 0. -1.
          2    1    1    2  501    0  0.90700848439E+02 -0.11646427223E+02 -0.14441495132E+04  0.14470418445E+04  0.00000000000E+00 0.  1.
<scales pt_clust_3="30.21441" pt_clust_4="170.74908" pt_clust_5="14000.00000" pt_clust_6="90.92094"></scales>
<clustering>
<clus scale="   30.214">  1  3  2 -1</clus>
<clus scale="   90.921">  2  6  1 -1</clus>
<clus scale="  170.749">  2  4  1 -1</clus>
<clus scale="   30.214">  1  3  2 -1</clus>
</clustering>
</event>
<event>
 6    0  0.3584505E+002  0.1633036E+03  0.7546771E-02  0.1185017E+00
         21   -1    0    0  503  502  0.00000000000E+00  0.00000000000E+00  0.55708594599E+03  0.55708594599E+03  0.00000000000E+00 0. -1.
          2   -1    0    0  505    0 -0.00000000000E+00 -0.00000000000E+00 -0.29455892848E+04  0.29455892848E+04  0.00000000000E+00 0. -1.
         21    1    1    2  503  501  0.14639056378E+03 -0.41244219529E+02 -0.21795260534E+03  0.26577174602E+03  0.00000000000E+00 0. -1.
         21    1    1    2  504  502 -0.10786347659E+03  0.24237918979E+02  0.31889680514E+03  0.33751619017E+03  0.00000000000E+00 0.  1.
         21    1    1    2  505  504 -0.46485358177E+02 -0.22397162621E+02  0.20156992569E+03  0.20806959500E+03  0.00000000000E+00 0. -1.
          2    1    1    2  501    0  0.79582709902E+01  0.39403463171E+02 -0.26910174643E+04  0.26913176996E+04  0.00000000000E+00 0. -1.
<scales pt_clust_3="154.00252" pt_clust_4="37.11443" pt_clust_5="37.11443" pt_clust_6="40.19909"></scales>
<clustering>
<clus scale="   37.114">  4  5 -1 -1</clus>
<clus scale="   40.199">  2  6  1 -1</clus>
<clus scale="  154.003">  2  3  1 -1</clus>
<clus scale="  163.304">  1  3  2 -1</clus>
</clustering>
</event>
<event>
 6    0  0.3584505E+002  0.7636605E+02  0.7546771E-02  0.1339692E+00
          2   -1    0    0  503    0 -0.00000000000E+00  0.00000000000E+00  0.16746331281E+04  0.16746331281E+04  0.00000000000E+00 0.  1.
         21   -1    0    0  505  502  0.00000000000E+00 -0.00000000000E+00 -0.37467229863E+03  0.37467229863E+03  0.00000000000E+00 0. -1.
         21    1    1    2  503  504 -0.11726745225E+03  0.28469619771E+02  0.14090525703E+04  0.14142104937E+04  0.00000000000E+00 0.  1.
         21    1    1    2  504  502  0.90947832223E+02 -0.57663630747E+02 -0.32894911392E+03  0.34612732057E+03  0.00000000000E+00 0. -1.
         21    1    1    2  505  501 -0.39129106151E+02  0.29185665975E+01 -0.16311464398E+02  0.42493162391E+02  0.00000000000E+00 0. -1.
          2    1    1    2  501    0  0.65448726175E+02  0.26275444378E+02  0.23616883750E+03  0.24647445008E+03  0.00000000000E+00 0.  1.
<scales pt_clust_3="76.36605" pt_clust_4="14000.00000" pt_clust_5="39.23780" pt_clust_6="70.00091"></scales>
<clustering>
<clus scale="   39.238">  2  5  1 -1</clus>
<clus scale="   70.001">  1  6  2 -1</clus>
<clus scale="   76.366">  1  3  2 -1</clus>
<clus scale="   39.238">  2  3  1 -1</clus>
</clustering>
</event>
<event>
 6    0  0.3584505E+002  0.7652163E+02  0.7546771E-02  0.1339223E+00
         21   -1    0    0  505  502  0.00000000000E+00  0.00000000000E+00  0.12038771326E+03  0.12038771326E+03  0.00000000000E+00 0.  1.
          1   -1    0    0  504    0 -0.00000000000E+00 -0.00000000000E+00 -0.10311176065E+04  0.10311176065E+04  0.00000000000E+00 0.  1.
         21    1    1    2  503  501 -0.52428386577E+02  0.20101983636E+01  0.10030235880E+02  0.53417059526E+02  0.00000000000E+00 0.  1.
         21    1    1    2  504  502  0.40974692769E+02  0.87007661404E+02 -0.42125840856E+03  0.43209710179E+03  0.00000000000E+00 0. -1.
         21    1    1    2  505  503 -0.22461812167E+02 -0.40673548420E+02  0.75127902194E+02  0.88335000057E+02  0.00000000000E+00 0.  1.
          1    1    1    2  501    0  0.33915505975E+02 -0.48344311348E+02 -0.57462962277E+03  0.57765615841E+03  0.00000000000E+00 0.  1.
<scales pt_clust_3="14000.00000" pt_clust_4="76.52163" pt_clust_5="46.46365" pt_clust_6="59.87528"></scales>
<clustering>
<clus scale="   46.464">  1  5  2 -1</clus>
<clus scale="   59.875">  2  6  1 -1</clus>
<clus scale="   76.522">  2  4  1 -1</clus>
<clus scale="   46.464">  1  3  2 -1</clus>
</clustering>
</event>
<event>
 6    0  0.3584505E+002  0.3356047E+03  0.7546771E-02  0.1068684E+00
          1   -1    0    0  504    0 -0.00000000000E+00  0.00000000000E+00  0.15991574785E+04  0.15991574785E+04  0.00000000000E+00 0. -1.
         21   -1    0    0  501  502  0.00000000000E+00 -0.00000000000E+00 -0.15779615630E+03  0.15779615630E+03  0.00000000000E+00 0. -1.
         21    1    1    2  503  505 -0.31216979984E+03 -0.76355293100E+02  0.17198285468E+03  0.36449721127E+03  0.00000000000E+00 0. -1.
         21    1    1    2  504  503 -0.31201794361E+02 -0.33487926487E+02 -0.49482652091E+01  0.46037794477E+02  0.00000000000E+00 0.  1.
         21    1    1    2  505  502  0.48322957188E+02  0.58395706576E+01  0.18272828745E+02  0.51991393972E+02  0.00000000000E+00 0.  1.
          1    1    1    2  501    0  0.29504863701E+03  0.10400364893E+03  0.12560539040E+04  0.12944272351E+04  0.00000000000E+00 0. -1.
<scales pt_clust_3="38.98076" pt_clust_4="38.98076" pt_clust_5="48.67452" pt_clust_6="319.31442"></scales>
<clustering>
<clus scale="   38.981">  3  4 -1 -1</clus>
<clus scale="   48.675">  2  5  1 -1</clus>
<clus scale="  319.314">  1  6  2 -1</clus>
<clus scale="   48.675">  2  3  1 -1</clus>
</clustering>
</event>
<event>
 6    0  0.3584505E+002  0.8764889E+02  0.7546771E-02  0.1308647E+00
         21   -1    0    0  505  502  0.00000000000E+00  0.00000000000E+00  0.79574083610E+03  0.79574083610E+03  0.00000000000E+00 0.  1.
          2   -1    0    0  504    0 -0.00000000000E+00 -0.00000000000E+00 -0.24324071564E+04  0.24324071564E+04  0.00000000000E+00 0. -1.
         21    1    1    2  503  502 -0.53222523272E+02  0.55761351534E+02  0.61255050832E+03  0.61738164092E+03  0.00000000000E+00 0.  1.
         21    1    1    2  504  503  0.92918773047E+02 -0.88342731047E+02  0.30156170546E+02  0.13171078595E+03  0.00000000000E+00 0.  1.
         21    1    1    2  505  501  0.27281557280E+01 -0.43721517654E+02  0.94194660269E+02  0.10388285692E+03  0.00000000000E+00 0. -1.
          2    1    1    2  501    0 -0.42424405502E+02  0.76302897166E+02 -0.23735676594E+04  0.23751727087E+04  0.00000000000E+00 0. -1.
<scales pt_clust_3="53.63662" pt_clust_4="14000.00000" pt_clust_5="43.80655" pt_clust_6="87.64889"></scales>
<clustering>
<clus scale="   43.807">  1  5  2 -1</clus>
<clus scale="   53.637">  1  3  2 -1</clus>
<clus scale="   87.649">  2  6  1 -1</clus>
<clus scale="   43.807">  1  3  2 -1</clus>
</clustering>
</event>
<event>
 6    0  0.3584505E+002  0.9251148E+02  0.7546771E-02  0.1296881E+00
         21   -1    0    0  501  502  0.00000000000E+00  0.00000000000E+00  0.31614179085E+02  0.31614179085E+02  0.00000000000E+00 0. -1.
          2   -1    0    0  504    0 -0.00000000000E+00 -0.00000000000E+00 -0.25862328139E+04  0.25862328139E+04  0.00000000000E+00 0. -1.
         21    1    1    2  503  502 -0.28338976043E+02 -0.21167997723E+02 -0.58385408175E+02  0.68264467906E+02  0.00000000000E+00 0. -1.
         21    1    1    2  504  505 -0.51076566648E+02 -0.38050234912E+02 -0.49186203429E+03  0.49596864499E+03  0.00000000000E+00 0.  1.
         21    1    1    2  505  503  0.96450374887E+02 -0.41610870769E+02 -0.95378809210E+02  0.14188465959E+03  0.00000000000E+00 0. -1.
          2    1    1    2  501    0 -0.17034832196E+02  0.10082910340E+03 -0.19089923832E+04  0.19117292205E+04  0.00000000000E+00 0. -1.
<scales pt_clust_3="35.37205" pt_clust_4="66.41452" pt_clust_5="14000.00000" pt_clust_6="92.51148"></scales>
<clustering>
<clus scale="   35.372">  1  3  2 -1</clus>
<clus scale="   66.415">  2  4  1 -1</clus>
<clus scale="   92.511">  2  6  1 -1</clus>
<clus scale="   35.372">  1  3  2 -1</clus>
</clustering>
</event>
<event>
 6    0  0.3584505E+002  0.8392009E+02  0.7546771E-02  0.1318281E+00
         21   -1    0    0  503  502  0.00000000000E+00  0.00000000000E+00  0.22359321406E+03  0.22359321406E+03  0.00000000000E+00 0.  1.
          2   -1    0    0  504    0 -0.00000000000E+00 -0.00000000000E+00 -0.20578102942E+04  0.20578102942E+04  0.00000000000E+00 0.  1.
         21    1    1    2  503  501  0.32961487201E+02 -0.77575814844E+02 -0.35436417116E+03  0.36425050788E+03  0.00000000000E+00 0.  1.
         21    1    1    2  504  505  0.47391274862E+02  0.31913067978E+02 -0.14919415700E+03  0.15976004921E+03  0.00000000000E+00 0.  1.
         21    1    1    2  505  502 -0.85971686632E+02  0.20761494796E+01  0.20437466477E+03  0.22173056825E+03  0.00000000000E+00 0.  1.
          2    1    1    2  501    0  0.56189245684E+01  0.43586597387E+02 -0.15350334167E+04  0.15356623829E+04  0.00000000000E+00 0.  1.
<scales pt_clust_3="60.18256" pt_clust_4="14000.00000" pt_clust_5="83.92009" pt_clust_6="43.94728"></scales>
<clustering>
<clus scale="   43.947">  2  6  1 -1</clus>
<clus scale="   60.183">  2  3  1 -1</clus>
<clus scale="   83.920">  1  5  2 -1</clus>
<clus scale="   83.920">  1  3  2 -1</clus>
</clustering>
</event>
<event>
 6    0  0.3584505E+002  0.1263217E+03  0.7546771E-02  0.1233018E+00
         21   -1    0    0  504  502  0.00000000000E+00  0.00000000000E+00  0.20150030710E+03  0.20150030710E+03  0.00000000000E+00 0.  1.
          1   -1    0    0  503    0 -0.00000000000E+00 -0.00000000000E+00 -0.99680051948E+03  0.99680051948E+03  0.00000000000E+00 0. -1.
         21    1    1    2  503  505  0.87367242956E+02 -0.99989897576E+02 -0.38938114194E+03  0.41139845461E+03  0.00000000000E+00 0. -1.
         21    1    1    2  504  501 -0.58489661901E+02  0.59695380964E+02  0.15454977427E+03  0.17569920826E+03  0.00000000000E+00 0.  1.
         21    1    1    2  505  502 -0.49890794184E+02  0.11228709817E+02 -0.15784685223E+01  0.51163139382E+02  0.00000000000E+00 0.  1.
          1    1    1    2  501    0  0.21013213129E+02  0.29065806795E+02 -0.55889037619E+03  0.56004002432E+03  0.00000000000E+00 0. -1.
<scales pt_clust_3="126.32168" pt_clust_4="14000.00000" pt_clust_5="50.32675" pt_clust_6="35.86609"></scales>
<clustering>
<clus scale="   35.866">  2  6  1 -1</clus>
<clus scale="   50.327">  1  5  2 -1</clus>
<clus scale="  126.322">  2  3  1 -1</clus>
<clus scale="   50.327">  1  3  2 -1</clus>
</clustering>
</event>
<event>
 6    0  0.3998800E+002  0.1159139E+03  0.7546771E-02  0.1249994E+00
          2   -1    0    0  503    0 -0.00000000000E+00  0.00000000000E+00  0.62313771536E+03  0.62313771536E+03  0.00000000000E+00 0.  1.
         21   -1    0    0  501  502  0.00000000000E+00 -0.00000000000E+00 -0.14819757802E+04  0.14819757802E+04  0.00000000000E+00 0. -1.
         21    1    1    2  503  504  0.15997803263E+03  0.28500201821E+02  0.10112381935E+03  0.19139294466E+03  0.00000000000E+00 0.  1.
         21    1    1    2  504  505 -0.64220527193E+02 -0.49116209247E+02 -0.60039844806E+03  0.60581760833E+03  0.00000000000E+00 0. -1.
         21    1    1    2  505  502 -0.39946100253E+02 -0.40065923603E+01 -0.83128480269E+03  0.83225366739E+03  0.00000000000E+00 0. -1.
          2    1    1    2  501    0 -0.55811405184E+02  0.24622599787E+02  0.47172136653E+03  0.47564927521E+03  0.00000000000E+00 0.  1.
<scales pt_clust_3="115.91394" pt_clust_4="14000.00000" pt_clust_5="40.14653" pt_clust_6="61.10706"></scales>
<clustering>
<clus scale="   40.147">  2  5  1 -1</clus>
<clus scale="   61.107">  1  6  2 -1</clus>
<clus scale="  115.914">  1  3  2 -1</clus>
<clus scale="   40.147">  2  3  1 -1</clus>
</clustering>
</event>
<event>
 6    0  0.3584505E+002  0.7668979E+02  0.7546771E-02  0.1338717E+00
         21   -1    0    0  503  502  0.00000000000E+00  0.00000000000E+00  0.12077039443E+03  0.12077039443E+03  0.00000000000E+00 0.  1.
          3   -1    0    0  504    0 -0.00000000000E+00 -0.00000000000E+00 -0.44544994911E+03  0.44544994911E+03  0.00000000000E+00 0.  1.
         21    1    1    2  503  505 -0.55596230566E+02 -0.63392019017E+02  0.55009605876E+02  0.10067544719E+03  0.00000000000E+00 0.  1.
         21    1    1    2  504  502 -0.23989913450E+02  0.31460437687E+02  0.68769937517E+00  0.39569533953E+02  0.00000000000E+00 0.  1.
         21    1    1    2  505  501  0.24017847884E+02  0.71713610636E+02 -0.55036164735E+02  0.93534370133E+02  0.00000000000E+00 0.  1.
          3    1    1    2  501    0  0.55568296133E+02 -0.39782029307E+02 -0.32534069519E+03  0.33244099227E+03  0.00000000000E+00 0.  1.
<scales pt_clust_3="76.68979" pt_clust_4="39.56356" pt_clust_5="14000.00000" pt_clust_6="67.00781"></scales>
<clustering>
<clus scale="   39.564">  1  4  2 -1</clus>
<clus scale="   67.008">  2  6  1 -1</clus>
<clus scale="   76.690">  1  3  2 -1</clus>
<clus scale="   39.564">  1  3  2 -1</clus>
</clustering>
</event>
<event>
 6    0  0.3584505E+002  0.1366657E+03  0.7546771E-02  0.1217887E+00
         -2   -1    0    0    0  501 -0.00000000000E+00  0.00000000000E+00  0.55477300596E+03  0.55477300596E+03  0.00000000000E+00 0. -1.
         21   -1    0    0  505  502  0.00000000000E+00 -0.00000000000E+00 -0.24260944073E+03  0.24260944073E+03  0.00000000000E+00 0. -1.
         21    1    1    2  503  502  0.59920106465E+02 -0.29798017987E+02  0.17231425916E+03  0.18485276559E+03  0.00000000000E+00 0. -1.
         21    1    1    2  504  501  0.13149129218E+01 -0.51657426566E+02  0.87534659969E+01  0.52410322288E+02  0.00000000000E+00 0. -1.
         21    1    1    2  505  504 -0.96242073209E+02  0.11154064915E+03 -0.18735559823E+03  0.23834003705E+03  0.00000000000E+00 0. -1.
         -2    1    1    2    0  503  0.35007053822E+02 -0.30085204600E+02  0.31845143831E+03  0.32177932177E+03  0.00000000000E+00 0. -1.
<scales pt_clust_3="14000.00000" pt_clust_4="55.88818" pt_clust_5="136.66566" pt_clust_6="46.15857"></scales>
<clustering>
<clus scale="   46.159">  1  6  2 -1</clus>
<clus scale="   55.888">  1  4  2 -1</clus>
<clus scale="  136.666">  2  5  1 -1</clus>
<clus scale="  136.666">  2  3  1 -1</clus>
</clustering>
</event>
<event>
 6    0  0.3584505E+002  0.1104844E+03  0.7546771E-02  0.1259676E+00
          2   -1    0    0  503    0 -0.00000000000E+00  0.00000000000E+00  0.32540862891E+04  0.32540862891E+04  0.00000000000E+00 0. -1.
         21   -1    0    0  504  502  0.00000000000E+00 -0.00000000000E+00 -0.98782866942E+01  0.98782866942E+01  0.00000000000E+00 0.  1.
         21    1    1    2  503  502 -0.39275216108E+02 -0.10974169014E+02  0.19770658420E+03  0.20186844336E+03  0.00000000000E+00 0.  1.
         21    1    1    2  504  505  0.13283911408E+02  0.61440009594E+02  0.26914028117E+03  0.27638348002E+03  0.00000000000E+00 0.  1.
         21    1    1    2  505  501  0.53050443187E+02  0.43570198449E+02  0.36695468839E+03  0.37332084732E+03  0.00000000000E+00 0.  1.
          2    1    1    2  501    0 -0.27059138487E+02 -0.94036039029E+02  0.24104064486E+04  0.24123918051E+04  0.00000000000E+00 0. -1.
<scales pt_clust_3="40.77959" pt_clust_4="44.40415" pt_clust_5="44.40415" pt_clust_6="100.67414"></scales>
<clustering>
<clus scale="   40.780">  2  3  1 -1</clus>
<clus scale="   44.404">  4  5 -1 -1</clus>
<clus scale="  100.674">  1  6  2 -1</clus>
<clus scale="   40.780">  2  3  1 -1</clus>
</clustering>
</event>
<event>
 6    0  0.3584505E+002  0.8776204E+02  0.7546771E-02  0.1308364E+00
         21   -1    0    0  504  502  0.00000000000E+00  0.00000000000E+00  0.78363674421E+03  0.78363674421E+03  0.00000000000E+00 0. -1.
          2   -1    0    0  503    0 -0.00000000000E+00 -0.00000000000E+00 -0.13242032626E+04  0.13242032626E+04  0.00000000000E+00 0. -1.
         21    1    1    2  503  505  0.47112993442E+02  0.27270479968E+02  0.26339888031E+02  0.60473985567E+02  0.00000000000E+00 0.  1.
         21    1    1    2  504  501 -0.12632173244E+03 -0.44937296247E+02 -0.10450458051E+03  0.16999337643E+03  0.00000000000E+00 0.  1.
         21    1    1    2  505  502  0.32264826388E+02  0.26767874618E+02  0.70637504094E+03  0.70761800189E+03  0.00000000000E+00 0. -1.
          2    1    1    2  501    0  0.46943912609E+02 -0.91010583385E+01 -0.11687768669E+04  0.11697546430E+04  0.00000000000E+00 0. -1.
<scales pt_clust_3="14000.00000" pt_clust_4="87.76204" pt_clust_5="41.92300" pt_clust_6="47.98799"></scales>
<clustering>
<clus scale="   41.923">  1  5  2 -1</clus>
<clus scale="   47.988">  2  6  1 -1</clus>
<clus scale="   87.762">  2  4  1 -1</clus>
<clus scale="   41.923">  1  3  2 -1</clus>
</clustering>
</event>
<event>
 6    0  0.3584505E+002  0.2097125E+03  0.7546771E-02  0.1141794E+00
         21   -1    0    0  504  502  0.00000000000E+00  0.00000000000E+00  0.90853422524E+03  0.90853422524E+03  0.00000000000E+00 0.  1.
          2   -1    0    0  505    0 -0.00000000000E+00 -0.00000000000E+00 -0.19864160096E+04  0.19864160096E+04  0.00000000000E+00 0. -1.
         21    1    1    2  503  502 -0.15153062242E+03  0.97191510739E+02  0.29699914975E+03  0.34729845125E+03  0.00000000000E+00 0.  1.
         21    1    1    2  504  501  0.21975221559E+02  0.37330382989E+02  0.35423347379E+03  0.35687227660E+03  0.00000000000E+00 0.  1.
         21    1    1    2  505  503  0.21372676031E+03 -0.25057045157E+03  0.10913291073E+03  0.34695053174E+03  0.00000000000E+00 0.  1.
          2    1    1    2  501    0 -0.84171359451E+02  0.11604855784E+03 -0.18382473186E+04  0.18438289753E+04  0.00000000000E+00 0. -1.
<scales pt_clust_3="14000.00000" pt_clust_4="43.31822" pt_clust_5="209.71246" pt_clust_6="143.44752"></scales>
<clustering>
<clus scale="   43.318">  1  4  2 -1</clus>
<clus scale="  143.448">  2  6  1 -1</clus>
<clus scale="  209.712">  2  5  1 -1</clus>
<clus scale="   43.318">  1  3  2 -1</clus>
</clustering>
</event>
<event>
 6    0  0.3584505E+002  0.1977092E+03  0.7546771E-02  0.1151686E+00
         -1   -1    0    0    0  501 -0.00000000000E+00  0.00000000000E+00  0.14093507446E+04  0.14093507446E+04  0.00000000000E+00 0. -1.
         21   -1    0    0  504  502  0.00000000000E+00 -0.00000000000E+00 -0.11658466076E+04  0.11658466076E+04  0.00000000000E+00 0.  1.
         21    1    1    2  503  502  0.71137534272E+02 -0.14871129710E+03 -0.24584556869E+03  0.29599939580E+03  0.00000000000E+00 0.  1.
         21    1    1    2  504  501  0.18057996551E+02 -0.34605006917E+02 -0.87194890820E+03  0.87282214468E+03  0.00000000000E+00 0.  1.
         21    1    1    2  505  503 -0.73012059482E+02  0.15794997960E+03  0.31679446373E+03  0.36143836146E+03  0.00000000000E+00 0. -1.
         -1    1    1    2    0  505 -0.16183471341E+02  0.25366324420E+02  0.10445041502E+04  0.10449374503E+04  0.00000000000E+00 0. -1.
<scales pt_clust_3="197.70917" pt_clust_4="38.99740" pt_clust_5="14000.00000" pt_clust_6="30.08912"></scales>
<clustering>
<clus scale="   30.089">  1  6  2 -1</clus>
<clus scale="   38.997">  2  4  1 -1</clus>
<clus scale="  197.709">  2  3  1 -1</clus>
<clus scale="   38.997">  2  3  1 -1</clus>
</clustering>
</event>
<event>
 6    0  0.3584505E+002  0.1783244E+03  0.7546771E-02  0.1169435E+00
          2   -1    0    0  502    0 -0.00000000000E+00  0.00000000000E+00  0.10332334396E+04  0.10332334396E+04  0.00000000000E+00 0. -1.
         21   -1    0    0  505  502  0.00000000000E+00 -0.00000000000E+00 -0.58445764757E+02  0.58445764757E+02  0.00000000000E+00 0.  1.
         21    1    1    2  503  504 -0.47796241982E+02 -0.14916122876E+03  0.16875995024E+03  0.23024654985E+03  0.00000000000E+00 0.  1.
         21    1    1    2  504  501  0.84007733419E+01  0.69658740185E+02  0.35972843968E+03  0.36650711233E+03  0.00000000000E+00 0. -1.
         21    1    1    2  505  503 -0.42910604036E+02  0.53770140062E+01  0.94686761833E+01  0.44270622844E+02  0.00000000000E+00 0.  1.
          2    1    1    2  501    0  0.82306072676E+02  0.74125474572E+02  0.43683060869E+03  0.45065491928E+03  0.00000000000E+00 0. -1.
<scales pt_clust_3="165.69170" pt_clust_4="53.63841" pt_clust_5="43.24618" pt_clust_6="53.63841"></scales>
<clustering>
<clus scale="   43.246">  2  5  1 -1</clus>
<clus scale="   53.638">  4  6 -1 -1</clus>
<clus scale="  165.692">  2  3  1 -1</clus>
<clus scale="   43.246">  2  3  1 -1</clus>
</clustering>
</event>
<event>
 6    0  0.3584505E+002  0.1059751E+03  0.7546771E-02  0.1268210E+00
          2   -1    0    0  503    0 -0.00000000000E+00  0.00000000000E+00  0.25173538402E+04  0.25173538402E+04  0.00000000000E+00 0. -1.
         21   -1    0    0  505  502  0.00000000000E+00 -0.00000000000E+00 -0.14589475285E+03  0.14589475285E+03  0.00000000000E+00 0.  1.
         21    1    1    2  503  502  0.35855517927E+01  0.75151522594E+02 -0.15394771627E+01  0.75252757556E+02  0.00000000000E+00 0.  1.
         21    1    1    2  504  501 -0.62926422975E+02 -0.97538866291E+02  0.23488843070E+03  0.26200408398E+03  0.00000000000E+00 0. -1.
         21    1    1    2  505  504  0.80388772216E+02  0.32610155585E+00 -0.76618407596E+02  0.11105332693E+03  0.00000000000E+00 0.  1.
          2    1    1    2  501    0 -0.21047901033E+02  0.22061242142E+02  0.22147285414E+04  0.22149384246E+04  0.00000000000E+00 0. -1.
<scales pt_clust_3="77.84599" pt_clust_4="14000.00000" pt_clust_5="105.97514" pt_clust_6="30.49119"></scales>
<clustering>
<clus scale="   30.491">  1  6  2 -1</clus>
<clus scale="   77.846">  2  3  1 -1</clus>
<clus scale="  105.975">  2  5  1 -1</clus>
<clus scale="   77.846">  2  3  1 -1</clus>
</clustering>
</event>
<event>
 6    0  0.3584505E+002  0.1474649E+03  0.7546771E-02  0.1203623E+00
          1   -1    0    0  505    0 -0.00000000000E+00  0.00000000000E+00  0.11948596638E+04  0.11948596638E+04  0.00000000000E+00 0.  1.
         21   -1    0    0  504  502  0.00000000000E+00 -0.00000000000E+00 -0.18001948933E+03  0.18001948933E+03  0.00000000000E+00 0.  1.
         21    1    1    2  503  501 -0.46465674704E+02  0.10658167087E+03  0.13483211175E+03  0.17804047250E+03  0.00000000000E+00 0.  1.
         21    1    1    2  504  503 -0.62283213487E+02  0.35109197243E+02 -0.68525987345E+02  0.99033657687E+02  0.00000000000E+00 0.  1.
         21    1    1    2  505  502  0.10682389475E+03 -0.17259728262E+03  0.64146362260E+02  0.21287536788E+03  0.00000000000E+00 0.  1.
          1    1    1    2  501    0  0.19249934365E+01  0.30906414513E+02  0.88438768776E+03  0.88492965501E+03  0.00000000000E+00 0.  1.
<scales pt_clust_3="147.46490" pt_clust_4="72.17409" pt_clust_5="14000.00000" pt_clust_6="30.96631"></scales>
<clustering>
<clus scale="   30.966">  1  6  2 -1</clus>
<clus scale="   72.174">  2  4  1 -1</clus>
<clus scale="  147.465">  1  3  2 -1</clus>
<clus scale="   72.174">  2  3  1 -1</clus>
</clustering>
</event>
<event>
 6    0  0.3584505E+002  0.6970281E+02  0.7546771E-02  0.1361107E+00
         21   -1    0    0  503  502  0.00000000000E+00  0.00000000000E+00  0.37996767114E+03  0.37996767114E+03  0.00000000000E+00 0. -1.
          1   -1    0    0  504    0 -0.00000000000E+00 -0.00000000000E+00 -0.47513154415E+03  0.47513154415E+03  0.00000000000E+00 0. -1.
         21    1    1    2  503  505 -0.42937053841E+02  0.18819833078E+02  0.23269727445E+03  0.23737269904E+03  0.00000000000E+00 0. -1.
         21    1    1    2  504  502  0.26860524325E+02  0.34961345422E+02  0.11554515530E+03  0.12367079831E+03  0.00000000000E+00 0. -1.
         21    1    1    2  505  501  0.47988079879E+02 -0.10793211340E+03 -0.13531045981E+03  0.17961380083E+03  0.00000000000E+00 0. -1.
          1    1    1    2  501    0 -0.31911550363E+02  0.54150934903E+02 -0.30809584294E+03  0.31444191711E+03  0.00000000000E+00 0. -1.
<scales pt_clust_3="53.73534" pt_clust_4="44.08836" pt_clust_5="69.70281" pt_clust_6="14000.00000"></scales>
<clustering>
<clus scale="   44.088">  1  4  2 -1</clus>
<clus scale="   53.735">  1  3  2 -1</clus>
<clus scale="   69.703">  1  5  2 -1</clus>
<clus scale="   44.088">  1  3  2 -1</clus>
</clustering>
</event>
<event>
 6    0  0.3584505E+002  0.1464940E+03  0.7546771E-02  0.1204848E+00
         -2   -1    0    0    0  501 -0.00000000000E+00  0.00000000000E+00  0.44084108193E+03  0.44084108193E+03  0.00000000000E+00 0.  1.
         21   -1    0    0  505  502  0.00000000000E+00 -0.00000000000E+00 -0.77945478288E+03  0.77945478288E+03  0.00000000000E+00 0. -1.
         21    1    1    2  503  502  0.42008103611E+02  0.93008620456E+01 -0.61330709914E+02  0.74917573254E+02  0.00000000000E+00 0. -1.
         21    1    1    2  504  501 -0.69676889268E+02  0.14183473635E+03 -0.44082289405E+03  0.46829134655E+03  0.00000000000E+00 0. -1.
         21    1    1    2  505  504  0.40125722647E+02 -0.48749792284E+01 -0.24223135647E+03  0.24558067737E+03  0.00000000000E+00 0. -1.
         -2    1    1    2    0  503 -0.12456936991E+02 -0.14626061917E+03  0.40577125948E+03  0.43150626765E+03  0.00000000000E+00 0.  1.
<scales pt_clust_3="47.90534" pt_clust_4="146.49403" pt_clust_5="40.42077" pt_clust_6="14000.00000"></scales>
<clustering>
<clus scale="   40.421">  2  5  1 -1</clus>
<clus scale="   47.905">  2  3  1 -1</clus>
<clus scale="  146.494">  2  4  1 -1</clus>
<clus scale="   40.421">  2  3  1 -1</clus>
</clustering>
</event>
<event>
 6    0  0.3584505E+002  0.9843750E+02  0.7546771E-02  0.1283616E+00
          1   -1    0    0  503    0 -0.00000000000E+00  0.00000000000E+00  0.70650495750E+03  0.70650495750E+03  0.00000000000E+00 0.  1.
         21   -1    0    0  505  502  0.00000000000E+00 -0.00000000000E+00 -0.81756020370E+03  0.81756020370E+03  0.00000000000E+00 0. -1.
         21    1    1    2  503  504  0.93638372232E+02  0.15279605524E+02 -0.22634107614E+02  0.97539294270E+02  0.00000000000E+00 0. -1.
         21    1    1    2  504  502 -0.13606140022E+02  0.10743796053E+03 -0.48074227733E+03  0.49278918375E+03  0.00000000000E+00 0. -1.
         21    1    1    2  505  501 -0.64047027398E+02 -0.80389089547E+02 -0.26013966686E+03  0.27970890889E+03  0.00000000000E+00 0. -1.
          1    1    1    2  501    0 -0.15985204812E+02 -0.42328476508E+02  0.65246080560E+03  0.65402777429E+03  0.00000000000E+00 0.  1.
<scales pt_clust_3="83.66126" pt_clust_4="98.43750" pt_clust_5="14000.00000" pt_clust_6="45.24629"></scales>
<clustering>
<clus scale="   45.246">  1  6  2 -1</clus>
<clus scale="   83.661">  1  3  2 -1</clus>
<clus scale="   98.438">  2  4  1 -1</clus>
<clus scale="   98.438">  2  3  1 -1</clus>
</clustering>
</event>
<event>
 6    0  0.3584505E+002  0.1387601E+03  0.7546771E-02  0.1215007E+00
         21   -1    0    0  503  502  0.00000000000E+00  0.00000000000E+00  0.12214310196E+03  0.12214310196E+03  0.00000000000E+00 0.  1.
          2   -1    0    0  504    0 -0.00000000000E+00 -0.00000000000E+00 -0.47310466713E+03  0.47310466713E+03  0.00000000000E+00 0.  1.
         21    1    1    2  503  501 -0.14162363942E+03  0.92464391437E+01 -0.10725613484E+03  0.17789499808E+03  0.00000000000E+00 0.  1.
         21    1    1    2  504  505  0.41481003843E+02  0.63100396032E+02  0.32079511074E+02  0.82045284386E+02  0.00000000000E+00 0.  1.
         21    1    1    2  505  502 -0.74510738763E+01  0.31995423827E+02 -0.18911860653E+02  0.37906254380E+02  0.00000000000E+00 0.  1.
          2    1    1    2  501    0  0.10759370946E+03 -0.10434225900E+03 -0.25687308075E+03  0.29740123224E+03  0.00000000000E+00 0.  1.
<scales pt_clust_3="138.76005" pt_clust_4="87.81552" pt_clust_5="32.85157" pt_clust_6="14000.00000"></scales>
<clustering>
<clus scale="   32.852">  1  5  2 -1</clus>
<clus scale="   87.816">  1  4  2 -1</clus>
<clus scale="  138.760">  1  3  2 -1</clus>
<clus scale="   32.852">  1  3  2 -1</clus>
</clustering>
</event>
<event>
 6    0  0.3584505E+002  0.8693667E+02  0.7546771E-02  0.1310444E+00
         21   -1    0    0  503  502  0.00000000000E+00  0.00000000000E+00  0.32967094851E+03  0.32967094851E+03  0.00000000000E+00 0.  1.
          2   -1    0    0  504    0 -0.00000000000E+00 -0.00000000000E+00 -0.30783580114E+03  0.30783580114E+03  0.00000000000E+00 0. -1.
         21    1    1    2  503  501  0.72577247773E+02 -0.13072843472E+02  0.12395935290E+02  0.74779778967E+02  0.00000000000E+00 0.  1.
         21    1    1    2  504  505 -0.32354349093E+02  0.65036669079E+02  0.75400015203E+02  0.10469830239E+03  0.00000000000E+00 0. -1.
         21    1    1    2  505  502  0.24056269348E+02  0.19158377712E+02  0.18595915721E+03  0.18848489511E+03  0.00000000000E+00 0.  1.
          2    1    1    2  501    0 -0.64279168027E+02 -0.71122203320E+02 -0.25191996034E+03  0.26954377319E+03  0.00000000000E+00 0. -1.
<scales pt_clust_3="86.93667" pt_clust_4="79.03028" pt_clust_5="30.75301" pt_clust_6="14000.00000"></scales>
<clustering>
<clus scale="   30.753">  1  5  2 -1</clus>
<clus scale="   79.030">  1  4  2 -1</clus>
<clus scale="   86.937">  1  3  2 -1</clus>
<clus scale="   30.753">  1  3  2 -1</clus>
</clustering>
</event>
<event>
 6    0  0.3584505E+002  0.6409594E+02  0.7546771E-02  0.1381405E+00
         21   -1    0    0  504  502  0.00000000000E+00  0.00000000000E+00  0.13004914345E+03  0.13004914345E+03  0.00000000000E+00 0. -1.
          2   -1    0    0  505    0 -0.00000000000E+00 -0.00000000000E+00 -0.14994597157E+04  0.14994597157E+04  0.00000000000E+00 0.  1.
         21    1    1    2  503  501  0.24700923276E+01 -0.87649192196E+02 -0.13614106602E+03  0.16193477732E+03  0.00000000000E+00 0.  1.
         21    1    1    2  504  503  0.22606371521E+02  0.72404616771E+02 -0.67641789388E+02  0.10163113812E+03  0.00000000000E+00 0.  1.
         21    1    1    2  505  502  0.24556210616E+01 -0.41522140961E+02  0.95015960141E+02  0.10372150667E+03  0.00000000000E+00 0. -1.
          2    1    1    2  501    0 -0.27532084910E+02  0.56766716386E+02 -0.12606436770E+04  0.12622214370E+04  0.00000000000E+00 0.  1.
<scales pt_clust_3="14000.00000" pt_clust_4="54.91080" pt_clust_5="41.59469" pt_clust_6="64.09594"></scales>
<clustering>
<clus scale="   41.595">  1  5  2 -1</clus>
<clus scale="   54.911">  1  4  2 -1</clus>
<clus scale="   64.096">  2  6  1 -1</clus>
<clus scale="   41.595">  1  3  2 -1</clus>
</clustering>
</event>
<event>
 6    0  0.3584505E+002  0.8492713E+02  0.7546771E-02  0.1315623E+00
          1   -1    0    0  503    0 -0.00000000000E+00  0.00000000000E+00  0.86938699870E+02  0.86938699870E+02  0.00000000000E+00 0.  1.
         21   -1    0    0  501  502  0.00000000000E+00 -0.00000000000E+00 -0.12969719930E+04  0.12969719930E+04  0.00000000000E+00 0.  1.
         21    1    1    2  503  504  0.33989217026E+02 -0.60268361543E+02  0.11619271908E+02  0.70160884806E+02  0.00000000000E+00 0.  1.
         21    1    1    2  504  505  0.10666258076E+03 -0.32223467863E+01 -0.32076132723E+03  0.33804603045E+03  0.00000000000E+00 0.  1.
         21    1    1    2  505  502 -0.80236382302E+02  0.42792024253E+01 -0.88621101674E+03  0.88984614109E+03  0.00000000000E+00 0.  1.
          1    1    1    2  501    0 -0.60415415483E+02  0.59211505904E+02 -0.14680221064E+02  0.85857636526E+02  0.00000000000E+00 0.  1.
<scales pt_clust_3="69.19207" pt_clust_4="14000.00000" pt_clust_5="84.92713" pt_clust_6="36.40879"></scales>
<clustering>
<clus scale="   69.192">  1  3  2 -1</clus>
<clus scale="   36.409">  1  6  2 -1</clus>
<clus scale="   84.927">  2  5  1 -1</clus>
<clus scale="   84.927">  2  3  1 -1</clus>
</clustering>
</event>
<event>
 6    0  0.3584505E+002  0.1072164E+03  0.7546771E-02  0.1265813E+00
         21   -1    0    0  503  502  0.00000000000E+00  0.00000000000E+00  0.25425524519E+04  0.25425524519E+04  0.00000000000E+00 0.  1.
          1   -1    0    0  504    0 -0.00000000000E+00 -0.00000000000E+00 -0.45835690545E+03  0.45835690545E+03  0.00000000000E+00 0. -1.
         21    1    1    2  503  501  0.10684438989E+02 -0.31712093131E+02  0.20378035403E+04  0.20380782818E+04  0.00000000000E+00 0.  1.
         21    1    1    2  504  505  0.37817961911E+02  0.66050993193E+02 -0.30168687925E+02  0.81872349887E+02  0.00000000000E+00 0. -1.
         21    1    1    2  505  502 -0.10270692806E+03 -0.33602301596E+02  0.47078317311E+03  0.48302652497E+03  0.00000000000E+00 0.  1.
          1    1    1    2  501    0  0.54204527161E+02 -0.73659846603E+00 -0.39422247902E+03  0.39793220065E+03  0.00000000000E+00 0. -1.
<scales pt_clust_3="33.46362" pt_clust_4="14000.00000" pt_clust_5="107.21638" pt_clust_6="54.25051"></scales>
<clustering>
<clus scale="   33.464">  1  3  2 -1</clus>
<clus scale="   54.251">  2  6  1 -1</clus>
<clus scale="  107.216">  1  5  2 -1</clus>
<clus scale="   33.464">  1  3  2 -1</clus>
</clustering>
</event>
<event>
 6    0  0.3584505E+002  0.7970564E+02  0.7546771E-02  0.1329889E+00
         21   -1    0    0  504  502  0.00000000000E+00  0.00000000000E+00  0.13667606298E+03  0.13667606298E+03  0.00000000000E+00 0.  1.
          2   -1    0    0  505    0 -0.00000000000E+00 -0.00000000000E+00 -0.13578719813E+04  0.13578719813E+04  0.00000000000E+00 0. -1.
         21    1    1    2  503  501  0.10878311635E+03 -0.31806723627E+02 -0.22051439240E+03  0.24793553865E+03  0.00000000000E+00 0.  1.
         21    1    1    2  504  503 -0.21420903134E+02  0.50795814177E+02  0.10971223643E+03  0.12278373121E+03  0.00000000000E+00 0.  1.
         21    1    1    2  505  502 -0.55083843267E+02  0.12686599696E+02 -0.12263506185E+03  0.13503532129E+03  0.00000000000E+00 0.  1.
          2    1    1    2  501    0 -0.32278369947E+02 -0.31675690246E+02 -0.98775870050E+03  0.98879345312E+03  0.00000000000E+00 0. -1.
<scales pt_clust_3="14000.00000" pt_clust_4="54.83847" pt_clust_5="79.70564" pt_clust_6="45.22436"></scales>
<clustering>
<clus scale="   45.224">  2  6  1 -1</clus>
<clus scale="   54.838">  1  4  2 -1</clus>
<clus scale="   79.706">  2  5  1 -1</clus>
<clus scale="   54.838">  1  3  2 -1</clus>
</clustering>
</event>
<event>
 6    0  0.3584505E+002  0.8792976E+02  0.7546771E-02  0.1307944E+00
          2   -1    0    0  505    0 -0.00000000000E+00  0.00000000000E+00  0.33441909047E+04  0.33441909047E+04  0.00000000000E+00 0. -1.
         21   -1    0    0  504  502  0.00000000000E+00 -0.00000000000E+00 -0.17633704793E+03  0.17633704793E+03  0.00000000000E+00 0.  1.
         21    1    1    2  503  502 -0.32203808301E+02 -0.50011069385E+02 -0.15746170379E+03  0.16832225192E+03  0.00000000000E+00 0.  1.
         21    1    1    2  504  501  0.88702415703E+01 -0.33479885984E+02  0.25519491434E+02  0.43021255143E+02  0.00000000000E+00 0. -1.
         21    1    1    2  505  503  0.55439966584E+02  0.12493523253E+03  0.10601527187E+04  0.10689275884E+04  0.00000000000E+00 0.  1.
          2    1    1    2  501    0 -0.32106399853E+02 -0.41444277163E+02  0.22396433505E+04  0.22402568572E+04  0.00000000000E+00 0. -1.
<scales pt_clust_3="87.92976" pt_clust_4="34.63501" pt_clust_5="14000.00000" pt_clust_6="52.46418"></scales>
<clustering>
<clus scale="   34.635">  2  4  1 -1</clus>
<clus scale="   52.464">  1  6  2 -1</clus>
<clus scale="   87.930">  2  3  1 -1</clus>
<clus scale="   34.635">  2  3  1 -1</clus>
</clustering>
</event>
<event>
 6    0  0.3584505E+002  0.8981763E+02  0.7546771E-02  0.1303294E+00
         21   -1    0    0  504  502  0.00000000000E+00  0.00000000000E+00  0.49150760248E+03  0.49150760248E+03  0.00000000000E+00 0. -1.
          1   -1    0    0  505    0 -0.00000000000E+00 -0.00000000000E+00 -0.33730622053E+04  0.33730622053E+04  0.00000000000E+00 0.  1.
         21    1    1    2  503  502  0.28443825840E+02 -0.42075992085E+02  0.47164485674E+03  0.47437149074E+03  0.00000000000E+00 0. -1.
         21    1    1    2  504  501  0.33925418927E+02 -0.42638757555E+02 -0.20705964921E+03  0.21410907506E+03  0.00000000000E+00 0. -1.
         21    1    1    2  505  503 -0.11740130479E+03  0.12106079654E+02 -0.22988795468E+03  0.25841458016E+03  0.00000000000E+00 0.  1.
          1    1    1    2  501    0  0.55032060021E+02  0.72608669986E+02 -0.29162518556E+04  0.29176746618E+04  0.00000000000E+00 0.  1.
<scales pt_clust_3="50.78819" pt_clust_4="64.14047" pt_clust_5="14000.00000" pt_clust_6="89.81763"></scales>
<clustering>
<clus scale="   50.788">  1  3  2 -1</clus>
<clus scale="   64.140">  1  4  2 -1</clus>
<clus scale="   89.818">  2  6  1 -1</clus>
<clus scale="   50.788">  1  3  2 -1</clus>
</clustering>
</event>
<event>
 6    0  0.3584505E+002  0.7086389E+02  0.7546771E-02  0.1357180E+00
         -2   -1    0    0    0  501 -0.00000000000E+00  0.00000000000E+00  0.10985050542E+04  0.10985050542E+04  0.00000000000E+00 0. -1.
         21   -1    0    0  505  502  0.00000000000E+00 -0.00000000000E+00 -0.75135986513E+03  0.75135986513E+03  0.00000000000E+00 0. -1.
         21    1    1    2  503  502 -0.11801801428E+03 -0.33114594917E+02  0.29007385937E+02  0.12596132950E+03  0.00000000000E+00 0. -1.
         21    1    1    2  504  501  0.24754854826E+02 -0.20255585550E+02  0.17036228258E+03  0.17333897112E+03  0.00000000000E+00 0. -1.
         21    1    1    2  505  504  0.52950414718E+02  0.10050026031E+02 -0.69932548095E+03  0.70139922850E+03  0.00000000000E+00 0. -1.
         -2    1    1    2    0  503  0.40312744737E+02  0.43320154436E+02  0.84710100151E+03  0.84916539021E+03  0.00000000000E+00 0. -1.
<scales pt_clust_3="14000.00000" pt_clust_4="31.98580" pt_clust_5="53.91872" pt_clust_6="70.86389"></scales>
<clustering>
<clus scale="   31.986">  1  4  2 -1</clus>
<clus scale="   53.919">  2  5  1 -1</clus>
<clus scale="   70.864">  1  6  2 -1</clus>
<clus scale="   53.919">  2  3  1 -1</clus>
</clustering>
</event>
<event>
 6    0  0.3584505E+002  0.6315474E+02  0.7546771E-02  0.1385050E+00
         -2   -1    0    0    0  501 -0.00000000000E+00  0.00000000000E+00  0.76111287081E+03  0.76111287081E+03  0.00000000000E+00 0.  1.
         21   -1    0    0  503  502  0.00000000000E+00 -0.00000000000E+00 -0.12538472366E+04  0.12538472366E+04  0.00000000000E+00 0.  1.
         21    1    1    2  503  504 -0.77633366264E+02  0.64766980242E+02  0.86526856012E+02  0.13307365667E+03  0.00000000000E+00 0. -1.
         21    1    1    2  504  501 -0.33500130043E+02 -0.33363749146E+02  0.91961406649E+01  0.48166040663E+02  0.00000000000E+00 0. -1.
         21    1    1    2  505  502  0.47837947866E+02 -0.40797886482E+02 -0.12086255623E+04  0.12102597600E+04  0.00000000000E+00 0.  1.
         -2    1    1    2    0  505  0.63295548441E+02  0.93946553867E+01  0.62016819989E+03  0.62346065005E+03  0.00000000000E+00 0.  1.
<scales pt_clust_3="63.15474" pt_clust_4="47.28000" pt_clust_5="14000.00000" pt_clust_6="39.66378"></scales>
<clustering>
<clus scale="   47.280">  1  4  2 -1</clus>
<clus scale="   39.664">  1  6  2 -1</clus>
<clus scale="   63.155">  1  3  2 -1</clus>
<clus scale="   63.155">  2  3  1 -1</clus>
</clustering>
</event>
<event>
 6    0  0.3584505E+002  0.1812082E+03  0.7546771E-02  0.1166639E+00
         21   -1    0    0  505  502  0.00000000000E+00  0.00000000000E+00  0.25525850827E+03  0.25525850827E+03  0.00000000000E+00 0. -1.
          2   -1    0    0  503    0 -0.00000000000E+00 -0.00000000000E+00 -0.10641320398E+04  0.10641320398E+04  0.00000000000E+00 0.  1.
         21    1    1    2  503  502 -0.23533379211E+02 -0.22730502402E+03 -0.59162242071E+02  0.23605415643E+03  0.00000000000E+00 0. -1.
         21    1    1    2  504  501  0.69047745778E+02  0.93476768459E+02 -0.25753877772E+03  0.28254507510E+03  0.00000000000E+00 0.  1.
         21    1    1    2  505  504 -0.94370340025E+02  0.14951819714E+03  0.10219112944E+03  0.20421674586E+03  0.00000000000E+00 0. -1.
          2    1    1    2  501    0  0.48855973458E+02 -0.15689941580E+02 -0.59436364119E+03  0.59657457068E+03  0.00000000000E+00 0.  1.
<scales pt_clust_3="181.20825" pt_clust_4="128.75174" pt_clust_5="14000.00000" pt_clust_6="51.31355"></scales>
<clustering>
<clus scale="   51.314">  2  6  1 -1</clus>
<clus scale="  128.752">  2  4  1 -1</clus>
<clus scale="  181.208">  2  3  1 -1</clus>
<clus scale="  181.208">  1  3  2 -1</clus>
</clustering>
</event>
<event>
 6    0  0.3584505E+002  0.8797154E+02  0.7546771E-02  0.1307840E+00
         21   -1    0    0  504  502  0.00000000000E+00  0.00000000000E+00  0.25386318087E+04  0.25386318087E+04  0.00000000000E+00 0. -1.
         -2   -1    0    0    0  501 -0.00000000000E+00 -0.00000000000E+00 -0.63668462558E+03  0.63668462558E+03  0.00000000000E+00 0. -1.
         21    1    1    2  503  502  0.41187055309E+02 -0.61034548643E+02  0.17785622478E+03  0.19249526318E+03  0.00000000000E+00 0. -1.
         21    1    1    2  504  505 -0.55747636050E+02 -0.69659749073E+02  0.18280247825E+04  0.18302007773E+04  0.00000000000E+00 0. -1.
         21    1    1    2  505  501 -0.30727472649E+02  0.11760060223E+03  0.51639277286E+03  0.53050501890E+03  0.00000000000E+00 0. -1.
         -2    1    1    2    0  503  0.45288053390E+02  0.13093695487E+02 -0.62032659708E+03  0.62211537490E+03  0.00000000000E+00 0. -1.
<scales pt_clust_3="83.23935" pt_clust_4="87.97154" pt_clust_5="14000.00000" pt_clust_6="47.14290"></scales>
<clustering>
<clus scale="   47.143">  2  6  1 -1</clus>
<clus scale="   83.239">  2  3  1 -1</clus>
<clus scale="   87.972">  1  4  2 -1</clus>
<clus scale="   87.972">  1  3  2 -1</clus>
</clustering>
</event>
<event>
 6    0  0.3584505E+002  0.1759587E+03  0.7546771E-02  0.1171773E+00
          1   -1    0    0  505    0 -0.00000000000E+00  0.00000000000E+00  0.42572679655E+04  0.42572679655E+04  0.00000000000E+00 0. -1.
         21   -1    0    0  504  502  0.00000000000E+00 -0.00000000000E+00 -0.90269624808E+02  0.90269624808E+02  0.00000000000E+00 0. -1.
         21    1    1    2  503  502  0.32872000124E+02 -0.12308946476E+02  0.27921716123E+02  0.44851987545E+02  0.00000000000E+00 0. -1.
         21    1    1    2  504  501  0.51124588049E+02 -0.16309819873E+02 -0.59429775155E+02  0.80072666388E+02  0.00000000000E+00 0. -1.
         21    1    1    2  505  503 -0.14271963450E+03 -0.13605689269E+03  0.99559322118E+03  0.10149316402E+04  0.00000000000E+00 0. -1.
          1    1    1    2  501    0  0.58723046331E+02  0.16467565904E+03  0.32029131786E+04  0.32076812963E+04  0.00000000000E+00 0. -1.
<scales pt_clust_3="35.10098" pt_clust_4="83.56875" pt_clust_5="14000.00000" pt_clust_6="175.95867"></scales>
<clustering>
<clus scale="   35.101">  2  3  1 -1</clus>
<clus scale="   83.569">  2  4  1 -1</clus>
<clus scale="  175.959">  1  6  2 -1</clus>
<clus scale="   35.101">  2  3  1 -1</clus>
</clustering>
</event>
<event>
 6    0  0.3584505E+002  0.1093434E+03  0.7546771E-02  0.1261791E+00
         21   -1    0    0  503  502  0.00000000000E+00  0.00000000000E+00  0.11107275543E+03  0.11107275543E+03  0.00000000000E+00 0.  1.
          1   -1    0    0  505    0 -0.00000000000E+00 -0.00000000000E+00 -0.12984845299E+04  0.12984845299E+04  0.00000000000E+00 0. -1.
         21    1    1    2  503  504  0.34261916851E+02 -0.90703570762E+01  0.36969384517E+02  0.51214116368E+02  0.00000000000E+00 0.  1.
         21    1    1    2  504  501  0.10064446912E+02  0.93500453651E+02 -0.17940355287E+02  0.95736535724E+02  0.00000000000E+00 0.  1.
         21    1    1    2  505  502 -0.14086299104E+03 -0.34085007930E+02 -0.18322267955E+03  0.23361232910E+03  0.00000000000E+00 0.  1.
          1    1    1    2  501    0  0.96536627272E+02 -0.50345088645E+02 -0.10232181241E+04  0.10289943041E+04  0.00000000000E+00 0. -1.
<scales pt_clust_3="35.44221" pt_clust_4="93.18128" pt_clust_5="14000.00000" pt_clust_6="109.34340"></scales>
<clustering>
<clus scale="   35.442">  1  3  2 -1</clus>
<clus scale="   93.181">  1  4  2 -1</clus>
<clus scale="  109.343">  2  6  1 -1</clus>
<clus scale="   35.442">  1  3  2 -1</clus>
</clustering>
</event>
<event>
 6    0  0.3584505E+002  0.1121170E+03  0.7546771E-02  0.1256699E+00
          3   -1    0    0  503    0 -0.00000000000E+00  0.00000000000E+00  0.99995354552E+03  0.99995354552E+03  0.00000000000E+00 0.  1.
         21   -1    0    0  505  502  0.00000000000E+00 -0.00000000000E+00 -0.17827134500E+03  0.17827134500E+03  0.00000000000E+00 0.  1.
         21    1    1    2  503  504  0.10832015136E+03  0.55514070257E+02  0.22595573375E+03  0.25665358131E+03  0.00000000000E+00 0. -1.
         21    1    1    2  504  502 -0.81758571129E+02 -0.30092746468E+02 -0.32455684205E+02  0.92969934819E+02  0.00000000000E+00 0. -1.
         21    1    1    2  505  501 -0.36636636383E+02  0.14960093266E+02 -0.95681495367E+02  0.10354224293E+03  0.00000000000E+00 0.  1.
          3    1    1    2  501    0  0.10075056151E+02 -0.40381417055E+02  0.72386364634E+03  0.72505913145E+03  0.00000000000E+00 0.  1.
<scales pt_clust_3="14000.00000" pt_clust_4="112.11701" pt_clust_5="39.57332" pt_clust_6="41.44231"></scales>
<clustering>
<clus scale="   39.573">  2  5  1 -1</clus>
<clus scale="   41.442">  1  6  2 -1</clus>
<clus scale="  112.117">  2  4  1 -1</clus>
<clus scale="   39.573">  2  3  1 -1</clus>
</clustering>
</event>
<event>
 6    0  0.3584505E+002  0.1032481E+03  0.7546771E-02  0.1273610E+00
         21   -1    0    0  503  502  0.00000000000E+00  0.00000000000E+00  0.42858437452E+02  0.42858437452E+02  0.00000000000E+00 0. -1.
          2   -1    0    0  505    0 -0.00000000000E+00 -0.00000000000E+00 -0.16393113009E+04  0.16393113009E+04  0.00000000000E+00 0. -1.
         21    1    1    2  503  501 -0.82271901998E+02  0.67293687725E+02 -0.70284580870E+02  0.12742459956E+03  0.00000000000E+00 0. -1.
         21    1    1    2  504  502 -0.32900297616E+02 -0.11058003287E+03 -0.36350950030E+03  0.38137846040E+03  0.00000000000E+00 0.  1.
         21    1    1    2  505  504  0.26961342728E+02  0.54933141247E+02 -0.30312802863E+03  0.30924289119E+03  0.00000000000E+00 0. -1.
          2    1    1    2  501    0  0.88210856886E+02 -0.11646796104E+02 -0.85953075369E+03  0.86412378724E+03  0.00000000000E+00 0. -1.
<scales pt_clust_3="103.24807" pt_clust_4="98.55383" pt_clust_5="61.19284" pt_clust_6="14000.00000"></scales>
<clustering>
<clus scale="   61.193">  2  5  1 -1</clus>
<clus scale="   98.554">  2  4  1 -1</clus>
<clus scale="  103.248">  1  3  2 -1</clus>
<clus scale="  103.248">  1  3  2 -1</clus>
</clustering>
</event>
<event>
 6    0  0.3584505E+002  0.7416437E+02  0.7546771E-02  0.1346478E+00
          2   -1    0    0  505    0 -0.00000000000E+00  0.00000000000E+00  0.10980894541E+04  0.10980894541E+04  0.00000000000E+00 0. -1.
         21   -1    0    0  504  502  0.00000000000E+00 -0.00000000000E+00 -0.80517857256E+02  0.80517857256E+02  0.00000000000E+00 0.  1.
         21    1    1    2  503  502 -0.39187660276E+01  0.47424710014E+02 -0.44690491395E+02  0.65281696273E+02  0.00000000000E+00 0.  1.
         21    1    1    2  504  501  0.37200924823E+02 -0.10392404994E+03  0.12013033806E+03  0.16314231543E+03  0.00000000000E+00 0. -1.
         21    1    1    2  505  503 -0.17770801842E+02  0.86858996100E+02  0.72293800099E+03  0.72835406217E+03  0.00000000000E+00 0. -1.
          2    1    1    2  501    0 -0.15511356953E+02 -0.30359656179E+02  0.21919374918E+03  0.22182923747E+03  0.00000000000E+00 0. -1.
<scales pt_clust_3="47.24683" pt_clust_4="14000.00000" pt_clust_5="74.16437" pt_clust_6="34.09268"></scales>
<clustering>
<clus scale="   34.093">  1  6  2 -1</clus>
<clus scale="   47.247">  2  3  1 -1</clus>
<clus scale="   74.164">  1  5  2 -1</clus>
<clus scale="   47.247">  2  3  1 -1</clus>
</clustering>
</event>
<event>
 6    0  0.3584505E+002  0.9240277E+02  0.7546771E-02  0.1297135E+00
          1   -1    0    0  503    0 -0.00000000000E+00  0.00000000000E+00  0.25547873181E+04  0.25547873181E+04  0.00000000000E+00 0.  1.
         21   -1    0    0  505  502  0.00000000000E+00 -0.00000000000E+00 -0.83482041578E+02  0.83482041578E+02  0.00000000000E+00 0.  1.
         21    1    1    2  503  504 -0.32842750670E+02 -0.46933328312E+02  0.86334520754E+02  0.10361000459E+03  0.00000000000E+00 0.  1.
         21    1    1    2  504  502  0.24559174552E+02  0.44925562159E+02 -0.56224310597E+02  0.76043620982E+02  0.00000000000E+00 0.  1.
         21    1    1    2  505  501  0.30566690920E+02 -0.87657061432E+02  0.27108907097E+03  0.28654383157E+03  0.00000000000E+00 0.  1.
          1    1    1    2  501    0 -0.22283114802E+02  0.89664827585E+02  0.21701059954E+04  0.21720719025E+04  0.00000000000E+00 0.  1.
<scales pt_clust_3="32.06831" pt_clust_4="51.20019" pt_clust_5="14000.00000" pt_clust_6="92.40277"></scales>
<clustering>
<clus scale="   51.200">  2  4  1 -1</clus>
<clus scale="   32.068">  2  3  1 -1</clus>
<clus scale="   92.403">  1  6  2 -1</clus>
<clus scale="   51.200">  2  3  1 -1</clus>
</clustering>
</event>
<event>
 6    0  0.3584505E+002  0.1421379E+03  0.7546771E-02  0.1210481E+00
          1   -1    0    0  505    0 -0.00000000000E+00  0.00000000000E+00  0.17794935361E+04  0.17794935361E+04  0.00000000000E+00 0.  1.
         21   -1    0    0  504  502  0.00000000000E+00 -0.00000000000E+00 -0.22876636045E+03  0.22876636045E+03  0.00000000000E+00 0.  1.
         21    1    1    2  503  502  0.21212694412E+02 -0.30152011590E+02 -0.88182044903E+02  0.95578215355E+02  0.00000000000E+00 0.  1.
         21    1    1    2  504  501 -0.30788556454E+02  0.16668330915E+03  0.10335036370E+03  0.19852596413E+03  0.00000000000E+00 0.  1.
         21    1    1    2  505  503  0.29932052521E+02 -0.10929491478E+03 -0.53092577123E+02  0.12514043276E+03  0.00000000000E+00 0.  1.
          1    1    1    2  501    0 -0.20356190479E+02 -0.27236382782E+02  0.15886514339E+04  0.15890152843E+04  0.00000000000E+00 0.  1.
<scales pt_clust_3="37.07646" pt_clust_4="14000.00000" pt_clust_5="142.13789" pt_clust_6="34.00287"></scales>
<clustering>
<clus scale="   34.003">  1  6  2 -1</clus>
<clus scale="   37.076">  2  3  1 -1</clus>
<clus scale="  142.138">  2  5  1 -1</clus>
<clus scale="   37.076">  2  3  1 -1</clus>
</clustering>
</event>
<event>
 6    0  0.3584505E+002  0.9335498E+02  0.7546771E-02  0.1294925E+00
         21   -1    0    0  503  502  0.00000000000E+00  0.00000000000E+00  0.12812988159E+04  0.12812988159E+04  0.00000000000E+00 0.  1.
          2   -1    0    0  505    0 -0.00000000000E+00 -0.00000000000E+00 -0.38415652065E+03  0.38415652065E+03  0.00000000000E+00 0.  1.
         21    1    1    2  503  501  0.10092131466E+03  0.11136213786E+02  0.28933185512E+03  0.30663015083E+03  0.00000000000E+00 0.  1.
         21    1    1    2  504  502 -0.20029150435E+02 -0.68544539798E+02  0.83031540638E+03  0.83338058226E+03  0.00000000000E+00 0.  1.
         21    1    1    2  505  504 -0.97953528034E+02 -0.22835038919E+02  0.12951990215E+03  0.16398700470E+03  0.00000000000E+00 0. -1.
          2    1    1    2  501    0  0.17061363806E+02  0.80243364931E+02 -0.35202486839E+03  0.36145759878E+03  0.00000000000E+00 0.  1.
<scales pt_clust_3="93.35498" pt_clust_4="71.41093" pt_clust_5="14000.00000" pt_clust_6="81.28987"></scales>
<clustering>
<clus scale="   71.411">  1  4  2 -1</clus>
<clus scale="   81.290">  2  6  1 -1</clus>
<clus scale="   93.355">  1  3  2 -1</clus>
<clus scale="   71.411">  1  3  2 -1</clus>
</clustering>
</event>
<event>
 6    0  0.3584505E+002  0.8923151E+02  0.7546771E-02  0.1304723E+00
         -1   -1    0    0    0  501 -0.00000000000E+00  0.00000000000E+00  0.75342099326E+03  0.75342099326E+03  0.00000000000E+00 0.  1.
         21   -1    0    0  505  502  0.00000000000E+00 -0.00000000000E+00 -0.32446765215E+03  0.32446765215E+03  0.00000000000E+00 0.  1.
         21    1    1    2  503  501  0.21602415157E+02  0.10566641533E+03  0.16845325598E+03  0.20002138666E+03  0.00000000000E+00 0.  1.
         21    1    1    2  504  502  0.35003548503E+02  0.60758709573E+02 -0.10072739645E+03  0.12273091539E+03  0.00000000000E+00 0.  1.
         21    1    1    2  505  503 -0.27525880741E+02 -0.14264798674E+03 -0.16940925911E+03  0.22317172604E+03  0.00000000000E+00 0.  1.
         -1    1    1    2    0  504 -0.29080082919E+02 -0.23777138166E+02  0.53063674069E+03  0.53196461733E+03  0.00000000000E+00 0.  1.
<scales pt_clust_3="14000.00000" pt_clust_4="68.38410" pt_clust_5="89.23151" pt_clust_6="37.56333"></scales>
<clustering>
<clus scale="   37.563">  1  6  2 -1</clus>
<clus scale="   68.384">  2  4  1 -1</clus>
<clus scale="   89.232">  2  5  1 -1</clus>
<clus scale="   68.384">  2  3  1 -1</clus>
</clustering>
</event>
<event>
 6    0  0.3584505E+002  0.8100633E+02  0.7546771E-02  0.1326220E+00
          2   -1    0    0  505    0 -0.00000000000E+00  0.00000000000E+00  0.12350001219E+04  0.12350001219E+04  0.00000000000E+00 0. -1.
         21   -1    0    0  504  502  0.00000000000E+00 -0.00000000000E+00 -0.59099892739E+03  0.59099892739E+03  0.00000000000E+00 0. -1.
         21    1    1    2  503  502  0.43671466988E+02 -0.73878907874E+02  0.77380969332E+02  0.11555563367E+03  0.00000000000E+00 0. -1.
         21    1    1    2  504  501 -0.30611071728E+02  0.13201250756E+02 -0.55670064617E+03  0.55769787536E+03  0.00000000000E+00 0. -1.
         21    1    1    2  505  503 -0.37118175053E+01  0.10547194943E+03  0.18254357973E+03  0.21085603668E+03  0.00000000000E+00 0. -1.
          2    1    1    2  501    0 -0.93485777551E+01 -0.44794292313E+02  0.94077729162E+03  0.94188950358E+03  0.00000000000E+00 0. -1.
<scales pt_clust_3="14000.00000" pt_clust_4="33.33633" pt_clust_5="81.00633" pt_clust_6="45.65286"></scales>
<clustering>
<clus scale="   33.336">  2  4  1 -1</clus>
<clus scale="   45.653">  1  6  2 -1</clus>
<clus scale="   81.006">  1  5  2 -1</clus>
<clus scale="   33.336">  2  3  1 -1</clus>
</clustering>
</event>
<event>
 6    0  0.3584505E+002  0.7266931E+02  0.7546771E-02  0.1351244E+00
          4   -1    0    0  504    0 -0.00000000000E+00  0.00000000000E+00  0.38584213852E+03  0.38584213852E+03  0.00000000000E+00 0. -1.
         21   -1    0    0  503  502  0.00000000000E+00 -0.00000000000E+00 -0.22240340548E+03  0.22240340548E+03  0.00000000000E+00 0. -1.
         21    1    1    2  503  501 -0.22671544629E+02  0.31038596342E+02 -0.63224266127E+02  0.73991223980E+02  0.00000000000E+00 0. -1.
         21    1    1    2  504  505  0.11036789515E+03  0.15481389659E+02  0.12341915346E+03  0.16629201167E+03  0.00000000000E+00 0. -1.
         21    1    1    2  505  502 -0.46301958380E+02 -0.46403665866E+02 -0.12224147654E+03  0.13870886829E+03  0.00000000000E+00 0. -1.
          4    1    1    2  501    0 -0.41394392142E+02 -0.11632013485E+00  0.22548532225E+03  0.22925344006E+03  0.00000000000E+00 0. -1.
<scales pt_clust_3="38.43688" pt_clust_4="72.66931" pt_clust_5="14000.00000" pt_clust_6="41.67296"></scales>
<clustering>
<clus scale="   38.437">  2  3  1 -1</clus>
<clus scale="   41.673">  1  6  2 -1</clus>
<clus scale="   72.669">  1  4  2 -1</clus>
<clus scale="   38.437">  2  3  1 -1</clus>
</clustering>
</event>
<event>
 6    0  0.3584505E+002  0.5835912E+02  0.7546771E-02  0.1404850E+00
         -2   -1    0    0    0  501 -0.00000000000E+00  0.00000000000E+00  0.16236463660E+04  0.16236463660E+04  0.00000000000E+00 0.  1.
         21   -1    0    0  503  502  0.00000000000E+00 -0.00000000000E+00 -0.24368996351E+02  0.24368996351E+02  0.00000000000E+00 0. -1.
         21    1    1    2  503  505 -0.28515243414E+02 -0.44716566144E+02  0.38046423680E+02  0.65270366550E+02  0.00000000000E+00 0. -1.
         21    1    1    2  504  502  0.27114839303E+02  0.75534318500E+02  0.19044677546E+03  0.20666548349E+03  0.00000000000E+00 0. -1.
         21    1    1    2  505  501  0.20898478902E+02 -0.70394605716E+02  0.99700982109E+03  0.99971032318E+03  0.00000000000E+00 0. -1.
         -2    1    1    2    0  504 -0.19498074791E+02  0.39576853360E+02  0.37377434943E+03  0.37636918914E+03  0.00000000000E+00 0.  1.
<scales pt_clust_3="58.35912" pt_clust_4="14000.00000" pt_clust_5="39.11080" pt_clust_6="44.11918"></scales>
<clustering>
<clus scale="   44.119">  1  6  2 -1</clus>
<clus scale="   39.111">  1  5  2 -1</clus>
<clus scale="   58.359">  2  3  1 -1</clus>
<clus scale="   58.359">  2  3  1 -1</clus>
</clustering>
</event>
<event>
 6    0  0.3584505E+002  0.8328269E+02  0.7546771E-02  0.1319986E+00
         21   -1    0    0  503  502  0.00000000000E+00  0.00000000000E+00  0.49489926225E+02  0.49489926225E+02  0.00000000000E+00 0. -1.
          1   -1    0    0  505    0 -0.00000000000E+00 -0.00000000000E+00 -0.11172569744E+04  0.11172569744E+04  0.00000000000E+00 0. -1.
         21    1    1    2  503  504  0.68654141650E+01 -0.45491339387E+02 -0.14334690270E+01  0.46028802986E+02  0.00000000000E+00 0. -1.
         21    1    1    2  504  501  0.73877219954E+02 -0.33698219491E+02 -0.68889326430E+02  0.10648545873E+03  0.00000000000E+00 0. -1.
         21    1    1    2  505  502  0.17468672402E+01  0.64581991438E+02 -0.15915390390E+03  0.17176684863E+03  0.00000000000E+00 0.  1.
          1    1    1    2  501    0 -0.82489501359E+02  0.14607567440E+02 -0.83829034883E+03  0.84246579029E+03  0.00000000000E+00 0. -1.
<scales pt_clust_3="46.00648" pt_clust_4="14000.00000" pt_clust_5="54.13465" pt_clust_6="83.28269"></scales>
<clustering>
<clus scale="   46.006">  1  3  2 -1</clus>
<clus scale="   54.135">  1  5  2 -1</clus>
<clus scale="   83.283">  2  6  1 -1</clus>
<clus scale="   46.006">  1  3  2 -1</clus>
</clustering>
</event>
<event>
 6    0  0.3584505E+002  0.8333353E+02  0.7546771E-02  0.1319849E+00
         21   -1    0    0  501  502  0.00000000000E+00  0.00000000000E+00  0.87191238934E+02  0.87191238934E+02  0.00000000000E+00 0. -1.
          2   -1    0    0  504    0 -0.00000000000E+00 -0.00000000000E+00 -0.21538193837E+04  0.21538193837E+04  0.00000000000E+00 0.  1.
         21    1    1    2  503  502  0.17288764757E+02  0.26429053016E+02  0.24023656167E+02  0.39680376583E+02  0.00000000000E+00 0. -1.
         21    1    1    2  504  505 -0.98869923183E-01  0.10772530951E+03 -0.72905443004E+02  0.13007673007E+03  0.00000000000E+00 0. -1.
         21    1    1    2  505  503 -0.50067893937E+02 -0.70428421613E+02 -0.45414969648E+02  0.97619035246E+02  0.00000000000E+00 0. -1.
          2    1    1    2  501    0  0.32877999103E+02 -0.63725940915E+02 -0.19723313883E+04  0.19736344808E+04  0.00000000000E+00 0.  1.
<scales pt_clust_3="31.58158" pt_clust_4="14000.00000" pt_clust_5="83.33353" pt_clust_6="71.52498"></scales>
<clustering>
<clus scale="   31.582">  1  3  2 -1</clus>
<clus scale="   71.525">  2  6  1 -1</clus>
<clus scale="   83.334">  1  5  2 -1</clus>
<clus scale="   31.582">  1  3  2 -1</clus>
</clustering>
</event>
<event>
 6    0  0.3584505E+002  0.5630163E+02  0.7546771E-02  0.1414042E+00
          2   -1    0    0  505    0 -0.00000000000E+00  0.00000000000E+00  0.13810169225E+04  0.13810169225E+04  0.00000000000E+00 0. -1.
         21   -1    0    0  501  502  0.00000000000E+00 -0.00000000000E+00 -0.38563845725E+02  0.38563845725E+02  0.00000000000E+00 0. -1.
         21    1    1    2  503  502  0.53831892728E+02 -0.21661845962E+02  0.11714643338E+02  0.59197475569E+02  0.00000000000E+00 0. -1.
         21    1    1    2  504  503 -0.61133134116E+02 -0.31424881047E+02  0.10491711420E+03  0.12542880087E+03  0.00000000000E+00 0. -1.
         21    1    1    2  505  504 -0.38604640127E+02  0.77784095337E+02  0.51908270035E+03  0.52629605122E+03  0.00000000000E+00 0. -1.
          2    1    1    2  501    0  0.45905881515E+02 -0.24697368328E+02  0.70673861886E+03  0.70865844054E+03  0.00000000000E+00 0. -1.
<scales pt_clust_3="56.30163" pt_clust_4="14000.00000" pt_clust_5="58.68693" pt_clust_6="52.12782"></scales>
<clustering>
<clus scale="   52.128">  1  6  2 -1</clus>
<clus scale="   58.687">  1  5  2 -1</clus>
<clus scale="   56.302">  2  3  1 -1</clus>
<clus scale="   56.302">  2  3  1 -1</clus>
</clustering>
</event>
<event>
 6    0  0.3584505E+002  0.6967940E+02  0.7546771E-02  0.1361187E+00
         -1   -1    0    0    0  501 -0.00000000000E+00  0.00000000000E+00  0.95566261547E+02  0.95566261547E+02  0.00000000000E+00 0. -1.
         21   -1    0    0  504  502  0.00000000000E+00 -0.00000000000E+00 -0.71352624061E+03  0.71352624061E+03  0.00000000000E+00 0. -1.
         21    1    1    2  503  502 -0.10199167811E+02 -0.60896222749E+02  0.57852771337E+01  0.62014856290E+02  0.00000000000E+00 0. -1.
         21    1    1    2  504  505  0.60918035045E+02 -0.35294686599E+02 -0.61390658585E+03  0.61793043140E+03  0.00000000000E+00 0. -1.
         21    1    1    2  505  501 -0.13874982582E+02  0.86376824957E+02 -0.19888657121E+02  0.89716384866E+02  0.00000000000E+00 0. -1.
         -1    1    1    2    0  503 -0.36843884652E+02  0.98140843901E+01  0.10049986779E+02  0.39430829600E+02  0.00000000000E+00 0. -1.
<scales pt_clust_3="62.71399" pt_clust_4="14000.00000" pt_clust_5="69.67940" pt_clust_6="38.12857"></scales>
<clustering>
<clus scale="   38.129">  1  6  2 -1</clus>
<clus scale="   62.714">  1  3  2 -1</clus>
<clus scale="   69.679">  1  5  2 -1</clus>
<clus scale="   69.679">  2  3  1 -1</clus>
</clustering>
</event>
<event>
 6    0  0.3584505E+002  0.8396202E+02  0.7546771E-02  0.1318169E+00
          2   -1    0    0  504    0 -0.00000000000E+00  0.00000000000E+00  0.95688915989E+03  0.95688915989E+03  0.00000000000E+00 0.  1.
         21   -1    0    0  503  502  0.00000000000E+00 -0.00000000000E+00 -0.72224666480E+02  0.72224666480E+02  0.00000000000E+00 0.  1.
         21    1    1    2  503  501  0.14480710547E+02  0.37781051693E+02 -0.69796220125E+01  0.41058664962E+02  0.00000000000E+00 0.  1.
         21    1    1    2  504  505  0.52833241305E+02  0.30544799737E+02  0.29588494895E+03  0.30211295767E+03  0.00000000000E+00 0.  1.
         21    1    1    2  505  502 -0.10342877255E+03 -0.24891799049E+02  0.21026069079E+02  0.10843988303E+03  0.00000000000E+00 0.  1.
          2    1    1    2  501    0  0.36114820697E+02 -0.43434052382E+02  0.57473309739E+03  0.57750232070E+03  0.00000000000E+00 0.  1.
<scales pt_clust_3="40.46108" pt_clust_4="14000.00000" pt_clust_5="83.96202" pt_clust_6="55.92783"></scales>
<clustering>
<clus scale="   40.461">  2  3  1 -1</clus>
<clus scale="   55.928">  1  6  2 -1</clus>
<clus scale="   83.962">  2  5  1 -1</clus>
<clus scale="   40.461">  2  3  1 -1</clus>
</clustering>
</event>
<event>
 6    0  0.3584505E+002  0.1014447E+03  0.7546771E-02  0.1277287E+00
          2   -1    0    0  502    0 -0.00000000000E+00  0.00000000000E+00  0.45440926394E+03  0.45440926394E+03  0.00000000000E+00 0. -1.
         21   -1    0    0  505  502  0.00000000000E+00 -0.00000000000E+00 -0.56955979932E+03  0.56955979932E+03  0.00000000000E+00 0.  1.
         21    1    1    2  503  504 -0.96374810637E+02  0.31505797417E+02 -0.50503418763E+02  0.11327539319E+03  0.00000000000E+00 0. -1.
         21    1    1    2  504  501  0.11006153265E+03  0.39407364569E+02 -0.57836421772E+02  0.13042826777E+03  0.00000000000E+00 0.  1.
         21    1    1    2  505  503  0.12737136879E+02 -0.38165016083E+02 -0.39135897029E+03  0.39342171614E+03  0.00000000000E+00 0.  1.
          2    1    1    2  501    0 -0.26423858888E+02 -0.32748145903E+02  0.38454827544E+03  0.38684368616E+03  0.00000000000E+00 0. -1.
<scales pt_clust_3="14000.00000" pt_clust_4="101.44468" pt_clust_5="40.23435" pt_clust_6="42.22039"></scales>
<clustering>
<clus scale="   40.234">  2  5  1 -1</clus>
<clus scale="   42.220">  1  6  2 -1</clus>
<clus scale="  101.445">  1  4  2 -1</clus>
<clus scale="   40.234">  2  3  1 -1</clus>
</clustering>
</event>
<event>
 6    0  0.3584505E+002  0.1178047E+03  0.7546771E-02  0.1246763E+00
         21   -1    0    0  505  502  0.00000000000E+00  0.00000000000E+00  0.10962547720E+03  0.10962547720E+03  0.00000000000E+00 0.  1.
         -2   -1    0    0    0  501 -0.00000000000E+00 -0.00000000000E+00 -0.29937194569E+04  0.29937194569E+04  0.00000000000E+00 0.  1.
         21    1    1    2  503  502  0.65146219038E+01  0.70822376373E+02  0.81405515394E+02  0.10809767449E+03  0.00000000000E+00 0.  1.
         21    1    1    2  504  501  0.90837159793E+02  0.47713211361E+02 -0.35798809212E+03  0.37240222105E+03  0.00000000000E+00 0.  1.
         21    1    1    2  505  504 -0.33841070697E+02 -0.12474490101E+02 -0.46482147405E+02  0.58833842273E+02  0.00000000000E+00 0. -1.
         -2    1    1    2    0  503 -0.63510711000E+02 -0.10606109763E+03 -0.25610292555E+04  0.25640111962E+04  0.00000000000E+00 0.  1.
<scales pt_clust_3="64.24404" pt_clust_4="14000.00000" pt_clust_5="36.06703" pt_clust_6="117.80472"></scales>
<clustering>
<clus scale="   36.067">  1  5  2 -1</clus>
<clus scale="   64.244">  1  3  2 -1</clus>
<clus scale="  117.805">  2  6  1 -1</clus>
<clus scale="   36.067">  1  3  2 -1</clus>
</clustering>
</event>
<event>
 6    0  0.3584505E+002  0.9555210E+02  0.7546771E-02  0.1289937E+00
          1   -1    0    0  505    0 -0.00000000000E+00  0.00000000000E+00  0.25411575422E+04  0.25411575422E+04  0.00000000000E+00 0.  1.
         21   -1    0    0  501  502  0.00000000000E+00 -0.00000000000E+00 -0.87964153639E+02  0.87964153639E+02  0.00000000000E+00 0.  1.
         21    1    1    2  503  504  0.38425496354E+02  0.35546444640E+02  0.31456804563E+02  0.61070443342E+02  0.00000000000E+00 0.  1.
         21    1    1    2  504  502 -0.44987215201E+02  0.24181526513E+02 -0.56940565249E+02  0.76490677386E+02  0.00000000000E+00 0.  1.
         21    1    1    2  505  503 -0.42851946074E+02 -0.89088809003E+02  0.23309485694E+04  0.23330440069E+04  0.00000000000E+00 0.  1.
          1    1    1    2  501    0  0.49413664921E+02  0.29360837850E+02  0.14772857991E+03  0.15851656823E+03  0.00000000000E+00 0.  1.
<scales pt_clust_3="95.55210" pt_clust_4="51.07441" pt_clust_5="14000.00000" pt_clust_6="51.99726"></scales>
<clustering>
<clus scale="   51.074">  2  4  1 -1</clus>
<clus scale="   51.997">  2  6  1 -1</clus>
<clus scale="   95.552">  2  3  1 -1</clus>
<clus scale="   51.074">  2  3  1 -1</clus>
</clustering>
</event>
<event>
 6    0  0.3584505E+002  0.9297974E+02  0.7546771E-02  0.1295792E+00
         21   -1    0    0  501  502  0.00000000000E+00  0.00000000000E+00  0.27798685665E+03  0.27798685665E+03  0.00000000000E+00 0. -1.
          2   -1    0    0  504    0 -0.00000000000E+00 -0.00000000000E+00 -0.12298440832E+04  0.12298440832E+04  0.00000000000E+00 0.  1.
         21    1    1    2  503  502  0.52815326655E+02  0.73854303207E+02  0.16864847725E+03  0.19153648663E+03  0.00000000000E+00 0. -1.
         21    1    1    2  504  505 -0.69879042353E+02  0.49076037354E+02 -0.27687447567E+01  0.85435378796E+02  0.00000000000E+00 0.  1.
         21    1    1    2  505  503  0.71003776369E+02 -0.73393212729E+02  0.82891050758E+01  0.10245393695E+03  0.00000000000E+00 0.  1.
          2    1    1    2  501    0 -0.53940060670E+02 -0.49537127832E+02 -0.11260260641E+04  0.11284051375E+04  0.00000000000E+00 0.  1.
<scales pt_clust_3="82.82114" pt_clust_4="14000.00000" pt_clust_5="92.97974" pt_clust_6="73.23563"></scales>
<clustering>
<clus scale="   73.236">  2  6  1 -1</clus>
<clus scale="   82.821">  1  3  2 -1</clus>
<clus scale="   92.980">  1  5  2 -1</clus>
<clus scale="   82.821">  1  3  2 -1</clus>
</clustering>
</event>
<event>
 6    0  0.3584505E+002  0.1182810E+03  0.7546771E-02  0.1245960E+00
         21   -1    0    0  505  502  0.00000000000E+00  0.00000000000E+00  0.15433659722E+04  0.15433659722E+04  0.00000000000E+00 0. -1.
          2   -1    0    0  503    0 -0.00000000000E+00 -0.00000000000E+00 -0.32996953788E+04  0.32996953788E+04  0.00000000000E+00 0. -1.
         21    1    1    2  503  502 -0.14240472178E+03 -0.85101885957E+02  0.38117668351E+03  0.41571276121E+03  0.00000000000E+00 0.  1.
         21    1    1    2  504  501  0.85922353736E+02 -0.61369931394E+02 -0.53735067326E+03  0.54762639217E+03  0.00000000000E+00 0.  1.
         21    1    1    2  505  504  0.41288096240E+02  0.10748395215E+03  0.11367151530E+04  0.11425317702E+04  0.00000000000E+00 0. -1.
          2    1    1    2  501    0  0.15194271801E+02  0.38987865202E+02 -0.27368705699E+04  0.27371904274E+04  0.00000000000E+00 0. -1.
<scales pt_clust_3="14000.00000" pt_clust_4="103.34494" pt_clust_5="118.28102" pt_clust_6="41.84399"></scales>
<clustering>
<clus scale="   41.844">  2  6  1 -1</clus>
<clus scale="  103.345">  2  4  1 -1</clus>
<clus scale="  118.281">  1  5  2 -1</clus>
<clus scale="  118.281">  1  3  2 -1</clus>
</clustering>
</event>
<event>
 6    0  0.3584505E+002  0.1139002E+03  0.7546771E-02  0.1253513E+00
         21   -1    0    0  503  502  0.00000000000E+00  0.00000000000E+00  0.13394743277E+02  0.13394743277E+02  0.00000000000E+00 0. -1.
          2   -1    0    0  504    0 -0.00000000000E+00 -0.00000000000E+00 -0.28635307391E+04  0.28635307391E+04  0.00000000000E+00 0. -1.
         21    1    1    2  503  501  0.13554805303E+02  0.89485657340E+02 -0.52701803901E+03  0.53473304467E+03  0.00000000000E+00 0. -1.
         21    1    1    2  504  505 -0.18683084959E+02  0.25159540359E+02 -0.36400540849E+03  0.36535188181E+03  0.00000000000E+00 0. -1.
         21    1    1    2  505  502  0.27648643867E+02 -0.14106880469E+03 -0.58901396780E+03  0.60630216017E+03  0.00000000000E+00 0. -1.
          2    1    1    2  501    0 -0.22520364211E+02  0.26423606986E+02 -0.13700985805E+04  0.13705383957E+04  0.00000000000E+00 0. -1.
<scales pt_clust_3="113.90017" pt_clust_4="31.33784" pt_clust_5="14000.00000" pt_clust_6="51.87765"></scales>
<clustering>
<clus scale="   31.338">  2  4  1 -1</clus>
<clus scale="   51.878">  2  6  1 -1</clus>
<clus scale="  113.900">  1  3  2 -1</clus>
<clus scale="  113.900">  1  3  2 -1</clus>
</clustering>
</event>
<event>
 6    0  0.3584505E+002  0.8315158E+02  0.7546771E-02  0.1320338E+00
          1   -1    0    0  505    0 -0.00000000000E+00  0.00000000000E+00  0.10219491480E+04  0.10219491480E+04  0.00000000000E+00 0.  1.
         21   -1    0    0  503  502  0.00000000000E+00 -0.00000000000E+00 -0.75184323464E+02  0.75184323464E+02  0.00000000000E+00 0.  1.
         21    1    1    2  503  504  0.12322625176E+02 -0.40295283568E+02 -0.46849414707E+02  0.63011305553E+02  0.00000000000E+00 0.  1.
         21    1    1    2  504  501  0.29189183343E+02 -0.33609719448E+02  0.98270112312E+02  0.10788251313E+03  0.00000000000E+00 0.  1.
         21    1    1    2  505  502  0.48596039338E+02  0.65111596948E+02  0.11582042592E+03  0.14147602679E+03  0.00000000000E+00 0.  1.
          1    1    1    2  501    0 -0.90107847858E+02  0.87934060685E+01  0.77952370103E+03  0.78476362601E+03  0.00000000000E+00 0.  1.
<scales pt_clust_3="42.13736" pt_clust_4="53.80573" pt_clust_5="14000.00000" pt_clust_6="83.15158"></scales>
<clustering>
<clus scale="   42.137">  2  3  1 -1</clus>
<clus scale="   53.806">  2  4  1 -1</clus>
<clus scale="   83.152">  1  6  2 -1</clus>
<clus scale="   42.137">  2  3  1 -1</clus>
</clustering>
</event>
<event>
 6    0  0.3584505E+002  0.6189296E+02  0.7546771E-02  0.1390055E+00
          2   -1    0    0  503    0 -0.00000000000E+00  0.00000000000E+00  0.28226258613E+04  0.28226258613E+04  0.00000000000E+00 0. -1.
         21   -1    0    0  505  502  0.00000000000E+00 -0.00000000000E+00 -0.38207129425E+02  0.38207129425E+02  0.00000000000E+00 0.  1.
         21    1    1    2  503  504 -0.80025398773E+01  0.10834489819E+03  0.54816930832E+03  0.55883114462E+03  0.00000000000E+00 0.  1.
         21    1    1    2  504  502 -0.56240007723E+02 -0.15858540965E+02  0.10672320322E+03  0.12167281494E+03  0.00000000000E+00 0.  1.
         21    1    1    2  505  501  0.57774272150E+02 -0.35107102762E+02  0.20686184185E+02  0.70698609625E+02  0.00000000000E+00 0.  1.
          2    1    1    2  501    0  0.64682754504E+01 -0.57379254464E+02  0.21088400361E+04  0.21096304215E+04  0.00000000000E+00 0. -1.
<scales pt_clust_3="61.89296" pt_clust_4="60.61957" pt_clust_5="14000.00000" pt_clust_6="57.74268"></scales>
<clustering>
<clus scale="   57.743">  1  6  2 -1</clus>
<clus scale="   60.620">  2  4  1 -1</clus>
<clus scale="   61.893">  1  3  2 -1</clus>
<clus scale="   60.620">  2  3  1 -1</clus>
</clustering>
</event>
<event>
 6    0  0.3584505E+002  0.1490359E+03  0.7546771E-02  0.1201663E+00
          2   -1    0    0  502    0 -0.00000000000E+00  0.00000000000E+00  0.23816147021E+04  0.23816147021E+04  0.00000000000E+00 0. -1.
         21   -1    0    0  503  502  0.00000000000E+00 -0.00000000000E+00 -0.93037526452E+03  0.93037526452E+03  0.00000000000E+00 0. -1.
         21    1    1    2  503  505  0.45503163364E+02  0.15841517830E+03 -0.67891182146E+03  0.69863235533E+03  0.00000000000E+00 0. -1.
         21    1    1    2  504  501 -0.41666320356E+02 -0.95116806340E+01  0.62366041939E+02  0.75604745272E+02  0.00000000000E+00 0. -1.
         21    1    1    2  505  504  0.31326132922E+02 -0.12802330834E+03 -0.21630500932E+03  0.25329656756E+03  0.00000000000E+00 0. -1.
          2    1    1    2  501    0 -0.35162975929E+02 -0.20880189333E+02  0.22840902264E+04  0.22844562984E+04  0.00000000000E+00 0. -1.
<scales pt_clust_3="14000.00000" pt_clust_4="70.88484" pt_clust_5="149.03588" pt_clust_6="40.89520"></scales>
<clustering>
<clus scale="   40.895">  1  6  2 -1</clus>
<clus scale="   70.885">  1  4  2 -1</clus>
<clus scale="  149.036">  1  5  2 -1</clus>
<clus scale="  149.036">  2  3  1 -1</clus>
</clustering>
</event>
<event>
 6    0  0.3584505E+002  0.8091198E+02  0.7546771E-02  0.1326483E+00
          1   -1    0    0  503    0 -0.00000000000E+00  0.00000000000E+00  0.25246458345E+04  0.25246458345E+04  0.00000000000E+00 0.  1.
         21   -1    0    0  504  502  0.00000000000E+00 -0.00000000000E+00 -0.25687514173E+03  0.25687514173E+03  0.00000000000E+00 0. -1.
         21    1    1    2  503  502 -0.74011634509E+02 -0.48626686054E+02  0.11870040952E+04  0.11903029021E+04  0.00000000000E+00 0.  1.
         21    1    1    2  504  505 -0.25463445945E+02 -0.60291504466E+02 -0.21221019955E+03  0.22207345943E+03  0.00000000000E+00 0. -1.
         21    1    1    2  505  501  0.10365289120E+03  0.71959017461E+02  0.67497751550E+02  0.14310125266E+03  0.00000000000E+00 0.  1.
          1    1    1    2  501    0 -0.41778107467E+01  0.36959173059E+02  0.12254790455E+04  0.12260433620E+04  0.00000000000E+00 0.  1.
<scales pt_clust_3="80.91198" pt_clust_4="65.32503" pt_clust_5="14000.00000" pt_clust_6="37.19455"></scales>
<clustering>
<clus scale="   37.195">  1  6  2 -1</clus>
<clus scale="   65.325">  2  4  1 -1</clus>
<clus scale="   80.912">  1  3  2 -1</clus>
<clus scale="   65.325">  2  3  1 -1</clus>
</clustering>
</event>
<event>
 6    0  0.3584505E+002  0.9439419E+02  0.7546771E-02  0.1292546E+00
         21   -1    0    0  505  502  0.00000000000E+00  0.00000000000E+00  0.93898916896E+02  0.93898916896E+02  0.00000000000E+00 0.  1.
          1   -1    0    0  504    0 -0.00000000000E+00 -0.00000000000E+00 -0.13046969044E+04  0.13046969044E+04  0.00000000000E+00 0. -1.
         21    1    1    2  503  502 -0.10130846755E+03 -0.93646380377E+01  0.49688496430E+02  0.11322565399E+03  0.00000000000E+00 0.  1.
         21    1    1    2  504  503  0.32104142731E+02  0.55750374055E+02 -0.10675533677E+03  0.12464141413E+03  0.00000000000E+00 0.  1.
         21    1    1    2  505  501  0.48070960376E+02 -0.17361816908E+02 -0.20351947497E+03  0.20983904930E+03  0.00000000000E+00 0.  1.
          1    1    1    2  501    0  0.21133364446E+02 -0.29023919110E+02 -0.95021167218E+03  0.95088970386E+03  0.00000000000E+00 0. -1.
<scales pt_clust_3="14000.00000" pt_clust_4="60.51786" pt_clust_5="94.39419" pt_clust_6="35.90274"></scales>
<clustering>
<clus scale="   35.903">  2  6  1 -1</clus>
<clus scale="   60.518">  2  4  1 -1</clus>
<clus scale="   94.394">  2  5  1 -1</clus>
<clus scale="   94.394">  1  3  2 -1</clus>
</clustering>
</event>
<event>
 6    0  0.3584505E+002  0.7219916E+02  0.7546771E-02  0.1352770E+00
         -2   -1    0    0    0  501 -0.00000000000E+00  0.00000000000E+00  0.76282587794E+03  0.76282587794E+03  0.00000000000E+00 0. -1.
         21   -1    0    0  504  502  0.00000000000E+00 -0.00000000000E+00 -0.84528610663E+02  0.84528610663E+02  0.00000000000E+00 0.  1.
         21    1    1    2  503  502  0.26651489594E+02  0.55592409550E+02 -0.13291629068E+02  0.63067307700E+02  0.00000000000E+00 0.  1.
         21    1    1    2  504  505  0.18921806225E+02 -0.42170389382E+02 -0.13839638978E+02  0.48248441410E+02  0.00000000000E+00 0.  1.
         21    1    1    2  505  501 -0.87992292576E+02 -0.64434605907E+02  0.21436434548E+03  0.24051306535E+03  0.00000000000E+00 0. -1.
         -2    1    1    2    0  503  0.42418996757E+02  0.51012585739E+02  0.49106418984E+03  0.49552567414E+03  0.00000000000E+00 0. -1.
<scales pt_clust_3="47.56501" pt_clust_4="46.22095" pt_clust_5="14000.00000" pt_clust_6="72.19916"></scales>
<clustering>
<clus scale="   46.221">  2  4  1 -1</clus>
<clus scale="   47.565">  2  3  1 -1</clus>
<clus scale="   72.199">  1  6  2 -1</clus>
<clus scale="   46.221">  2  3  1 -1</clus>
</clustering>
</event>
<event>
 6    0  0.3584505E+002  0.1180095E+03  0.7546771E-02  0.1246417E+00
         21   -1    0    0  504  502  0.00000000000E+00  0.00000000000E+00  0.27832736720E+02  0.27832736720E+02  0.00000000000E+00 0. -1.
          2   -1    0    0  503    0 -0.00000000000E+00 -0.00000000000E+00 -0.30066751474E+04  0.30066751474E+04  0.00000000000E+00 0. -1.
         21    1    1    2  503  505 -0.36870527239E+02 -0.59564384025E+02 -0.51139801803E+03  0.51617369603E+03  0.00000000000E+00 0.  1.
         21    1    1    2  504  501  0.17700227713E+02 -0.25503068243E+02 -0.13957155294E+03  0.14298224694E+03  0.00000000000E+00 0.  1.
         21    1    1    2  505  502  0.10007865882E+03  0.68656253062E+02 -0.13740558518E+03  0.18332952265E+03  0.00000000000E+00 0. -1.
          2    1    1    2  501    0 -0.80908359292E+02  0.16411199206E+02 -0.21904672545E+04  0.21920224185E+04  0.00000000000E+00 0. -1.
<scales pt_clust_3="71.23044" pt_clust_4="31.04359" pt_clust_5="118.00951" pt_clust_6="14000.00000"></scales>
<clustering>
<clus scale="   31.044">  1  4  2 -1</clus>
<clus scale="   71.230">  2  3  1 -1</clus>
<clus scale="  118.010">  1  5  2 -1</clus>
<clus scale="   31.044">  1  3  2 -1</clus>
</clustering>
</event>
<event>
 6    0  0.3584505E+002  0.1354046E+03  0.7546771E-02  0.1219650E+00
          2   -1    0    0  502    0 -0.00000000000E+00  0.00000000000E+00  0.22730259917E+04  0.22730259917E+04  0.00000000000E+00 0. -1.
         21   -1    0    0  503  502  0.00000000000E+00 -0.00000000000E+00 -0.78731613030E+02  0.78731613030E+02  0.00000000000E+00 0.  1.
         21    1    1    2  503  504  0.51049939945E+01  0.34833632538E+02 -0.25023936742E+02  0.43193058812E+02  0.00000000000E+00 0.  1.
         21    1    1    2  504  505  0.77454156525E+02 -0.26213756727E+02  0.31650064890E+02  0.87681434821E+02  0.00000000000E+00 0.  1.
         21    1    1    2  505  501  0.39708978690E+02  0.22754970703E+02  0.20680982750E+02  0.50222452427E+02  0.00000000000E+00 0.  1.
          2    1    1    2  501    0 -0.12226812921E+03 -0.31374846514E+02  0.21669872678E+04  0.21706606587E+04  0.00000000000E+00 0. -1.
<scales pt_clust_3="35.20572" pt_clust_4="41.11083" pt_clust_5="41.11083" pt_clust_6="125.67667"></scales>
<clustering>
<clus scale="   35.206">  2  3  1 -1</clus>
<clus scale="   41.111">  4  5 -1 -1</clus>
<clus scale="  125.677">  1  6  2 -1</clus>
<clus scale="   35.206">  2  3  1 -1</clus>
</clustering>
</event>
<event>
 6    0  0.3584505E+002  0.6640455E+02  0.7546771E-02  0.1372765E+00
         -2   -1    0    0    0  501 -0.00000000000E+00  0.00000000000E+00  0.14135700384E+04  0.14135700384E+04  0.00000000000E+00 0.  1.
         21   -1    0    0  504  502  0.00000000000E+00 -0.00000000000E+00 -0.83524899116E+03  0.83524899116E+03  0.00000000000E+00 0.  1.
         21    1    1    2  503  505 -0.11705256049E+02  0.75559894531E+02  0.15259098251E+03  0.17067606342E+03  0.00000000000E+00 0.  1.
         21    1    1    2  504  501  0.50044454834E+02  0.43647645411E+02 -0.81042778821E+03  0.81314375378E+03  0.00000000000E+00 0.  1.
         21    1    1    2  505  502  0.65770827052E+01 -0.68224221930E+02  0.74032156230E+02  0.10088886277E+03  0.00000000000E+00 0. -1.
         -2    1    1    2    0  503 -0.44916281490E+02 -0.50983318012E+02  0.11621256967E+04  0.11641103496E+04  0.00000000000E+00 0.  1.
<scales pt_clust_3="66.32384" pt_clust_4="66.40455" pt_clust_5="55.77071" pt_clust_6="14000.00000"></scales>
<clustering>
<clus scale="   66.405">  2  4  1 -1</clus>
<clus scale="   55.771">  2  5  1 -1</clus>
<clus scale="   66.324">  2  3  1 -1</clus>
<clus scale="   66.405">  2  3  1 -1</clus>
</clustering>
</event>
<event>
 6    0  0.3584505E+002  0.8482550E+02  0.7546771E-02  0.1315889E+00
         21   -1    0    0  504  502  0.00000000000E+00  0.00000000000E+00  0.16856635202E+03  0.16856635202E+03  0.00000000000E+00 0.  1.
          1   -1    0    0  503    0 -0.00000000000E+00 -0.00000000000E+00 -0.47003799065E+03  0.47003799065E+03  0.00000000000E+00 0. -1.
         21    1    1    2  503  502  0.48799116178E+02 -0.47395191884E+02 -0.60321286198E+02  0.90919280255E+02  0.00000000000E+00 0. -1.
         21    1    1    2  504  505 -0.16404676577E+02 -0.38028554157E+02  0.11771007062E+03  0.12478359296E+03  0.00000000000E+00 0.  1.
         21    1    1    2  505  501 -0.23446929281E+02  0.11407418899E+03 -0.77373814179E+02  0.13981911960E+03  0.00000000000E+00 0. -1.
          1    1    1    2  501    0 -0.89475103199E+01 -0.28650442947E+02 -0.28148660887E+03  0.28308234985E+03  0.00000000000E+00 0. -1.
<scales pt_clust_3="84.82550" pt_clust_4="41.97835" pt_clust_5="14000.00000" pt_clust_6="30.01509"></scales>
<clustering>
<clus scale="   30.015">  2  6  1 -1</clus>
<clus scale="   41.978">  1  4  2 -1</clus>
<clus scale="   84.826">  2  3  1 -1</clus>
<clus scale="   41.978">  1  3  2 -1</clus>
</clustering>
</event>
<event>
 6    0  0.3584505E+002  0.9537131E+02  0.7546771E-02  0.1290342E+00
          1   -1    0    0  504    0 -0.00000000000E+00  0.00000000000E+00  0.12756247640E+04  0.12756247640E+04  0.00000000000E+00 0. -1.
         21   -1    0    0  505  502  0.00000000000E+00 -0.00000000000E+00 -0.14053931703E+03  0.14053931703E+03  0.00000000000E+00 0.  1.
         21    1    1    2  503  502 -0.62591964070E+02  0.70472658215E+02 -0.44576978749E+02  0.10426531809E+03  0.00000000000E+00 0.  1.
         21    1    1    2  504  503  0.11169976193E+03 -0.17300455746E+02 -0.10618072041E+02  0.11352922989E+03  0.00000000000E+00 0.  1.
         21    1    1    2  505  501 -0.27772065628E+02 -0.76109724344E+02  0.43755987658E+03  0.44499732962E+03  0.00000000000E+00 0.  1.
          1    1    1    2  501    0 -0.21335732237E+02  0.22937521875E+02  0.75272062113E+03  0.75337220340E+03  0.00000000000E+00 0. -1.
<scales pt_clust_3="14000.00000" pt_clust_4="95.37131" pt_clust_5="72.91154" pt_clust_6="31.32640"></scales>
<clustering>
<clus scale="   31.326">  1  6  2 -1</clus>
<clus scale="   72.912">  1  5  2 -1</clus>
<clus scale="   95.371">  1  4  2 -1</clus>
<clus scale="   95.371">  2  3  1 -1</clus>
</clustering>
</event>
<event>
 6    0  0.3584505E+002  0.1569763E+03  0.7546771E-02  0.1192153E+00
          2   -1    0    0  503    0 -0.00000000000E+00  0.00000000000E+00  0.73383431856E+03  0.73383431856E+03  0.00000000000E+00 0.  1.
         21   -1    0    0  505  502  0.00000000000E+00 -0.00000000000E+00 -0.42194658434E+03  0.42194658434E+03  0.00000000000E+00 0.  1.
         21    1    1    2  503  504 -0.73087040299E+02 -0.54003267866E+02  0.24330613015E+02  0.94074689101E+02  0.00000000000E+00 0.  1.
         21    1    1    2  504  502  0.78170562692E+02  0.31658158377E+02 -0.26814728084E+03  0.28109756328E+03  0.00000000000E+00 0.  1.
         21    1    1    2  505  501  0.26948163555E+02 -0.13344068719E+03 -0.57009203096E+02  0.14758953132E+03  0.00000000000E+00 0.  1.
          2    1    1    2  501    0 -0.32031685947E+02  0.15578579668E+03  0.61271360513E+03  0.63301911920E+03  0.00000000000E+00 0.  1.
<scales pt_clust_3="71.71156" pt_clust_4="84.33787" pt_clust_5="14000.00000" pt_clust_6="156.97626"></scales>
<clustering>
<clus scale="   84.338">  2  4  1 -1</clus>
<clus scale="   71.712">  2  3  1 -1</clus>
<clus scale="  156.976">  1  6  2 -1</clus>
<clus scale="   84.338">  2  3  1 -1</clus>
</clustering>
</event>
<event>
 6    0  0.3584505E+002  0.8400449E+02  0.7546771E-02  0.1318057E+00
         21   -1    0    0  505  502  0.00000000000E+00  0.00000000000E+00  0.16378889872E+04  0.16378889872E+04  0.00000000000E+00 0.  1.
          1   -1    0    0  504    0 -0.00000000000E+00 -0.00000000000E+00 -0.36892182663E+02  0.36892182663E+02  0.00000000000E+00 0.  1.
         21    1    1    2  503  502 -0.19311564616E+02 -0.83238719173E+02  0.11440217378E+04  0.11472085065E+04  0.00000000000E+00 0.  1.
         21    1    1    2  504  503  0.29910645452E+02  0.68339332590E+02  0.10809745055E+03  0.13133914080E+03  0.00000000000E+00 0.  1.
         21    1    1    2  505  501 -0.63138544059E+02  0.37722266621E+02  0.32658782060E+03  0.33476715745E+03  0.00000000000E+00 0.  1.
          1    1    1    2  501    0  0.52539463224E+02 -0.22822880038E+02  0.22289795588E+02  0.61466365082E+02  0.00000000000E+00 0.  1.
<scales pt_clust_3="84.00449" pt_clust_4="14000.00000" pt_clust_5="60.14774" pt_clust_6="57.28245"></scales>
<clustering>
<clus scale="   57.282">  2  6  1 -1</clus>
<clus scale="   60.148">  2  5  1 -1</clus>
<clus scale="   84.004">  1  3  2 -1</clus>
<clus scale="   84.004">  1  3  2 -1</clus>
</clustering>
</event>
<event>
 6    0  0.3584505E+002  0.1995835E+03  0.7546771E-02  0.1150091E+00
         21   -1    0    0  505  502  0.00000000000E+00  0.00000000000E+00  0.56358246026E+03  0.56358246026E+03  0.00000000000E+00 0.  1.
          2   -1    0    0  503    0 -0.00000000000E+00 -0.00000000000E+00 -0.30630425080E+04  0.30630425080E+04  0.00000000000E+00 0.  1.
         21    1    1    2  503  504 -0.59176230641E+02 -0.16132490168E+03 -0.14086224507E+04  0.14190647479E+04  0.00000000000E+00 0.  1.
         21    1    1    2  504  502 -0.45789802102E+02  0.32264591278E+02  0.11750975502E+03  0.13017777211E+03  0.00000000000E+00 0.  1.
         21    1    1    2  505  501  0.28987706776E+01 -0.10031190229E+03  0.41896589170E+03  0.43081701338E+03  0.00000000000E+00 0.  1.
          2    1    1    2  501    0  0.10206726207E+03  0.22937221269E+03 -0.16273132438E+04  0.16465654349E+04  0.00000000000E+00 0.  1.
<scales pt_clust_3="14000.00000" pt_clust_4="56.01526" pt_clust_5="80.55613" pt_clust_6="199.58349"></scales>
<clustering>
<clus scale="   56.015">  1  4  2 -1</clus>
<clus scale="   80.556">  1  5  2 -1</clus>
<clus scale="  199.583">  1  6  2 -1</clus>
<clus scale="   56.015">  1  3  2 -1</clus>
</clustering>
</event>
<event>
 6    0  0.3584505E+002  0.7150441E+02  0.7546771E-02  0.1355051E+00
         21   -1    0    0  501  502  0.00000000000E+00  0.00000000000E+00  0.16070776846E+03  0.16070776846E+03  0.00000000000E+00 0.  1.
          1   -1    0    0  503    0 -0.00000000000E+00 -0.00000000000E+00 -0.26442781365E+04  0.26442781365E+04  0.00000000000E+00 0. -1.
         21    1    1    2  503  505  0.37143069698E+02  0.91067758040E+02 -0.11339465314E+03  0.15010426890E+03  0.00000000000E+00 0.  1.
         21    1    1    2  504  502 -0.37649957142E+02 -0.17204003983E+02  0.11108664515E+03  0.11854847007E+03  0.00000000000E+00 0.  1.
         21    1    1    2  505  504  0.42208534591E+02 -0.54819512300E+02 -0.16476668390E+02  0.71121163674E+02  0.00000000000E+00 0.  1.
          1    1    1    2  501    0 -0.41701647146E+02 -0.19044241758E+02 -0.24647856916E+04  0.24652120023E+04  0.00000000000E+00 0. -1.
<scales pt_clust_3="71.50441" pt_clust_4="41.39441" pt_clust_5="14000.00000" pt_clust_6="46.03669"></scales>
<clustering>
<clus scale="   41.394">  1  4  2 -1</clus>
<clus scale="   46.037">  2  6  1 -1</clus>
<clus scale="   71.504">  2  3  1 -1</clus>
<clus scale="   41.394">  1  3  2 -1</clus>
</clustering>
</event>
<event>
 6    0  0.3584505E+002  0.2369141E+03  0.7546771E-02  0.1121866E+00
          2   -1    0    0  504    0 -0.00000000000E+00  0.00000000000E+00  0.10403942894E+04  0.10403942894E+04  0.00000000000E+00 0.  1.
         21   -1    0    0  503  502  0.00000000000E+00 -0.00000000000E+00 -0.41972694276E+03  0.41972694276E+03  0.00000000000E+00 0.  1.
         21    1    1    2  503  501 -0.88652613807E+02  0.16980926241E+03  0.20098724519E+03  0.27765147985E+03  0.00000000000E+00 0.  1.
         21    1    1    2  504  505  0.31718514753E+02 -0.30480441789E+03  0.23129966136E+03  0.38394183242E+03  0.00000000000E+00 0.  1.
         21    1    1    2  505  502 -0.74383955292E+02  0.60249931336E+02 -0.28551092026E+03  0.30113039139E+03  0.00000000000E+00 0.  1.
          2    1    1    2  501    0  0.13131805435E+03  0.74745224140E+02  0.47389136034E+03  0.49739752848E+03  0.00000000000E+00 0.  1.
<scales pt_clust_3="14000.00000" pt_clust_4="236.91414" pt_clust_5="95.72370" pt_clust_6="148.09291"></scales>
<clustering>
<clus scale="   95.724">  2  5  1 -1</clus>
<clus scale="  148.093">  1  6  2 -1</clus>
<clus scale="  236.914">  2  4  1 -1</clus>
<clus scale="   95.724">  2  3  1 -1</clus>
</clustering>
</event>
<event>
 6    0  0.3584505E+002  0.7449931E+02  0.7546771E-02  0.1345429E+00
          1   -1    0    0  504    0 -0.00000000000E+00  0.00000000000E+00  0.34996362192E+03  0.34996362192E+03  0.00000000000E+00 0.  1.
         21   -1    0    0  503  502  0.00000000000E+00 -0.00000000000E+00 -0.24143577728E+03  0.24143577728E+03  0.00000000000E+00 0.  1.
         21    1    1    2  503  505  0.44423862513E+02 -0.20775605288E+02 -0.14643441466E+03  0.15442844017E+03  0.00000000000E+00 0.  1.
         21    1    1    2  504  502 -0.70097109434E+02  0.44838510912E+02  0.11074753598E+01  0.83218527465E+02  0.00000000000E+00 0. -1.
         21    1    1    2  505  501  0.80422502201E+02 -0.15534226912E+02 -0.11465867960E+02  0.82707661036E+02  0.00000000000E+00 0.  1.
          1    1    1    2  501    0 -0.54749255280E+02 -0.85286787122E+01  0.26532065189E+03  0.27104477054E+03  0.00000000000E+00 0.  1.
<scales pt_clust_3="49.04187" pt_clust_4="14000.00000" pt_clust_5="74.49931" pt_clust_6="54.13650"></scales>
<clustering>
<clus scale="   49.042">  2  3  1 -1</clus>
<clus scale="   54.137">  1  6  2 -1</clus>
<clus scale="   74.499">  1  5  2 -1</clus>
<clus scale="   49.042">  2  3  1 -1</clus>
</clustering>
</event>
<event>
 6    0  0.3584505E+002  0.1031267E+03  0.7546771E-02  0.1273855E+00
          2   -1    0    0  504    0 -0.00000000000E+00  0.00000000000E+00  0.16304096408E+04  0.16304096408E+04  0.00000000000E+00 0.  1.
         21   -1    0    0  503  502  0.00000000000E+00 -0.00000000000E+00 -0.99589813702E+02  0.99589813702E+02  0.00000000000E+00 0.  1.
         21    1    1    2  503  505  0.19054861869E+02  0.34346377675E+02  0.95262254614E+01  0.40416709314E+02  0.00000000000E+00 0. -1.
         21    1    1    2  504  502 -0.86490460072E+02 -0.13432559018E+03  0.11128388778E+02  0.16014932063E+03  0.00000000000E+00 0.  1.
         21    1    1    2  505  501  0.46197282106E+02  0.20930613081E+00  0.60193608972E+02  0.75878213238E+02  0.00000000000E+00 0.  1.
          2    1    1    2  501    0  0.21238316097E+02  0.99769906373E+02  0.14499716039E+04  0.14535552113E+04  0.00000000000E+00 0.  1.
<scales pt_clust_3="39.27800" pt_clust_4="103.12669" pt_clust_5="48.09427" pt_clust_6="14000.00000"></scales>
<clustering>
<clus scale="   39.278">  2  3  1 -1</clus>
<clus scale="   48.094">  2  5  1 -1</clus>
<clus scale="  103.127">  2  4  1 -1</clus>
<clus scale="   39.278">  2  3  1 -1</clus>
</clustering>
</event>
<event>
 6    0  0.3584505E+002  0.8033386E+02  0.7546771E-02  0.1328107E+00
         21   -1    0    0  503  502  0.00000000000E+00  0.00000000000E+00  0.16427210958E+04  0.16427210958E+04  0.00000000000E+00 0. -1.
          1   -1    0    0  504    0 -0.00000000000E+00 -0.00000000000E+00 -0.61636636243E+02  0.61636636243E+02  0.00000000000E+00 0.  1.
         21    1    1    2  503  501 -0.30202443950E+02  0.25986330550E+02  0.29266138587E+02  0.49436665177E+02  0.00000000000E+00 0. -1.
         21    1    1    2  504  505  0.93400310835E+02  0.58968990589E+02  0.14746076635E+03  0.18424341923E+03  0.00000000000E+00 0. -1.
         21    1    1    2  505  502 -0.31217072151E+02 -0.73238677339E+02  0.14273597509E+04  0.14295783532E+04  0.00000000000E+00 0. -1.
          1    1    1    2  501    0 -0.31980794734E+02 -0.11716643799E+02 -0.23002196249E+02  0.41099294472E+02  0.00000000000E+00 0.  1.
<scales pt_clust_3="46.61769" pt_clust_4="80.33386" pt_clust_5="14000.00000" pt_clust_6="34.05952"></scales>
<clustering>
<clus scale="   34.060">  2  6  1 -1</clus>
<clus scale="   46.618">  2  3  1 -1</clus>
<clus scale="   80.334">  2  4  1 -1</clus>
<clus scale="   80.334">  1  3  2 -1</clus>
</clustering>
</event>
<event>
 6    0  0.3584505E+002  0.1745873E+03  0.7546771E-02  0.1173147E+00
         -3   -1    0    0    0  501 -0.00000000000E+00  0.00000000000E+00  0.11809979733E+04  0.11809979733E+04  0.00000000000E+00 0.  1.
         21   -1    0    0  503  502  0.00000000000E+00 -0.00000000000E+00 -0.14932603545E+04  0.14932603545E+04  0.00000000000E+00 0.  1.
         21    1    1    2  503  504  0.50792956034E+01 -0.17186687770E+03 -0.93811292491E+03  0.95373994505E+03  0.00000000000E+00 0.  1.
         21    1    1    2  504  501  0.88823704189E+01 -0.54189126131E+02  0.85803639903E+03  0.85979173057E+03  0.00000000000E+00 0.  1.
         21    1    1    2  505  502 -0.55160506071E+02  0.17595208985E+03 -0.52727699187E+03  0.55859005138E+03  0.00000000000E+00 0.  1.
         -3    1    1    2    0  505  0.41198840049E+02  0.50103913984E+02  0.29509113659E+03  0.30213660074E+03  0.00000000000E+00 0.  1.
<scales pt_clust_3="174.58726" pt_clust_4="54.91227" pt_clust_5="14000.00000" pt_clust_6="49.43415"></scales>
<clustering>
<clus scale="   54.912">  1  4  2 -1</clus>
<clus scale="   49.434">  1  6  2 -1</clus>
<clus scale="  174.587">  2  3  1 -1</clus>
<clus scale="  174.587">  2  3  1 -1</clus>
</clustering>
</event>
<event>
 6    0  0.3584505E+002  0.2036353E+03  0.7546771E-02  0.1146708E+00
         21   -1    0    0  503  502  0.00000000000E+00  0.00000000000E+00  0.11772414549E+03  0.11772414549E+03  0.00000000000E+00 0.  1.
          2   -1    0    0  504    0 -0.00000000000E+00 -0.00000000000E+00 -0.87090495376E+03  0.87090495376E+03  0.00000000000E+00 0.  1.
         21    1    1    2  503  501 -0.11551679558E+03  0.26693606760E+02 -0.11236523800E+03  0.16334817236E+03  0.00000000000E+00 0.  1.
         21    1    1    2  504  505  0.19897382348E+03 -0.54049076020E+02 -0.18174937082E+03  0.27485399550E+03  0.00000000000E+00 0.  1.
         21    1    1    2  505  502  0.70699508276E+02  0.24550534236E+02 -0.98482365858E+01  0.75486005098E+02  0.00000000000E+00 0. -1.
          2    1    1    2  501    0 -0.15415653618E+03  0.28049350239E+01 -0.44921796286E+03  0.47494092629E+03  0.00000000000E+00 0.  1.
<scales pt_clust_3="118.56086" pt_clust_4="67.18273" pt_clust_5="67.18273" pt_clust_6="170.38996"></scales>
<clustering>
<clus scale="   67.183">  4  5 -1 -1</clus>
<clus scale="  118.561">  1  3  2 -1</clus>
<clus scale="  170.390">  2  6  1 -1</clus>
<clus scale="  118.561">  1  3  2 -1</clus>
</clustering>
</event>
<event>
 6    0  0.3584505E+002  0.1319810E+03  0.7546771E-02  0.1224546E+00
         21   -1    0    0  503  502  0.00000000000E+00  0.00000000000E+00  0.43414063627E+03  0.43414063627E+03  0.00000000000E+00 0. -1.
         -2   -1    0    0    0  501 -0.00000000000E+00 -0.00000000000E+00 -0.10463009817E+04  0.10463009817E+04  0.00000000000E+00 0.  1.
         21    1    1    2  503  501  0.51479086165E+02 -0.13506790997E+03  0.36736171965E+03  0.39477597404E+03  0.00000000000E+00 0. -1.
         21    1    1    2  504  502 -0.89141180580E+02  0.47022383176E+02 -0.14046424269E+02  0.10175734189E+03  0.00000000000E+00 0. -1.
         21    1    1    2  505  504  0.35488432286E+02  0.48005321401E+02 -0.93003211893E+02  0.11051487290E+03  0.00000000000E+00 0. -1.
         -2    1    1    2    0  505  0.21736621294E+01  0.40040205388E+02 -0.87247242893E+03  0.87339342916E+03  0.00000000000E+00 0.  1.
<scales pt_clust_3="14000.00000" pt_clust_4="131.98103" pt_clust_5="80.40444" pt_clust_6="40.09916"></scales>
<clustering>
<clus scale="   40.099">  2  6  1 -1</clus>
<clus scale="   80.404">  2  5  1 -1</clus>
<clus scale="  131.981">  2  4  1 -1</clus>
<clus scale="  131.981">  1  3  2 -1</clus>
</clustering>
</event>
<event>
 6    0  0.3584505E+002  0.3431832E+03  0.7546771E-02  0.1065448E+00
          1   -1    0    0  502    0 -0.00000000000E+00  0.00000000000E+00  0.26362297168E+04  0.26362297168E+04  0.00000000000E+00 0.  1.
         21   -1    0    0  504  502  0.00000000000E+00 -0.00000000000E+00 -0.19323929293E+03  0.19323929293E+03  0.00000000000E+00 0. -1.
         21    1    1    2  503  501 -0.67091281556E+02  0.25656198206E+03  0.57966999464E+02  0.27145066537E+03  0.00000000000E+00 0. -1.
         21    1    1    2  504  505  0.58373383533E+02  0.19268863578E+02 -0.12242954868E+02  0.62678791888E+02  0.00000000000E+00 0. -1.
         21    1    1    2  505  503  0.11254097974E+02  0.59910345198E+02 -0.12557918186E+02  0.62238296025E+02  0.00000000000E+00 0. -1.
          1    1    1    2  501    0 -0.25361999503E+01 -0.33574119084E+03  0.24098242975E+04  0.24331012565E+04  0.00000000000E+00 0.  1.
<scales pt_clust_3="37.18033" pt_clust_4="61.47146" pt_clust_5="37.18033" pt_clust_6="334.30656"></scales>
<clustering>
<clus scale="   37.180">  3  5 -1 -1</clus>
<clus scale="   61.471">  2  4  1 -1</clus>
<clus scale="  334.307">  1  6  2 -1</clus>
<clus scale="   61.471">  2  3  1 -1</clus>
</clustering>
</event>
<event>
 6    0  0.3584505E+002  0.1770747E+03  0.7546771E-02  0.1170665E+00
          2   -1    0    0  504    0 -0.00000000000E+00  0.00000000000E+00  0.46784765407E+03  0.46784765407E+03  0.00000000000E+00 0.  1.
         21   -1    0    0  503  502  0.00000000000E+00 -0.00000000000E+00 -0.19492779548E+03  0.19492779548E+03  0.00000000000E+00 0.  1.
         21    1    1    2  503  505  0.30987340029E+02 -0.13608305762E+02 -0.60983502662E+02  0.69745170619E+02  0.00000000000E+00 0.  1.
         21    1    1    2  504  502 -0.17689193116E+03  0.11439645482E+03  0.13556699248E+03  0.25051090522E+03  0.00000000000E+00 0.  1.
         21    1    1    2  505  501  0.11122534030E+03 -0.98402243559E+02  0.76634785904E+01  0.14870375505E+03  0.00000000000E+00 0.  1.
          2    1    1    2  501    0  0.34679250834E+02 -0.23859054966E+01  0.19067289018E+03  0.19381561865E+03  0.00000000000E+00 0.  1.
<scales pt_clust_3="33.84378" pt_clust_4="177.07467" pt_clust_5="14000.00000" pt_clust_6="35.14776"></scales>
<clustering>
<clus scale="   33.844">  2  3  1 -1</clus>
<clus scale="   35.148">  1  6  2 -1</clus>
<clus scale="  177.075">  1  4  2 -1</clus>
<clus scale="   33.844">  2  3  1 -1</clus>
</clustering>
</event>
<event>
 6    0  0.3584505E+002  0.1583877E+03  0.7546771E-02  0.1190529E+00
         21   -1    0    0  505  502  0.00000000000E+00  0.00000000000E+00  0.16335229168E+04  0.16335229168E+04  0.00000000000E+00 0.  1.
         -3   -1    0    0    0  501 -0.00000000000E+00 -0.00000000000E+00 -0.47262540407E+03  0.47262540407E+03  0.00000000000E+00 0.  1.
         21    1    1    2  503  502  0.63184378121E+02 -0.16060594944E+03  0.14462847496E+04  0.14565459531E+04  0.00000000000E+00 0.  1.
         21    1    1    2  504  501 -0.24837633600E+02  0.11067260563E+03 -0.57737241401E+02  0.12727498861E+03  0.00000000000E+00 0.  1.
         21    1    1    2  505  504 -0.65038215154E+02 -0.41555750367E+01  0.13753524756E+03  0.15219455495E+03  0.00000000000E+00 0.  1.
         -3    1    1    2    0  503  0.26691470634E+02  0.54088918848E+02 -0.36518524308E+03  0.37013282414E+03  0.00000000000E+00 0.  1.
<scales pt_clust_3="158.38767" pt_clust_4="14000.00000" pt_clust_5="63.17552" pt_clust_6="60.31621"></scales>
<clustering>
<clus scale="   60.316">  2  6  1 -1</clus>
<clus scale="   63.176">  1  5  2 -1</clus>
<clus scale="  158.388">  1  3  2 -1</clus>
<clus scale="   63.176">  1  3  2 -1</clus>
</clustering>
</event>
<event>
 6    0  0.3584505E+002  0.1224124E+03  0.7546771E-02  0.1239170E+00
         21   -1    0    0  505  502  0.00000000000E+00  0.00000000000E+00  0.25229817732E+03  0.25229817732E+03  0.00000000000E+00 0. -1.
          2   -1    0    0  503    0 -0.00000000000E+00 -0.00000000000E+00 -0.23282713745E+04  0.23282713745E+04  0.00000000000E+00 0.  1.
         21    1    1    2  503  504  0.14127530184E+02 -0.27581692327E+02 -0.11069892595E+04  0.11074229353E+04  0.00000000000E+00 0.  1.
         21    1    1    2  504  502 -0.11795737688E+03  0.69798002139E+02  0.81494716069E+02  0.15945874893E+03  0.00000000000E+00 0. -1.
         21    1    1    2  505  501 -0.17838471465E+01 -0.42208338145E+02  0.12578628911E+03  0.13269105639E+03  0.00000000000E+00 0. -1.
          2    1    1    2  501    0  0.10561369385E+03 -0.79716678275E-02 -0.11762649429E+04  0.11809968113E+04  0.00000000000E+00 0.  1.
<scales pt_clust_3="30.98930" pt_clust_4="14000.00000" pt_clust_5="42.32227" pt_clust_6="122.41240"></scales>
<clustering>
<clus scale="   30.989">  2  3  1 -1</clus>
<clus scale="   42.322">  1  5  2 -1</clus>
<clus scale="  122.412">  2  6  1 -1</clus>
<clus scale="   42.322">  1  3  2 -1</clus>
</clustering>
</event>
<event>
 6    0  0.3584505E+002  0.7033721E+02  0.7546771E-02  0.1358950E+00
         21   -1    0    0  505  502  0.00000000000E+00  0.00000000000E+00  0.74980419825E+03  0.74980419825E+03  0.00000000000E+00 0. -1.
          2   -1    0    0  503    0 -0.00000000000E+00 -0.00000000000E+00 -0.11236875234E+04  0.11236875234E+04  0.00000000000E+00 0. -1.
         21    1    1    2  503  502  0.80962819619E+02 -0.55316008285E+02 -0.22835115288E+02  0.10067910123E+03  0.00000000000E+00 0.  1.
         21    1    1    2  504  501 -0.53580035079E+02  0.34927793519E+02  0.71389326959E+02  0.95849918742E+02  0.00000000000E+00 0.  1.
         21    1    1    2  505  504  0.41506845122E+02  0.92883788851E+01  0.62537980697E+03  0.62682453297E+03  0.00000000000E+00 0. -1.
          2    1    1    2  501    0 -0.68889629662E+02  0.11099835881E+02 -0.10478173438E+04  0.10501381687E+04  0.00000000000E+00 0. -1.
<scales pt_clust_3="70.33721" pt_clust_4="48.47030" pt_clust_5="42.53342" pt_clust_6="14000.00000"></scales>
<clustering>
<clus scale="   42.533">  1  5  2 -1</clus>
<clus scale="   48.470">  1  4  2 -1</clus>
<clus scale="   70.337">  1  3  2 -1</clus>
<clus scale="   42.533">  1  3  2 -1</clus>
</clustering>
</event>
<event>
 6    0  0.3584505E+002  0.1503432E+03  0.7546771E-02  0.1200052E+00
          2   -1    0    0  502    0 -0.00000000000E+00  0.00000000000E+00  0.16938583335E+04  0.16938583335E+04  0.00000000000E+00 0.  1.
         21   -1    0    0  503  502  0.00000000000E+00 -0.00000000000E+00 -0.57722665922E+02  0.57722665922E+02  0.00000000000E+00 0.  1.
         21    1    1    2  503  504  0.28017726797E+02  0.11789597845E+02  0.32199223925E+02  0.44280669073E+02  0.00000000000E+00 0. -1.
         21    1    1    2  504  505  0.91794527485E+02 -0.97692376142E+02  0.66323614652E+02  0.14956221947E+03  0.00000000000E+00 0.  1.
         21    1    1    2  505  501 -0.15824538904E+03  0.99564243560E+02  0.92140645920E+03  0.94018322938E+03  0.00000000000E+00 0.  1.
          2    1    1    2  501    0  0.38433134756E+02 -0.13661465262E+02  0.61620636978E+03  0.61755488147E+03  0.00000000000E+00 0.  1.
<scales pt_clust_3="30.39716" pt_clust_4="14000.00000" pt_clust_5="150.34321" pt_clust_6="41.08276"></scales>
<clustering>
<clus scale="   30.397">  2  3  1 -1</clus>
<clus scale="   41.083">  1  6  2 -1</clus>
<clus scale="  150.343">  1  5  2 -1</clus>
<clus scale="   30.397">  2  3  1 -1</clus>
</clustering>
</event>
<event>
 6    0  0.3584505E+002  0.8591133E+02  0.7546771E-02  0.1313066E+00
         21   -1    0    0  504  502  0.00000000000E+00  0.00000000000E+00  0.84486159502E+02  0.84486159502E+02  0.00000000000E+00 0.  1.
          2   -1    0    0  503    0 -0.00000000000E+00 -0.00000000000E+00 -0.11049786759E+04  0.11049786759E+04  0.00000000000E+00 0.  1.
         21    1    1    2  503  502 -0.47222817716E+02 -0.51603455109E+02 -0.18497294247E+03  0.19775717570E+03  0.00000000000E+00 0.  1.
         21    1    1    2  504  505  0.15702140455E+02  0.27795938786E+02  0.46832629342E+02  0.56678625592E+02  0.00000000000E+00 0.  1.
         21    1    1    2  505  501  0.10237988779E+03 -0.22612381698E+02 -0.90045991300E+02  0.13820724214E+03  0.00000000000E+00 0.  1.
          2    1    1    2  501    0 -0.70859210526E+02  0.46419898022E+02 -0.79230621193E+03  0.79682179194E+03  0.00000000000E+00 0.  1.
<scales pt_clust_3="63.88983" pt_clust_4="31.92446" pt_clust_5="14000.00000" pt_clust_6="85.91133"></scales>
<clustering>
<clus scale="   31.924">  1  4  2 -1</clus>
<clus scale="   63.890">  1  3  2 -1</clus>
<clus scale="   85.911">  2  6  1 -1</clus>
<clus scale="   31.924">  1  3  2 -1</clus>
</clustering>
</event>
<event>
 6    0  0.3584505E+002  0.1511558E+03  0.7546771E-02  0.1199060E+00
          2   -1    0    0  503    0 -0.00000000000E+00  0.00000000000E+00  0.22280233213E+04  0.22280233213E+04  0.00000000000E+00 0.  1.
         21   -1    0    0  504  502  0.00000000000E+00 -0.00000000000E+00 -0.74163744209E+03  0.74163744209E+03  0.00000000000E+00 0.  1.
         21    1    1    2  503  502  0.26924551400E+01 -0.48178485387E+02 -0.17647461839E+02  0.51379457745E+02  0.00000000000E+00 0.  1.
         21    1    1    2  504  505 -0.31019302128E+02 -0.11049049388E+03 -0.66986694890E+03  0.67962642353E+03  0.00000000000E+00 0.  1.
         21    1    1    2  505  501 -0.39943955646E+02  0.12156050721E+03  0.97671823778E+02  0.16097286003E+03  0.00000000000E+00 0.  1.
          2    1    1    2  501    0  0.68270802634E+02  0.37108472054E+02  0.20762284662E+04  0.20776820221E+04  0.00000000000E+00 0.  1.
<scales pt_clust_3="48.25366" pt_clust_4="151.15584" pt_clust_5="14000.00000" pt_clust_6="77.68299"></scales>
<clustering>
<clus scale="   48.254">  2  3  1 -1</clus>
<clus scale="   77.683">  1  6  2 -1</clus>
<clus scale="  151.156">  2  4  1 -1</clus>
<clus scale="   48.254">  2  3  1 -1</clus>
</clustering>
</event>
<event>
 6    0  0.3584505E+002  0.1113842E+03  0.7546771E-02  0.1258028E+00
         21   -1    0    0  504  502  0.00000000000E+00  0.00000000000E+00  0.72523314306E+03  0.72523314306E+03  0.00000000000E+00 0. -1.
          2   -1    0    0  503    0 -0.00000000000E+00 -0.00000000000E+00 -0.21447895816E+03  0.21447895816E+03  0.00000000000E+00 0. -1.
         21    1    1    2  503  502  0.68126973983E+02  0.13031727960E+03  0.18720079086E+03  0.23805044433E+03  0.00000000000E+00 0. -1.
         21    1    1    2  504  505 -0.11575054346E+02 -0.28513851664E+02  0.32497161606E+03  0.32642544764E+03  0.00000000000E+00 0. -1.
         21    1    1    2  505  501 -0.61994165378E+02 -0.60124420679E+02  0.17432082534E+03  0.19454041392E+03  0.00000000000E+00 0.  1.
          2    1    1    2  501    0  0.54422457405E+01 -0.41679007261E+02 -0.17573904735E+03  0.18069579533E+03  0.00000000000E+00 0. -1.
<scales pt_clust_3="14000.00000" pt_clust_4="30.77372" pt_clust_5="111.38420" pt_clust_6="42.19901"></scales>
<clustering>
<clus scale="   30.774">  1  4  2 -1</clus>
<clus scale="   42.199">  2  6  1 -1</clus>
<clus scale="  111.384">  1  5  2 -1</clus>
<clus scale="   30.774">  1  3  2 -1</clus>
</clustering>
</event>
<event>
 6    0  0.3584505E+002  0.8112119E+02  0.7546771E-02  0.1325899E+00
         21   -1    0    0  503  502  0.00000000000E+00  0.00000000000E+00  0.90223886188E+03  0.90223886188E+03  0.00000000000E+00 0. -1.
          3   -1    0    0  505    0 -0.00000000000E+00 -0.00000000000E+00 -0.12101224094E+04  0.12101224094E+04  0.00000000000E+00 0. -1.
         21    1    1    2  503  501  0.28179343797E+02  0.17382274495E+02  0.79198551777E+03  0.79267728569E+03  0.00000000000E+00 0. -1.
         21    1    1    2  504  502 -0.17807740345E+02 -0.10136489865E+03  0.73518813902E+02  0.12647914568E+03  0.00000000000E+00 0. -1.
         21    1    1    2  505  504  0.37628857250E+02  0.52989381057E+02 -0.10633407865E+03  0.12462239640E+03  0.00000000000E+00 0. -1.
          3    1    1    2  501    0 -0.48000460703E+02  0.30993243096E+02 -0.10670538006E+04  0.10685824436E+04  0.00000000000E+00 0. -1.
<scales pt_clust_3="33.10920" pt_clust_4="14000.00000" pt_clust_5="81.12119" pt_clust_6="57.03822"></scales>
<clustering>
<clus scale="   33.109">  1  3  2 -1</clus>
<clus scale="   57.038">  2  6  1 -1</clus>
<clus scale="   81.121">  2  5  1 -1</clus>
<clus scale="   33.109">  1  3  2 -1</clus>
</clustering>
</event>
<event>
 6    0  0.3584505E+002  0.6091908E+02  0.7546771E-02  0.1394015E+00
         21   -1    0    0  504  502  0.00000000000E+00  0.00000000000E+00  0.10374729634E+03  0.10374729634E+03  0.00000000000E+00 0.  1.
          2   -1    0    0  505    0 -0.00000000000E+00 -0.00000000000E+00 -0.29075347513E+03  0.29075347513E+03  0.00000000000E+00 0.  1.
         21    1    1    2  503  502 -0.10275843350E+02 -0.31345892235E+02 -0.11235104656E+02  0.34848034280E+02  0.00000000000E+00 0.  1.
         21    1    1    2  504  501  0.10845434537E+03 -0.47418730675E+01  0.77836738224E+01  0.10883664809E+03  0.00000000000E+00 0.  1.
         21    1    1    2  505  503 -0.52027287671E+02 -0.12724424833E+00  0.60176249564E+01  0.52374293920E+02  0.00000000000E+00 0.  1.
          2    1    1    2  501    0 -0.46151214348E+02  0.36215009550E+02 -0.18957237292E+03  0.19844179518E+03  0.00000000000E+00 0.  1.
<scales pt_clust_3="32.98724" pt_clust_4="14000.00000" pt_clust_5="56.20194" pt_clust_6="60.91908"></scales>
<clustering>
<clus scale="   32.987">  1  3  2 -1</clus>
<clus scale="   56.202">  1  5  2 -1</clus>
<clus scale="   60.919">  2  6  1 -1</clus>
<clus scale="   32.987">  1  3  2 -1</clus>
</clustering>
</event>
<event>
 6    0  0.3584505E+002  0.7184563E+02  0.7546771E-02  0.1353927E+00
         21   -1    0    0  503  502  0.00000000000E+00  0.00000000000E+00  0.38473847917E+02  0.38473847917E+02  0.00000000000E+00 0. -1.
          2   -1    0    0  505    0 -0.00000000000E+00 -0.00000000000E+00 -0.11358861844E+04  0.11358861844E+04  0.00000000000E+00 0.  1.
         21    1    1    2  503  501  0.53208068625E+02 -0.70797953937E+02 -0.76574718684E+02  0.11707748029E+03  0.00000000000E+00 0. -1.
         21    1    1    2  504  502 -0.26023460249E+02  0.17685971660E+02 -0.22202605847E+02  0.38509346700E+02  0.00000000000E+00 0. -1.
         21    1    1    2  505  504 -0.60933835260E+02 -0.16558157733E+02 -0.11048547607E+03  0.12725621906E+03  0.00000000000E+00 0. -1.
          2    1    1    2  501    0  0.33749226884E+02  0.69670140011E+02 -0.88814953593E+03  0.89151698632E+03  0.00000000000E+00 0.  1.
<scales pt_clust_3="69.01318" pt_clust_4="31.46449" pt_clust_5="14000.00000" pt_clust_6="71.84563"></scales>
<clustering>
<clus scale="   31.464">  1  4  2 -1</clus>
<clus scale="   69.013">  1  3  2 -1</clus>
<clus scale="   71.846">  2  6  1 -1</clus>
<clus scale="   31.464">  1  3  2 -1</clus>
</clustering>
</event>
<event>
 6    0  0.3584505E+002  0.1595674E+03  0.7546771E-02  0.1189186E+00
         21   -1    0    0  504  502  0.00000000000E+00  0.00000000000E+00  0.43539361613E+03  0.43539361613E+03  0.00000000000E+00 0.  1.
          2   -1    0    0  502    0 -0.00000000000E+00 -0.00000000000E+00 -0.39710898027E+03  0.39710898027E+03  0.00000000000E+00 0. -1.
         21    1    1    2  503  501 -0.61282197744E+01  0.10770934960E+03 -0.79136762271E+02  0.13379643572E+03  0.00000000000E+00 0.  1.
         21    1    1    2  504  505 -0.11260757990E+02  0.42174653684E+02  0.11771122872E+03  0.12554457157E+03  0.00000000000E+00 0.  1.
         21    1    1    2  505  503  0.48130319390E+02 -0.20639790587E+03  0.24246072196E+03  0.32203078251E+03  0.00000000000E+00 0.  1.
          2    1    1    2  501    0 -0.30741341625E+02  0.56513902586E+02 -0.24275055254E+03  0.25113080661E+03  0.00000000000E+00 0. -1.
<scales pt_clust_3="159.56741" pt_clust_4="43.65210" pt_clust_5="14000.00000" pt_clust_6="64.90066"></scales>
<clustering>
<clus scale="   43.652">  1  4  2 -1</clus>
<clus scale="   64.901">  2  6  1 -1</clus>
<clus scale="  159.567">  2  3  1 -1</clus>
<clus scale="   43.652">  1  3  2 -1</clus>
</clustering>
</event>
<event>
 6    0  0.3584505E+002  0.9711638E+02  0.7546771E-02  0.1286479E+00
          2   -1    0    0  504    0 -0.00000000000E+00  0.00000000000E+00  0.87457652770E+03  0.87457652770E+03  0.00000000000E+00 0. -1.
         21   -1    0    0  503  502  0.00000000000E+00 -0.00000000000E+00 -0.53441650068E+03  0.53441650068E+03  0.00000000000E+00 0. -1.
         21    1    1    2  503  505 -0.19308444595E+02  0.42105804310E+02 -0.23147951908E+03  0.23606880891E+03  0.00000000000E+00 0. -1.
         21    1    1    2  504  502 -0.50360247249E+02  0.41092234669E+02 -0.46495521552E+01  0.65163982293E+02  0.00000000000E+00 0. -1.
         21    1    1    2  505  501  0.67610250747E+02 -0.13423324088E+03 -0.24362508026E+03  0.28625668323E+03  0.00000000000E+00 0. -1.
          2    1    1    2  501    0  0.20584410970E+01  0.51035201904E+02  0.81991417851E+03  0.82150355394E+03  0.00000000000E+00 0. -1.
<scales pt_clust_3="46.32186" pt_clust_4="97.11638" pt_clust_5="14000.00000" pt_clust_6="51.18588"></scales>
<clustering>
<clus scale="   46.322">  2  3  1 -1</clus>
<clus scale="   51.186">  1  6  2 -1</clus>
<clus scale="   97.116">  1  4  2 -1</clus>
<clus scale="   46.322">  2  3  1 -1</clus>
</clustering>
</event>
<event>
 6    0  0.3584505E+002  0.1496139E+03  0.7546771E-02  0.1200948E+00
         21   -1    0    0  505  502  0.00000000000E+00  0.00000000000E+00  0.70864065765E+03  0.70864065765E+03  0.00000000000E+00 0.  1.
          2   -1    0    0  503    0 -0.00000000000E+00 -0.00000000000E+00 -0.39045707851E+03  0.39045707851E+03  0.00000000000E+00 0. -1.
         21    1    1    2  503  502  0.90662256336E+01  0.13846539053E+03  0.62555653260E+03  0.64076191858E+03  0.00000000000E+00 0.  1.
         21    1    1    2  504  501 -0.41974819225E+01 -0.17024157564E+03 -0.10015225920E+03  0.19756084620E+03  0.00000000000E+00 0. -1.
         21    1    1    2  505  504  0.30421529081E+02  0.48151111329E+01  0.14930424189E+02  0.34228238244E+02  0.00000000000E+00 0. -1.
          2    1    1    2  501    0 -0.35290272792E+02  0.26961073976E+02 -0.22215111845E+03  0.22654673313E+03  0.00000000000E+00 0. -1.
<scales pt_clust_3="149.61389" pt_clust_4="14000.00000" pt_clust_5="30.80024" pt_clust_6="44.34240"></scales>
<clustering>
<clus scale="   30.800">  1  5  2 -1</clus>
<clus scale="   44.342">  2  6  1 -1</clus>
<clus scale="  149.614">  1  3  2 -1</clus>
<clus scale="   30.800">  1  3  2 -1</clus>
</clustering>
</event>
<event>
 6    0  0.3584505E+002  0.1072877E+03  0.7546771E-02  0.1265677E+00
          1   -1    0    0  504    0 -0.00000000000E+00  0.00000000000E+00  0.29930725148E+04  0.29930725148E+04  0.00000000000E+00 0.  1.
         21   -1    0    0  505  502  0.00000000000E+00 -0.00000000000E+00 -0.41939905033E+03  0.41939905033E+03  0.00000000000E+00 0.  1.
         21    1    1    2  503  501 -0.13885815937E+03  0.19322573344E+02  0.20289787108E+03  0.24662217328E+03  0.00000000000E+00 0. -1.
         21    1    1    2  504  502 -0.39300246556E+01  0.44446027943E+02 -0.25330644858E+03  0.25720624290E+03  0.00000000000E+00 0.  1.
         21    1    1    2  505  503  0.82350846222E+02 -0.10851158977E+03 -0.10903913557E+03  0.17448770751E+03  0.00000000000E+00 0. -1.
          1    1    1    2  501    0  0.60437337800E+02  0.44742988478E+02  0.27331211776E+04  0.27341554415E+04  0.00000000000E+00 0.  1.
<scales pt_clust_3="107.28771" pt_clust_4="44.61944" pt_clust_5="14000.00000" pt_clust_6="75.27058"></scales>
<clustering>
<clus scale="   44.619">  2  4  1 -1</clus>
<clus scale="   75.271">  1  6  2 -1</clus>
<clus scale="  107.288">  1  3  2 -1</clus>
<clus scale="   44.619">  2  3  1 -1</clus>
</clustering>
</event>
<event>
 6    0  0.3584505E+002  0.1144815E+03  0.7546771E-02  0.1252489E+00
          3   -1    0    0  504    0 -0.00000000000E+00  0.00000000000E+00  0.13926862212E+03  0.13926862212E+03  0.00000000000E+00 0. -1.
         21   -1    0    0  505  502  0.00000000000E+00 -0.00000000000E+00 -0.28087897797E+03  0.28087897797E+03  0.00000000000E+00 0. -1.
         21    1    1    2  503  502 -0.23538730964E+02  0.55209927708E+02 -0.76261471895E+02  0.97046484060E+02  0.00000000000E+00 0.  1.
         21    1    1    2  504  503 -0.33547048209E+02  0.36413127726E+02 -0.21811693488E+02  0.54102405558E+02  0.00000000000E+00 0. -1.
         21    1    1    2  505  501  0.97367560997E+02 -0.56747284518E+02 -0.12711658249E+03  0.16988031604E+03  0.00000000000E+00 0. -1.
          3    1    1    2  501    0 -0.40281781825E+02 -0.34875770916E+02  0.83579392023E+02  0.99118394432E+02  0.00000000000E+00 0. -1.
<scales pt_clust_3="36.03462" pt_clust_4="36.03462" pt_clust_5="107.38691" pt_clust_6="53.28172"></scales>
<clustering>
<clus scale="   36.035">  3  4 -1 -1</clus>
<clus scale="   53.282">  1  6  2 -1</clus>
<clus scale="  107.387">  2  5  1 -1</clus>
<clus scale="  107.387">  2  3  1 -1</clus>
</clustering>
</event>
<event>
 6    0  0.3584505E+002  0.1020008E+03  0.7546771E-02  0.1276144E+00
         21   -1    0    0  503  502  0.00000000000E+00  0.00000000000E+00  0.58054868036E+02  0.58054868036E+02  0.00000000000E+00 0. -1.
         -4   -1    0    0    0  501 -0.00000000000E+00 -0.00000000000E+00 -0.99948263070E+03  0.99948263070E+03  0.00000000000E+00 0.  1.
         21    1    1    2  503  501 -0.14546323792E+02 -0.12822167284E+03 -0.10343281152E+03  0.16538058961E+03  0.00000000000E+00 0. -1.
         21    1    1    2  504  502  0.44781400445E+02 -0.43781291173E+01 -0.24604564632E+02  0.51282808436E+02  0.00000000000E+00 0. -1.
         21    1    1    2  505  504  0.21916839562E+02  0.73943569876E+02 -0.11736292553E+03  0.14043523658E+03  0.00000000000E+00 0. -1.
         -4    1    1    2    0  505 -0.52151916215E+02  0.58656232079E+02 -0.69602746098E+03  0.70043886411E+03  0.00000000000E+00 0.  1.
<scales pt_clust_3="14000.00000" pt_clust_4="44.99491" pt_clust_5="102.00081" pt_clust_6="76.87370"></scales>
<clustering>
<clus scale="   44.995">  1  4  2 -1</clus>
<clus scale="   76.874">  2  6  1 -1</clus>
<clus scale="  102.001">  2  5  1 -1</clus>
<clus scale="   44.995">  1  3  2 -1</clus>
</clustering>
</event>
<event>
 6    0  0.3584505E+002  0.1067497E+03  0.7546771E-02  0.1266710E+00
         21   -1    0    0  504  502  0.00000000000E+00  0.00000000000E+00  0.44400309133E+03  0.44400309133E+03  0.00000000000E+00 0.  1.
          2   -1    0    0  505    0 -0.00000000000E+00 -0.00000000000E+00 -0.64001219583E+03  0.64001219583E+03  0.00000000000E+00 0.  1.
         21    1    1    2  503  501 -0.74852285202E+02  0.42023409065E+01  0.47194608851E+02  0.88588122080E+02  0.00000000000E+00 0.  1.
         21    1    1    2  504  503 -0.29355847742E+02  0.32188333759E+02  0.28929007679E+03  0.29255188113E+03  0.00000000000E+00 0.  1.
         21    1    1    2  505  502  0.14538685387E+03 -0.65180735126E+02  0.84973806012E+01  0.15955585539E+03  0.00000000000E+00 0. -1.
          2    1    1    2  501    0 -0.41178720931E+02  0.28790060460E+02 -0.54099117074E+03  0.54331942857E+03  0.00000000000E+00 0.  1.
<scales pt_clust_3="14000.00000" pt_clust_4="43.56437" pt_clust_5="106.74972" pt_clust_6="50.56821"></scales>
<clustering>
<clus scale="   43.564">  1  4  2 -1</clus>
<clus scale="   50.568">  2  6  1 -1</clus>
<clus scale="  106.750">  2  5  1 -1</clus>
<clus scale="   43.564">  1  3  2 -1</clus>
</clustering>
</event>
<event>
 6    0  0.3584505E+002  0.1100505E+03  0.7546771E-02  0.1260476E+00
         21   -1    0    0  503  502  0.00000000000E+00  0.00000000000E+00  0.27101867599E+02  0.27101867599E+02  0.00000000000E+00 0.  1.
          2   -1    0    0  504    0 -0.00000000000E+00 -0.00000000000E+00 -0.26096303606E+04  0.26096303606E+04  0.00000000000E+00 0.  1.
         21    1    1    2  503  501 -0.12644392206E+02  0.60204356398E+02 -0.10160143426E+03  0.11877414124E+03  0.00000000000E+00 0.  1.
         21    1    1    2  504  505 -0.11450100029E+03 -0.93867432806E+02 -0.63538566906E+03  0.65240824830E+03  0.00000000000E+00 0.  1.
         21    1    1    2  505  502  0.87989900488E+02  0.17223862029E+02 -0.19680072573E+03  0.21626236302E+03  0.00000000000E+00 0.  1.
          2    1    1    2  501    0  0.39155492004E+02  0.16439214379E+02 -0.16487406640E+04  0.16492874756E+04  0.00000000000E+00 0.  1.
<scales pt_clust_3="62.62302" pt_clust_4="14000.00000" pt_clust_5="110.05046" pt_clust_6="42.46646"></scales>
<clustering>
<clus scale="   42.466">  2  6  1 -1</clus>
<clus scale="   62.623">  1  3  2 -1</clus>
<clus scale="  110.050">  1  5  2 -1</clus>
<clus scale="   62.623">  1  3  2 -1</clus>
</clustering>
</event>
<event>
 6    0  0.3584505E+002  0.1606381E+03  0.7546771E-02  0.1187978E+00
          2   -1    0    0  503    0 -0.00000000000E+00  0.00000000000E+00  0.76031697270E+02  0.76031697270E+02  0.00000000000E+00 0.  1.
         21   -1    0    0  501  502  0.00000000000E+00 -0.00000000000E+00 -0.85465987232E+03  0.85465987232E+03  0.00000000000E+00 0.  1.
         21    1    1    2  503  504  0.24982663259E+02 -0.20913257592E+02 -0.26841808756E+01  0.32691017629E+02  0.00000000000E+00 0. -1.
         21    1    1    2  504  505 -0.90919722154E+02  0.60024709673E+01 -0.13308558914E+03  0.16128917996E+03  0.00000000000E+00 0.  1.
         21    1    1    2  505  502 -0.97857644708E+02 -0.10562819562E+03 -0.36504280475E+03  0.39241519293E+03  0.00000000000E+00 0.  1.
          2    1    1    2  501    0  0.16379470360E+03  0.12053898224E+03 -0.27781560028E+03  0.34429617908E+03  0.00000000000E+00 0.  1.
<scales pt_clust_3="32.58064" pt_clust_4="85.15502" pt_clust_5="14000.00000" pt_clust_6="160.63811"></scales>
<clustering>
<clus scale="   32.581">  1  3  2 -1</clus>
<clus scale="   85.155">  1  4  2 -1</clus>
<clus scale="  160.638">  1  6  2 -1</clus>
<clus scale="  160.638">  2  3  1 -1</clus>
</clustering>
</event>
<event>
 6    0  0.3584505E+002  0.1325642E+03  0.7546771E-02  0.1223700E+00
         21   -1    0    0  505  502  0.00000000000E+00  0.00000000000E+00  0.89177842568E+03  0.89177842568E+03  0.00000000000E+00 0.  1.
          2   -1    0    0  503    0 -0.00000000000E+00 -0.00000000000E+00 -0.27100356851E+03  0.27100356851E+03  0.00000000000E+00 0.  1.
         21    1    1    2  503  502  0.22678099663E+02 -0.12435917296E+03  0.19178019404E+02  0.12785654669E+03  0.00000000000E+00 0.  1.
         21    1    1    2  504  501 -0.61367068605E+01  0.14719029100E+03  0.52842114477E+03  0.54857228072E+03  0.00000000000E+00 0.  1.
         21    1    1    2  505  504  0.28809810209E+02 -0.16280290831E+02  0.27622381284E+03  0.27819893568E+03  0.00000000000E+00 0. -1.
          2    1    1    2  501    0 -0.45351203012E+02 -0.65508272148E+01 -0.20304811985E+03  0.20815423110E+03  0.00000000000E+00 0.  1.
<scales pt_clust_3="132.56419" pt_clust_4="14000.00000" pt_clust_5="33.09159" pt_clust_6="45.71318"></scales>
<clustering>
<clus scale="   33.092">  1  5  2 -1</clus>
<clus scale="   45.713">  2  6  1 -1</clus>
<clus scale="  132.564">  2  3  1 -1</clus>
<clus scale="   33.092">  1  3  2 -1</clus>
</clustering>
</event>
<event>
 6    0  0.3584505E+002  0.2269845E+03  0.7546771E-02  0.1128780E+00
          3   -1    0    0  505    0 -0.00000000000E+00  0.00000000000E+00  0.11358973981E+04  0.11358973981E+04  0.00000000000E+00 0. -1.
         21   -1    0    0  503  502  0.00000000000E+00 -0.00000000000E+00 -0.18604592672E+03  0.18604592672E+03  0.00000000000E+00 0. -1.
         21    1    1    2  503  501  0.39826410300E+02  0.52927292807E+02  0.45577628774E+02  0.80403740745E+02  0.00000000000E+00 0.  1.
         21    1    1    2  504  502 -0.23542959704E+03 -0.61074838126E+02 -0.49510666736E+02  0.24821067088E+03  0.00000000000E+00 0. -1.
         21    1    1    2  505  504  0.17191692561E+03 -0.18158714550E+02  0.36914721365E+03  0.40762094348E+03  0.00000000000E+00 0. -1.
          3    1    1    2  501    0  0.23686261139E+02  0.26306259869E+02  0.58463729567E+03  0.58570796970E+03  0.00000000000E+00 0. -1.
<scales pt_clust_3="70.27182" pt_clust_4="226.98452" pt_clust_5="14000.00000" pt_clust_6="35.39856"></scales>
<clustering>
<clus scale="   35.399">  1  6  2 -1</clus>
<clus scale="   70.272">  1  3  2 -1</clus>
<clus scale="  226.985">  2  4  1 -1</clus>
<clus scale="  226.985">  2  3  1 -1</clus>
</clustering>
</event>
<event>
 6    0  0.3584505E+002  0.7613166E+02  0.7546771E-02  0.1340402E+00
          2   -1    0    0  504    0 -0.00000000000E+00  0.00000000000E+00  0.57236475012E+03  0.57236475012E+03  0.00000000000E+00 0. -1.
         21   -1    0    0  503  502  0.00000000000E+00 -0.00000000000E+00 -0.13036868595E+03  0.13036868595E+03  0.00000000000E+00 0. -1.
         21    1    1    2  503  501 -0.58657641342E+02  0.22096561788E+02  0.56705363737E+02  0.84524997529E+02  0.00000000000E+00 0.  1.
         21    1    1    2  504  505  0.62049001032E+02  0.37734136661E+02  0.21425633510E+03  0.22622935426E+03  0.00000000000E+00 0.  1.
         21    1    1    2  505  502  0.49841473092E+02 -0.63450390829E+02 -0.92703300814E+02  0.12289843985E+03  0.00000000000E+00 0. -1.
          2    1    1    2  501    0 -0.53232832782E+02  0.36196923800E+01  0.26373766615E+03  0.26908064442E+03  0.00000000000E+00 0. -1.
<scales pt_clust_3="76.13166" pt_clust_4="46.80143" pt_clust_5="14000.00000" pt_clust_6="53.35576"></scales>
<clustering>
<clus scale="   53.356">  1  6  2 -1</clus>
<clus scale="   46.801">  1  4  2 -1</clus>
<clus scale="   76.132">  1  3  2 -1</clus>
<clus scale="   76.132">  2  3  1 -1</clus>
</clustering>
</event>
<event>
 6    0  0.3584505E+002  0.8455313E+02  0.7546771E-02  0.1316605E+00
         -3   -1    0    0    0  501 -0.00000000000E+00  0.00000000000E+00  0.32581355366E+04  0.32581355366E+04  0.00000000000E+00 0.  1.
         21   -1    0    0  504  502  0.00000000000E+00 -0.00000000000E+00 -0.30122233971E+03  0.30122233971E+03  0.00000000000E+00 0. -1.
         21    1    1    2  503  501  0.51478748738E+02  0.53394370831E+02  0.51175182995E+03  0.51709859395E+03  0.00000000000E+00 0.  1.
         21    1    1    2  504  503  0.33275404825E+02  0.61383162121E+01 -0.26737788315E+03  0.26951041517E+03  0.00000000000E+00 0. -1.
         21    1    1    2  505  502 -0.89428454832E+01 -0.88457790195E+02  0.37523393156E+02  0.96502643308E+02  0.00000000000E+00 0.  1.
         -3    1    1    2    0  505 -0.75811308079E+02  0.28925103151E+02  0.26750158569E+04  0.26762462239E+04  0.00000000000E+00 0.  1.
<scales pt_clust_3="76.42983" pt_clust_4="33.83684" pt_clust_5="14000.00000" pt_clust_6="84.55313"></scales>
<clustering>
<clus scale="   33.837">  2  4  1 -1</clus>
<clus scale="   76.430">  1  3  2 -1</clus>
<clus scale="   84.553">  1  6  2 -1</clus>
<clus scale="   33.837">  2  3  1 -1</clus>
</clustering>
</event>
<event>
 6    0  0.3584505E+002  0.1143818E+03  0.7546771E-02  0.1252664E+00
         21   -1    0    0  504  502  0.00000000000E+00  0.00000000000E+00  0.21296904440E+04  0.21296904440E+04  0.00000000000E+00 0. -1.
          2   -1    0    0  505    0 -0.00000000000E+00 -0.00000000000E+00 -0.23545574256E+04  0.23545574256E+04  0.00000000000E+00 0.  1.
         21    1    1    2  503  502  0.94485390220E+01 -0.28784511975E+02  0.17273164169E+04  0.17275820754E+04  0.00000000000E+00 0. -1.
         21    1    1    2  504  501 -0.10113399150E+03  0.98581129064E+02  0.38547979989E+03  0.41053745184E+03  0.00000000000E+00 0. -1.
         21    1    1    2  505  503  0.57415880144E+02 -0.45208556737E+02 -0.32883147515E+03  0.33685387922E+03  0.00000000000E+00 0. -1.
          2    1    1    2  501    0  0.34269572330E+02 -0.24588060352E+02 -0.20088317232E+04  0.20092744632E+04  0.00000000000E+00 0.  1.
<scales pt_clust_3="30.29559" pt_clust_4="114.38178" pt_clust_5="14000.00000" pt_clust_6="42.19137"></scales>
<clustering>
<clus scale="   30.296">  1  3  2 -1</clus>
<clus scale="   42.191">  2  6  1 -1</clus>
<clus scale="  114.382">  1  4  2 -1</clus>
<clus scale="   30.296">  1  3  2 -1</clus>
</clustering>
</event>
<event>
 6    0  0.3584505E+002  0.1356761E+03  0.7546771E-02  0.1219268E+00
         21   -1    0    0  504  502  0.00000000000E+00  0.00000000000E+00  0.78286844800E+03  0.78286844800E+03  0.00000000000E+00 0.  1.
         -4   -1    0    0    0  501 -0.00000000000E+00 -0.00000000000E+00 -0.43640961695E+03  0.43640961695E+03  0.00000000000E+00 0.  1.
         21    1    1    2  503  505  0.21786933911E+02  0.17452769831E+03 -0.87950856927E+02  0.19664674216E+03  0.00000000000E+00 0.  1.
         21    1    1    2  504  501  0.33720318047E+02 -0.38216068776E+02  0.68998585926E+03  0.69186560382E+03  0.00000000000E+00 0.  1.
         21    1    1    2  505  502 -0.29935599157E+02 -0.13490990727E+02  0.12223836804E+02  0.35036682404E+02  0.00000000000E+00 0.  1.
         -4    1    1    2    0  503 -0.25571652802E+02 -0.12282063881E+03 -0.26780000808E+03  0.29572903657E+03  0.00000000000E+00 0.  1.
<scales pt_clust_3="135.67611" pt_clust_4="50.90708" pt_clust_5="32.83515" pt_clust_6="14000.00000"></scales>
<clustering>
<clus scale="   32.835">  1  5  2 -1</clus>
<clus scale="   50.907">  1  4  2 -1</clus>
<clus scale="  135.676">  1  3  2 -1</clus>
<clus scale="   32.835">  1  3  2 -1</clus>
</clustering>
</event>
<event>
 6    0  0.3584505E+002  0.1565684E+03  0.7546771E-02  0.1192626E+00
          2   -1    0    0  504    0 -0.00000000000E+00  0.00000000000E+00  0.95408785862E+03  0.95408785862E+03  0.00000000000E+00 0. -1.
         21   -1    0    0  505  502  0.00000000000E+00 -0.00000000000E+00 -0.14933604293E+03  0.14933604293E+03  0.00000000000E+00 0. -1.
         21    1    1    2  503  501 -0.10138147835E+03  0.58903663675E+01  0.22270970035E+03  0.24477032336E+03  0.00000000000E+00 0. -1.
         21    1    1    2  504  502  0.20629078112E+03  0.72212141635E+02 -0.14992699117E+02  0.21907820704E+03  0.00000000000E+00 0. -1.
         21    1    1    2  505  503 -0.38620527473E+02 -0.31274959933E+02  0.15001438591E+02  0.51910609907E+02  0.00000000000E+00 0. -1.
          2    1    1    2  501    0 -0.66288775296E+02 -0.46827548070E+02  0.58203337586E+03  0.58766476124E+03  0.00000000000E+00 0. -1.
<scales pt_clust_3="156.56844" pt_clust_4="14000.00000" pt_clust_5="49.69576" pt_clust_6="82.22731"></scales>
<clustering>
<clus scale="   49.696">  2  5  1 -1</clus>
<clus scale="   82.227">  1  6  2 -1</clus>
<clus scale="  156.568">  1  3  2 -1</clus>
<clus scale="   49.696">  2  3  1 -1</clus>
</clustering>
</event>
<event>
 6    0  0.3584505E+002  0.1944312E+03  0.7546771E-02  0.1154524E+00
          2   -1    0    0  505    0 -0.00000000000E+00  0.00000000000E+00  0.32555666273E+04  0.32555666273E+04  0.00000000000E+00 0. -1.
         21   -1    0    0  504  502  0.00000000000E+00 -0.00000000000E+00 -0.93539965922E+03  0.93539965922E+03  0.00000000000E+00 0. -1.
         21    1    1    2  503  501 -0.19218691959E+02 -0.18654270190E+03  0.24686081828E+03  0.31001258258E+03  0.00000000000E+00 0. -1.
         21    1    1    2  504  503 -0.76584503700E+02  0.57195912398E+02 -0.84372587592E+03  0.84912302542E+03  0.00000000000E+00 0. -1.
         21    1    1    2  505  502  0.78803021949E+02  0.17536459969E+03  0.10440582057E+03  0.21877667715E+03  0.00000000000E+00 0. -1.
          2    1    1    2  501    0  0.17000173710E+02 -0.46017810189E+02  0.28126262052E+04  0.28130540014E+04  0.00000000000E+00 0. -1.
<scales pt_clust_3="194.43123" pt_clust_4="95.33462" pt_clust_5="14000.00000" pt_clust_6="49.05757"></scales>
<clustering>
<clus scale="   49.058">  1  6  2 -1</clus>
<clus scale="   95.335">  2  4  1 -1</clus>
<clus scale="  194.431">  1  3  2 -1</clus>
<clus scale="   95.335">  2  3  1 -1</clus>
</clustering>
</event>
<event>
 6    0  0.3584505E+002  0.1848756E+03  0.7546771E-02  0.1163166E+00
         21   -1    0    0  504  502  0.00000000000E+00  0.00000000000E+00  0.34325323836E+02  0.34325323836E+02  0.00000000000E+00 0. -1.
          2   -1    0    0  502    0 -0.00000000000E+00 -0.00000000000E+00 -0.22552096860E+04  0.22552096860E+04  0.00000000000E+00 0. -1.
         21    1    1    2  503  505  0.79185524700E+02  0.22583507280E+02 -0.32277255821E+03  0.33311032175E+03  0.00000000000E+00 0. -1.
         21    1    1    2  504  503 -0.18502860027E+03 -0.88081336660E+01 -0.32369566214E+03  0.37295046297E+03  0.00000000000E+00 0. -1.
         21    1    1    2  505  501  0.52747086481E+02 -0.50301630491E+02 -0.35758874794E+03  0.36494139504E+03  0.00000000000E+00 0. -1.
          2    1    1    2  501    0  0.53095989089E+02  0.36526256877E+02 -0.12168273939E+04  0.12185328301E+04  0.00000000000E+00 0. -1.
<scales pt_clust_3="70.07591" pt_clust_4="167.23871" pt_clust_5="70.07591" pt_clust_6="64.44650"></scales>
<clustering>
<clus scale="   64.447">  2  6  1 -1</clus>
<clus scale="   70.076">  3  5 -1 -1</clus>
<clus scale="  167.239">  1  4  2 -1</clus>
<clus scale="  167.239">  1  3  2 -1</clus>
</clustering>
</event>
<event>
 6    0  0.3584505E+002  0.9151548E+02  0.7546771E-02  0.1299223E+00
          2   -1    0    0  503    0 -0.00000000000E+00  0.00000000000E+00  0.39769226648E+03  0.39769226648E+03  0.00000000000E+00 0.  1.
         21   -1    0    0  505  502  0.00000000000E+00 -0.00000000000E+00 -0.11108882178E+04  0.11108882178E+04  0.00000000000E+00 0.  1.
         21    1    1    2  503  502 -0.50467297435E+02 -0.46608108977E+02 -0.16247752253E+02  0.70592162356E+02  0.00000000000E+00 0.  1.
         21    1    1    2  504  501  0.72319036425E+02  0.10671374126E+03 -0.14036635780E+03  0.19057958969E+03  0.00000000000E+00 0.  1.
         21    1    1    2  505  504  0.24722417802E+02  0.17128517787E+02 -0.89585127593E+03  0.89635600776E+03  0.00000000000E+00 0.  1.
          2    1    1    2  501    0 -0.46574156791E+02 -0.77234150071E+02  0.33926943470E+03  0.35105272444E+03  0.00000000000E+00 0.  1.
<scales pt_clust_3="62.68181" pt_clust_4="91.51548" pt_clust_5="30.07630" pt_clust_6="14000.00000"></scales>
<clustering>
<clus scale="   30.076">  2  5  1 -1</clus>
<clus scale="   62.682">  2  3  1 -1</clus>
<clus scale="   91.515">  2  4  1 -1</clus>
<clus scale="   30.076">  2  3  1 -1</clus>
</clustering>
</event>
<event>
 6    0  0.3584505E+002  0.1038844E+03  0.7546771E-02  0.1272333E+00
         21   -1    0    0  504  502  0.00000000000E+00  0.00000000000E+00  0.28069902325E+03  0.28069902325E+03  0.00000000000E+00 0. -1.
          2   -1    0    0  505    0 -0.00000000000E+00 -0.00000000000E+00 -0.14419035590E+04  0.14419035590E+04  0.00000000000E+00 0.  1.
         21    1    1    2  503  502 -0.10264543621E+03 -0.44088066146E+02 -0.19230812015E+02  0.11335637293E+03  0.00000000000E+00 0. -1.
         21    1    1    2  504  501  0.24726961777E+02 -0.23909467350E+02  0.22833240480E+03  0.23090858007E+03  0.00000000000E+00 0. -1.
         21    1    1    2  505  503 -0.25739455208E+02  0.25704968255E+02 -0.30290930495E+03  0.30508574528E+03  0.00000000000E+00 0. -1.
          2    1    1    2  501    0  0.10365792964E+03  0.42292565241E+02 -0.10673968236E+04  0.10732518840E+04  0.00000000000E+00 0.  1.
<scales pt_clust_3="14000.00000" pt_clust_4="34.39601" pt_clust_5="35.64400" pt_clust_6="103.88436"></scales>
<clustering>
<clus scale="   34.396">  1  4  2 -1</clus>
<clus scale="   35.644">  2  5  1 -1</clus>
<clus scale="  103.884">  2  6  1 -1</clus>
<clus scale="   34.396">  1  3  2 -1</clus>
</clustering>
</event>
<event>
 6    0  0.3584505E+002  0.1183895E+03  0.7546771E-02  0.1245778E+00
         21   -1    0    0  503  502  0.00000000000E+00  0.00000000000E+00  0.54081424803E+03  0.54081424803E+03  0.00000000000E+00 0. -1.
          4   -1    0    0  505    0 -0.00000000000E+00 -0.00000000000E+00 -0.12042251886E+03  0.12042251886E+03  0.00000000000E+00 0.  1.
         21    1    1    2  503  504 -0.53707954755E+02 -0.38632838178E+02  0.20441297063E+03  0.21485274760E+03  0.00000000000E+00 0. -1.
         21    1    1    2  504  501  0.18496120202E+03  0.98405215558E+01  0.18666151537E+03  0.26296388238E+03  0.00000000000E+00 0. -1.
         21    1    1    2  505  502 -0.74894877906E+02 -0.13819922768E+02  0.68669055379E+02  0.10254595150E+03  0.00000000000E+00 0. -1.
          4    1    1    2  501    0 -0.56358369357E+02  0.42612239390E+02 -0.39351812201E+02  0.80874185411E+02  0.00000000000E+00 0.  1.
<scales pt_clust_3="66.15921" pt_clust_4="118.38950" pt_clust_5="14000.00000" pt_clust_6="71.98869"></scales>
<clustering>
<clus scale="   66.159">  1  3  2 -1</clus>
<clus scale="   71.989">  2  6  1 -1</clus>
<clus scale="  118.389">  1  4  2 -1</clus>
<clus scale="   66.159">  1  3  2 -1</clus>
</clustering>
</event>
<event>
 6    0  0.3584505E+002  0.2082238E+03  0.7546771E-02  0.1142980E+00
          2   -1    0    0  503    0 -0.00000000000E+00  0.00000000000E+00  0.27767558560E+04  0.27767558560E+04  0.00000000000E+00 0.  1.
         21   -1    0    0  504  502  0.00000000000E+00 -0.00000000000E+00 -0.13514677648E+03  0.13514677648E+03  0.00000000000E+00 0.  1.
         21    1    1    2  503  505  0.95934469073E+02 -0.15367974943E+03  0.36270978714E+03  0.40543714362E+03  0.00000000000E+00 0. -1.
         21    1    1    2  504  501 -0.10154690786E+03  0.32561074133E+03  0.15670111925E+04  0.16037014082E+04  0.00000000000E+00 0.  1.
         21    1    1    2  505  502 -0.28944361886E+02 -0.19920598183E+03  0.12173094497E+02  0.20166552386E+03  0.00000000000E+00 0.  1.
          2    1    1    2  501    0  0.34556800671E+02  0.27274989934E+02  0.69971500542E+03  0.70109855681E+03  0.00000000000E+00 0.  1.
<scales pt_clust_3="180.45212" pt_clust_4="14000.00000" pt_clust_5="208.22379" pt_clust_6="44.02383"></scales>
<clustering>
<clus scale="   44.024">  1  6  2 -1</clus>
<clus scale="  180.452">  1  3  2 -1</clus>
<clus scale="  208.224">  2  5  1 -1</clus>
<clus scale="  208.224">  2  3  1 -1</clus>
</clustering>
</event>
<event>
 6    0  0.3584505E+002  0.7363801E+02  0.7546771E-02  0.1348141E+00
          1   -1    0    0  504    0 -0.00000000000E+00  0.00000000000E+00  0.43417316598E+04  0.43417316598E+04  0.00000000000E+00 0.  1.
         21   -1    0    0  505  502  0.00000000000E+00 -0.00000000000E+00 -0.30214174156E+03  0.30214174156E+03  0.00000000000E+00 0.  1.
         21    1    1    2  503  502  0.28694267397E+02  0.15303549131E+02 -0.10201801600E+03  0.10707583847E+03  0.00000000000E+00 0.  1.
         21    1    1    2  504  503 -0.56906089254E+01 -0.83826161564E+02 -0.16920581554E+03  0.18891748570E+03  0.00000000000E+00 0.  1.
         21    1    1    2  505  501  0.38644365882E+02  0.96860716199E+02  0.13065587143E+03  0.16717159477E+03  0.00000000000E+00 0.  1.
          1    1    1    2  501    0 -0.61648024353E+02 -0.28338103766E+02  0.41801578783E+04  0.41807084824E+04  0.00000000000E+00 0.  1.
<scales pt_clust_3="32.52014" pt_clust_4="73.63801" pt_clust_5="14000.00000" pt_clust_6="67.80407"></scales>
<clustering>
<clus scale="   32.520">  2  3  1 -1</clus>
<clus scale="   67.804">  1  6  2 -1</clus>
<clus scale="   73.638">  2  4  1 -1</clus>
<clus scale="   32.520">  2  3  1 -1</clus>
</clustering>
</event>
<event>
 6    0  0.3584505E+002  0.8415200E+02  0.7546771E-02  0.1317665E+00
         -4   -1    0    0    0  501 -0.00000000000E+00  0.00000000000E+00  0.68099925853E+03  0.68099925853E+03  0.00000000000E+00 0.  1.
         21   -1    0    0  505  502  0.00000000000E+00 -0.00000000000E+00 -0.21417776623E+03  0.21417776623E+03  0.00000000000E+00 0.  1.
         21    1    1    2  503  501 -0.45774019715E+02 -0.90838226413E+02  0.26741469572E+03  0.28610743392E+03  0.00000000000E+00 0. -1.
         21    1    1    2  504  503  0.11449069757E+03  0.26012365109E+02 -0.51349927881E+01  0.11752076888E+03  0.00000000000E+00 0.  1.
         21    1    1    2  505  504 -0.48700809201E+02  0.15916177872E+02 -0.13683141615E+03  0.14610930833E+03  0.00000000000E+00 0.  1.
         -4    1    1    2    0  502 -0.20015868652E+02  0.48909683431E+02  0.34137320552E+03  0.34543951363E+03  0.00000000000E+00 0.  1.
<scales pt_clust_3="84.15200" pt_clust_4="14000.00000" pt_clust_5="51.23567" pt_clust_6="53.78567"></scales>
<clustering>
<clus scale="   51.236">  2  5  1 -1</clus>
<clus scale="   53.786">  1  6  2 -1</clus>
<clus scale="   84.152">  1  3  2 -1</clus>
<clus scale="   51.236">  2  3  1 -1</clus>
</clustering>
</event>
<event>
 6    0  0.3584505E+002  0.8206887E+02  0.7546771E-02  0.1323281E+00
          2   -1    0    0  502    0 -0.00000000000E+00  0.00000000000E+00  0.16249518779E+04  0.16249518779E+04  0.00000000000E+00 0.  1.
         21   -1    0    0  505  502  0.00000000000E+00 -0.00000000000E+00 -0.11232176989E+03  0.11232176989E+03  0.00000000000E+00 0.  1.
         21    1    1    2  503  501  0.60916863362E+01  0.69841032285E+02  0.18357457505E+03  0.19650573284E+03  0.00000000000E+00 0.  1.
         21    1    1    2  504  503  0.60919123897E+02 -0.30705002957E+02 -0.82327229751E+02  0.10691917331E+03  0.00000000000E+00 0.  1.
         21    1    1    2  505  504 -0.12301093050E+02  0.28159330429E+02  0.13983957464E+02  0.33761158848E+02  0.00000000000E+00 0.  1.
          2    1    1    2  501    0 -0.54709717183E+02 -0.67295359757E+02  0.13973988052E+04  0.14000875828E+04  0.00000000000E+00 0.  1.
<scales pt_clust_3="82.06887" pt_clust_4="49.77761" pt_clust_5="30.72889" pt_clust_6="14000.00000"></scales>
<clustering>
<clus scale="   30.729">  2  5  1 -1</clus>
<clus scale="   49.778">  2  4  1 -1</clus>
<clus scale="   82.069">  2  3  1 -1</clus>
<clus scale="   30.729">  2  3  1 -1</clus>
</clustering>
</event>
<event>
 6    0  0.3584505E+002  0.7779643E+02  0.7546771E-02  0.1335424E+00
          1   -1    0    0  504    0 -0.00000000000E+00  0.00000000000E+00  0.58797534027E+03  0.58797534027E+03  0.00000000000E+00 0.  1.
         21   -1    0    0  503  502  0.00000000000E+00 -0.00000000000E+00 -0.78867505092E+03  0.78867505092E+03  0.00000000000E+00 0.  1.
         21    1    1    2  503  505 -0.11082403912E+03 -0.31378418073E+02 -0.59494238093E+03  0.60598928158E+03  0.00000000000E+00 0.  1.
         21    1    1    2  504  502  0.31451436641E+02  0.24212681743E+02 -0.16454238139E+03  0.16926205156E+03  0.00000000000E+00 0.  1.
         21    1    1    2  505  501  0.54806391726E+02 -0.20978175119E+02  0.21015617174E+02  0.62333623114E+02  0.00000000000E+00 0. -1.
          1    1    1    2  501    0  0.24566210752E+02  0.28143911449E+02  0.53776943450E+03  0.53906543494E+03  0.00000000000E+00 0.  1.
<scales pt_clust_3="77.79643" pt_clust_4="41.43780" pt_clust_5="14000.00000" pt_clust_6="37.35744"></scales>
<clustering>
<clus scale="   37.357">  1  6  2 -1</clus>
<clus scale="   41.438">  2  4  1 -1</clus>
<clus scale="   77.796">  2  3  1 -1</clus>
<clus scale="   41.438">  2  3  1 -1</clus>
</clustering>
</event>
<event>
 6    0  0.3584505E+002  0.1659728E+03  0.7546771E-02  0.1182114E+00
          2   -1    0    0  503    0 -0.00000000000E+00  0.00000000000E+00  0.15628637941E+04  0.15628637941E+04  0.00000000000E+00 0. -1.
         21   -1    0    0  505  502  0.00000000000E+00 -0.00000000000E+00 -0.23740563685E+03  0.23740563685E+03  0.00000000000E+00 0.  1.
         21    1    1    2  503  502  0.13803768785E+03 -0.14647123213E+03 -0.15688514089E+03  0.25518850394E+03  0.00000000000E+00 0.  1.
         21    1    1    2  504  501 -0.70814034555E+02  0.89219789271E+02  0.29071804692E+03  0.31223673886E+03  0.00000000000E+00 0.  1.
         21    1    1    2  505  504 -0.10212917455E+02  0.30319088574E+02 -0.68445336756E+01  0.32716944480E+02  0.00000000000E+00 0.  1.
          2    1    1    2  501    0 -0.57010735844E+02  0.26932354288E+02  0.11984697849E+04  0.12001272437E+04  0.00000000000E+00 0. -1.
<scales pt_clust_3="14000.00000" pt_clust_4="165.97281" pt_clust_5="31.99298" pt_clust_6="63.13671"></scales>
<clustering>
<clus scale="   31.993">  2  5  1 -1</clus>
<clus scale="   63.137">  1  6  2 -1</clus>
<clus scale="  165.973">  1  4  2 -1</clus>
<clus scale="   31.993">  2  3  1 -1</clus>
</clustering>
</event>
<event>
 6    0  0.3584505E+002  0.1540453E+03  0.7546771E-02  0.1195588E+00
          2   -1    0    0  504    0 -0.00000000000E+00  0.00000000000E+00  0.63027220184E+03  0.63027220184E+03  0.00000000000E+00 0.  1.
         21   -1    0    0  503  502  0.00000000000E+00 -0.00000000000E+00 -0.93301706149E+03  0.93301706149E+03  0.00000000000E+00 0. -1.
         21    1    1    2  503  501 -0.24079173877E+02 -0.67125914097E+02 -0.52193741889E+02  0.88373534785E+02  0.00000000000E+00 0.  1.
         21    1    1    2  504  505  0.42699260175E+02  0.48975691567E+02  0.11584963506E+03  0.13282689158E+03  0.00000000000E+00 0. -1.
         21    1    1    2  505  502  0.45512843289E+02 -0.88804721824E+02 -0.84328468702E+03  0.84916827595E+03  0.00000000000E+00 0. -1.
          2    1    1    2  501    0 -0.64132929588E+02  0.10695494435E+03  0.47688393420E+03  0.49292056102E+03  0.00000000000E+00 0.  1.
<scales pt_clust_3="69.15542" pt_clust_4="64.97573" pt_clust_5="14000.00000" pt_clust_6="154.04530"></scales>
<clustering>
<clus scale="   64.976">  1  4  2 -1</clus>
<clus scale="   69.155">  2  3  1 -1</clus>
<clus scale="  154.045">  1  6  2 -1</clus>
<clus scale="   69.155">  2  3  1 -1</clus>
</clustering>
</event>
<event>
 6    0  0.3584505E+002  0.1226709E+03  0.7546771E-02  0.1238755E+00
         21   -1    0    0  504  502  0.00000000000E+00  0.00000000000E+00  0.13018608249E+03  0.13018608249E+03  0.00000000000E+00 0.  1.
          2   -1    0    0  503    0 -0.00000000000E+00 -0.00000000000E+00 -0.24451816834E+04  0.24451816834E+04  0.00000000000E+00 0. -1.
         21    1    1    2  503  502 -0.78750164967E+02  0.75422502109E+02 -0.11880665949E+03  0.16126116906E+03  0.00000000000E+00 0. -1.
         21    1    1    2  504  505 -0.39943725070E+02 -0.37281725767E+02 -0.16982473602E+02  0.57217415690E+02  0.00000000000E+00 0.  1.
         21    1    1    2  505  501  0.60293796060E+02 -0.14649390626E+03  0.15098629684E+02  0.15913445583E+03  0.00000000000E+00 0.  1.
          2    1    1    2  501    0  0.58400093976E+02  0.10835312992E+03 -0.21943050975E+04  0.21977547253E+04  0.00000000000E+00 0. -1.
<scales pt_clust_3="110.13577" pt_clust_4="54.63907" pt_clust_5="14000.00000" pt_clust_6="122.67088"></scales>
<clustering>
<clus scale="   54.639">  1  4  2 -1</clus>
<clus scale="  110.136">  1  3  2 -1</clus>
<clus scale="  122.671">  2  6  1 -1</clus>
<clus scale="   54.639">  1  3  2 -1</clus>
</clustering>
</event>
<event>
 6    0  0.3584505E+002  0.3192885E+03  0.7546771E-02  0.1075977E+00
          2   -1    0    0  505    0 -0.00000000000E+00  0.00000000000E+00  0.12833179165E+04  0.12833179165E+04  0.00000000000E+00 0. -1.
         21   -1    0    0  503  502  0.00000000000E+00 -0.00000000000E+00 -0.35534090528E+03  0.35534090528E+03  0.00000000000E+00 0. -1.
         21    1    1    2  503  504  0.20911184331E+02 -0.54211506327E+02 -0.13766957823E+03  0.14942917325E+03  0.00000000000E+00 0.  1.
         21    1    1    2  504  501  0.10794185524E+03  0.31251918415E+03  0.20432686445E+03  0.38867615325E+03  0.00000000000E+00 0.  1.
         21    1    1    2  505  502 -0.99413492888E+02 -0.28422150845E+03  0.71133286520E+02  0.30939433234E+03  0.00000000000E+00 0. -1.
          2    1    1    2  501    0 -0.29439546680E+02  0.25913830630E+02  0.79018643849E+03  0.79115916294E+03  0.00000000000E+00 0. -1.
<scales pt_clust_3="57.69017" pt_clust_4="14000.00000" pt_clust_5="319.28848" pt_clust_6="39.22007"></scales>
<clustering>
<clus scale="   39.220">  1  6  2 -1</clus>
<clus scale="   57.690">  2  3  1 -1</clus>
<clus scale="  319.288">  2  5  1 -1</clus>
<clus scale="   57.690">  2  3  1 -1</clus>
</clustering>
</event>
<event>
 6    0  0.3584505E+002  0.7560910E+02  0.7546771E-02  0.1341995E+00
          2   -1    0    0  503    0 -0.00000000000E+00  0.00000000000E+00  0.88108726241E+03  0.88108726241E+03  0.00000000000E+00 0.  1.
         21   -1    0    0  505  502  0.00000000000E+00 -0.00000000000E+00 -0.39808489268E+02  0.39808489268E+02  0.00000000000E+00 0.  1.
         21    1    1    2  503  502 -0.53404679969E+01 -0.40754823075E+02  0.46558858745E+02  0.62106388802E+02  0.00000000000E+00 0.  1.
         21    1    1    2  504  501  0.80637959097E+02  0.83743707065E+02  0.30085509191E+03  0.32253569608E+03  0.00000000000E+00 0.  1.
         21    1    1    2  505  504 -0.66258767130E+02  0.20374179474E+02  0.44546920443E+02  0.82399997159E+02  0.00000000000E+00 0. -1.
          2    1    1    2  501    0 -0.90387239695E+01 -0.63363063465E+02  0.44931790205E+03  0.45385366964E+03  0.00000000000E+00 0.  1.
<scales pt_clust_3="41.10324" pt_clust_4="75.60910" pt_clust_5="14000.00000" pt_clust_6="66.91421"></scales>
<clustering>
<clus scale="   41.103">  2  3  1 -1</clus>
<clus scale="   66.914">  1  6  2 -1</clus>
<clus scale="   75.609">  1  4  2 -1</clus>
<clus scale="   41.103">  2  3  1 -1</clus>
</clustering>
</event>
<event>
 6    0  0.3584505E+002  0.1551661E+03  0.7546771E-02  0.1194265E+00
          1   -1    0    0  502    0 -0.00000000000E+00  0.00000000000E+00  0.32505821379E+04  0.32505821379E+04  0.00000000000E+00 0.  1.
         21   -1    0    0  505  502  0.00000000000E+00 -0.00000000000E+00 -0.28243830970E+03  0.28243830970E+03  0.00000000000E+00 0.  1.
         21    1    1    2  503  504  0.14894116598E+03 -0.38404477865E+02 -0.10676079312E+03  0.18723312151E+03  0.00000000000E+00 0.  1.
         21    1    1    2  504  501 -0.89175434789E+02  0.76562546574E+02  0.15744958672E+03  0.19648016201E+03  0.00000000000E+00 0.  1.
         21    1    1    2  505  503  0.43772101751E+01 -0.37699014977E+02 -0.11247125188E+03  0.11870197217E+03  0.00000000000E+00 0.  1.
          1    1    1    2  501    0 -0.64142941363E+02 -0.45905373227E+00  0.30299262865E+04  0.30306051919E+04  0.00000000000E+00 0.  1.
<scales pt_clust_3="14000.00000" pt_clust_4="155.16608" pt_clust_5="37.95228" pt_clust_6="64.13627"></scales>
<clustering>
<clus scale="   37.952">  2  5  1 -1</clus>
<clus scale="   64.136">  1  6  2 -1</clus>
<clus scale="  155.166">  1  4  2 -1</clus>
<clus scale="   37.952">  2  3  1 -1</clus>
</clustering>
</event>
<event>
 6    0  0.3584505E+002  0.9119786E+02  0.7546771E-02  0.1299977E+00
          2   -1    0    0  503    0 -0.00000000000E+00  0.00000000000E+00  0.31123567235E+04  0.31123567235E+04  0.00000000000E+00 0. -1.
         21   -1    0    0  504  502  0.00000000000E+00 -0.00000000000E+00 -0.37484496221E+03  0.37484496221E+03  0.00000000000E+00 0.  1.
         21    1    1    2  503  505 -0.19038678407E+02 -0.68540217357E+02  0.16566756585E+02  0.73038962852E+02  0.00000000000E+00 0. -1.
         21    1    1    2  504  501 -0.84933573648E+02 -0.14305174099E+01 -0.11226412941E+03  0.14077994554E+03  0.00000000000E+00 0.  1.
         21    1    1    2  505  502  0.22127839528E+02  0.29564242152E+02 -0.21785047675E+03  0.22095817685E+03  0.00000000000E+00 0.  1.
          2    1    1    2  501    0  0.81844412528E+02  0.40406492614E+02  0.30510596109E+04  0.30524246005E+04  0.00000000000E+00 0. -1.
<scales pt_clust_3="64.93073" pt_clust_4="91.19786" pt_clust_5="36.92812" pt_clust_6="14000.00000"></scales>
<clustering>
<clus scale="   36.928">  2  5  1 -1</clus>
<clus scale="   64.931">  2  3  1 -1</clus>
<clus scale="   91.198">  2  4  1 -1</clus>
<clus scale="   36.928">  2  3  1 -1</clus>
</clustering>
</event>
<event>
 6    0  0.3584505E+002  0.1232307E+03  0.7546771E-02  0.1237861E+00
          2   -1    0    0  505    0 -0.00000000000E+00  0.00000000000E+00  0.31454509799E+04  0.31454509799E+04  0.00000000000E+00 0. -1.
         21   -1    0    0  504  502  0.00000000000E+00 -0.00000000000E+00 -0.21674104077E+04  0.21674104077E+04  0.00000000000E+00 0.  1.
         21    1    1    2  503  501 -0.85382561218E+02 -0.13356117041E+03  0.69105459883E+02  0.17292869220E+03  0.00000000000E+00 0. -1.
         21    1    1    2  504  503  0.70687627672E+02  0.11161576496E+02 -0.21115585036E+04  0.21127708431E+04  0.00000000000E+00 0.  1.
         21    1    1    2  505  502 -0.56307036168E+02  0.11026854771E+03  0.15666133280E+04  0.15714983151E+04  0.00000000000E+00 0. -1.
          2    1    1    2  501    0  0.71001969715E+02  0.12131046202E+02  0.14538802879E+04  0.14556635372E+04  0.00000000000E+00 0. -1.
<scales pt_clust_3="123.23070" pt_clust_4="71.56341" pt_clust_5="14000.00000" pt_clust_6="73.18573"></scales>
<clustering>
<clus scale="   71.563">  2  4  1 -1</clus>
<clus scale="   73.186">  1  6  2 -1</clus>
<clus scale="  123.231">  2  3  1 -1</clus>
<clus scale="   71.563">  2  3  1 -1</clus>
</clustering>
</event>
<event>
 6    0  0.3584505E+002  0.9414492E+02  0.7546771E-02  0.1293114E+00
         21   -1    0    0  505  502  0.00000000000E+00  0.00000000000E+00  0.12419751791E+02  0.12419751791E+02  0.00000000000E+00 0.  1.
          2   -1    0    0  504    0 -0.00000000000E+00 -0.00000000000E+00 -0.23247473767E+04  0.23247473767E+04  0.00000000000E+00 0.  1.
         21    1    1    2  503  501 -0.94079074903E+02 -0.41712121741E+02 -0.97788772150E+03  0.98328793814E+03  0.00000000000E+00 0.  1.
         21    1    1    2  504  502 -0.13423887019E+02  0.45234204998E+02 -0.20018805863E+03  0.20567351035E+03  0.00000000000E+00 0.  1.
         21    1    1    2  505  503  0.79522515337E+02  0.30678212342E+02 -0.27703300708E+03  0.28984870221E+03  0.00000000000E+00 0.  1.
          2    1    1    2  501    0  0.27980446586E+02 -0.34200295599E+02 -0.85721883768E+03  0.85835697776E+03  0.00000000000E+00 0.  1.
<scales pt_clust_3="94.14492" pt_clust_4="41.61452" pt_clust_5="14000.00000" pt_clust_6="44.18784"></scales>
<clustering>
<clus scale="   44.188">  2  6  1 -1</clus>
<clus scale="   41.615">  1  4  2 -1</clus>
<clus scale="   94.145">  2  3  1 -1</clus>
<clus scale="   41.615">  1  3  2 -1</clus>
</clustering>
</event>
<event>
 6    0  0.3584505E+002  0.7041148E+02  0.7546771E-02  0.1358699E+00
         21   -1    0    0  504  502  0.00000000000E+00  0.00000000000E+00  0.29591890542E+03  0.29591890542E+03  0.00000000000E+00 0. -1.
          4   -1    0    0  503    0 -0.00000000000E+00 -0.00000000000E+00 -0.86226525758E+02  0.86226525758E+02  0.00000000000E+00 0. -1.
         21    1    1    2  503  505  0.52009721364E+02 -0.39972006187E+02  0.13680598764E+02  0.67006948725E+02  0.00000000000E+00 0. -1.
         21    1    1    2  504  501 -0.42304959775E+02  0.67757251858E+02  0.15777343636E+02  0.81422843067E+02  0.00000000000E+00 0. -1.
         21    1    1    2  505  502 -0.48182742362E+02 -0.63860793019E+02  0.15673984338E+03  0.17597487335E+03  0.00000000000E+00 0. -1.
          4    1    1    2  501    0  0.38477980774E+02  0.36075547348E+02  0.23494593878E+02  0.57740766036E+02  0.00000000000E+00 0. -1.
<scales pt_clust_3="71.75296" pt_clust_4="14000.00000" pt_clust_5="70.41148" pt_clust_6="52.74467"></scales>
<clustering>
<clus scale="   52.745">  2  6  1 -1</clus>
<clus scale="   71.753">  2  3  1 -1</clus>
<clus scale="   70.411">  1  5  2 -1</clus>
<clus scale="   70.411">  1  3  2 -1</clus>
</clustering>
</event>
<event>
 6    0  0.3584505E+002  0.1914546E+03  0.7546771E-02  0.1157156E+00
          1   -1    0    0  502    0 -0.00000000000E+00  0.00000000000E+00  0.83574953029E+03  0.83574953029E+03  0.00000000000E+00 0.  1.
         21   -1    0    0  505  502  0.00000000000E+00 -0.00000000000E+00 -0.55489625008E+03  0.55489625008E+03  0.00000000000E+00 0.  1.
         21    1    1    2  503  504 -0.85912740310E+01  0.53789494492E+02 -0.49790973211E+02  0.73798785359E+02  0.00000000000E+00 0.  1.
         21    1    1    2  504  501 -0.64672795815E+02  0.16811383044E+03  0.15365583942E+02  0.18077868147E+03  0.00000000000E+00 0.  1.
         21    1    1    2  505  503  0.10385454351E+03 -0.61149804711E+02 -0.39199889958E+03  0.41010754942E+03  0.00000000000E+00 0.  1.
          1    1    1    2  501    0 -0.30590473668E+02 -0.16075352022E+03  0.70727756906E+03  0.72596076412E+03  0.00000000000E+00 0.  1.
<scales pt_clust_3="52.21571" pt_clust_4="52.21571" pt_clust_5="120.51998" pt_clust_6="166.24981"></scales>
<clustering>
<clus scale="   52.216">  3  4 -1 -1</clus>
<clus scale="  120.520">  2  5  1 -1</clus>
<clus scale="  166.250">  1  6  2 -1</clus>
<clus scale="  120.520">  2  3  1 -1</clus>
</clustering>
</event>
<event>
 6    0  0.3584505E+002  0.1041801E+03  0.7546771E-02  0.1271744E+00
         21   -1    0    0  505  502  0.00000000000E+00  0.00000000000E+00  0.92149408175E+02  0.92149408175E+02  0.00000000000E+00 0.  1.
          2   -1    0    0  503    0 -0.00000000000E+00 -0.00000000000E+00 -0.12074179230E+04  0.12074179230E+04  0.00000000000E+00 0. -1.
         21    1    1    2  503  502  0.53514902606E+02 -0.70881622725E+02 -0.31586518585E+02  0.94264295454E+02  0.00000000000E+00 0.  1.
         21    1    1    2  504  501  0.88582956702E+01  0.13291067543E+03 -0.13520027611E+03  0.18979681690E+03  0.00000000000E+00 0.  1.
         21    1    1    2  505  504 -0.40681201609E+02 -0.41023367749E+02  0.81953549762E+01  0.58352726663E+02  0.00000000000E+00 0.  1.
          2    1    1    2  501    0 -0.21691996667E+02 -0.21005684953E+02 -0.95667707515E+03  0.95715349220E+03  0.00000000000E+00 0. -1.
<scales pt_clust_3="14000.00000" pt_clust_4="104.18008" pt_clust_5="60.79677" pt_clust_6="30.19572"></scales>
<clustering>
<clus scale="   30.196">  2  6  1 -1</clus>
<clus scale="   60.797">  1  5  2 -1</clus>
<clus scale="  104.180">  2  4  1 -1</clus>
<clus scale="   60.797">  1  3  2 -1</clus>
</clustering>
</event>
<event>
 6    0  0.3584505E+002  0.1003256E+03  0.7546771E-02  0.1279613E+00
         21   -1    0    0  504  502  0.00000000000E+00  0.00000000000E+00  0.95827482983E+03  0.95827482983E+03  0.00000000000E+00 0. -1.
          1   -1    0    0  502    0 -0.00000000000E+00 -0.00000000000E+00 -0.85407160597E+02  0.85407160597E+02  0.00000000000E+00 0. -1.
         21    1    1    2  503  505  0.12793342362E+02  0.87695547905E+02  0.49023723749E+03  0.49818342782E+03  0.00000000000E+00 0. -1.
         21    1    1    2  504  503  0.30752640168E+02  0.77904639207E+01  0.25298065091E+03  0.25496200882E+03  0.00000000000E+00 0. -1.
         21    1    1    2  505  501 -0.11934383545E+03 -0.21517010735E+02  0.13870425885E+03  0.18424115782E+03  0.00000000000E+00 0. -1.
          1    1    1    2  501    0  0.75797852921E+02 -0.73969001090E+02 -0.90544780314E+01  0.10629539596E+03  0.00000000000E+00 0. -1.
<scales pt_clust_3="99.30080" pt_clust_4="31.72406" pt_clust_5="100.32556" pt_clust_6="14000.00000"></scales>
<clustering>
<clus scale="   31.724">  1  4  2 -1</clus>
<clus scale="   99.301">  1  3  2 -1</clus>
<clus scale="  100.326">  1  5  2 -1</clus>
<clus scale="   31.724">  1  3  2 -1</clus>
</clustering>
</event>
<event>
 6    0  0.3584505E+002  0.7607495E+02  0.7546771E-02  0.1340574E+00
         21   -1    0    0  504  502  0.00000000000E+00  0.00000000000E+00  0.22331221894E+03  0.22331221894E+03  0.00000000000E+00 0. -1.
          1   -1    0    0  503    0 -0.00000000000E+00 -0.00000000000E+00 -0.12400768140E+04  0.12400768140E+04  0.00000000000E+00 0. -1.
         21    1    1    2  503  502  0.31479832300E+02 -0.55765968699E+02  0.74649134296E+02  0.98353019057E+02  0.00000000000E+00 0. -1.
         21    1    1    2  504  505  0.36126408562E+02  0.34832890425E+02  0.10967432784E+03  0.12061055442E+03  0.00000000000E+00 0. -1.
         21    1    1    2  505  501 -0.44768079494E+02  0.93393215818E+02 -0.11145479946E+03  0.15214679105E+03  0.00000000000E+00 0. -1.
          1    1    1    2  501    0 -0.22838161367E+02 -0.72460137543E+02 -0.10896332577E+04  0.10922786684E+04  0.00000000000E+00 0. -1.
<scales pt_clust_3="66.50920" pt_clust_4="50.18414" pt_clust_5="14000.00000" pt_clust_6="76.07495"></scales>
<clustering>
<clus scale="   50.184">  1  4  2 -1</clus>
<clus scale="   66.509">  1  3  2 -1</clus>
<clus scale="   76.075">  2  6  1 -1</clus>
<clus scale="   50.184">  1  3  2 -1</clus>
</clustering>
</event>
<event>
 6    0  0.3584505E+002  0.7879145E+02  0.7546771E-02  0.1332517E+00
          1   -1    0    0  503    0 -0.00000000000E+00  0.00000000000E+00  0.18890680622E+03  0.18890680622E+03  0.00000000000E+00 0. -1.
         21   -1    0    0  504  502  0.00000000000E+00 -0.00000000000E+00 -0.23890609009E+03  0.23890609009E+03  0.00000000000E+00 0. -1.
         21    1    1    2  503  502 -0.42606808630E+02  0.69797561111E+02 -0.90396942793E+02  0.12189604975E+03  0.00000000000E+00 0. -1.
         21    1    1    2  504  505 -0.78474411784E+01 -0.49603024028E+02 -0.34039730140E+02  0.60669148286E+02  0.00000000000E+00 0. -1.
         21    1    1    2  505  501  0.10538044689E+03 -0.31422120198E+02 -0.40644864767E+02  0.11723648433E+03  0.00000000000E+00 0. -1.
          1    1    1    2  501    0 -0.54926197086E+02  0.11227583115E+02  0.11508225383E+03  0.12801121394E+03  0.00000000000E+00 0. -1.
<scales pt_clust_3="14000.00000" pt_clust_4="50.21994" pt_clust_5="78.79145" pt_clust_6="56.01179"></scales>
<clustering>
<clus scale="   50.220">  2  4  1 -1</clus>
<clus scale="   56.012">  1  6  2 -1</clus>
<clus scale="   78.791">  1  5  2 -1</clus>
<clus scale="   50.220">  2  3  1 -1</clus>
</clustering>
</event>
<event>
 6    0  0.3584505E+002  0.9049070E+02  0.7546771E-02  0.1301668E+00
          2   -1    0    0  504    0 -0.00000000000E+00  0.00000000000E+00  0.25972987034E+04  0.25972987034E+04  0.00000000000E+00 0. -1.
         21   -1    0    0  503  502  0.00000000000E+00 -0.00000000000E+00 -0.97580005667E+02  0.97580005667E+02  0.00000000000E+00 0. -1.
         21    1    1    2  503  505 -0.19216278937E+02 -0.31104420676E+02 -0.78233178652E+02  0.86354968611E+02  0.00000000000E+00 0. -1.
         21    1    1    2  504  502  0.10304911700E+03  0.26444295465E+02  0.18049156343E+04  0.18080483589E+04  0.00000000000E+00 0. -1.
         21    1    1    2  505  501 -0.72557747972E+02  0.32762091699E+02  0.10507623705E+03  0.13182942402E+03  0.00000000000E+00 0.  1.
          2    1    1    2  501    0 -0.11275090089E+02 -0.28101966488E+02  0.66796000511E+03  0.66864595760E+03  0.00000000000E+00 0. -1.
<scales pt_clust_3="36.62440" pt_clust_4="14000.00000" pt_clust_5="90.49070" pt_clust_6="30.27950"></scales>
<clustering>
<clus scale="   30.280">  1  6  2 -1</clus>
<clus scale="   36.624">  2  3  1 -1</clus>
<clus scale="   90.491">  2  5  1 -1</clus>
<clus scale="   36.624">  2  3  1 -1</clus>
</clustering>
</event>
<event>
 6    0  0.3584505E+002  0.1005316E+03  0.7546771E-02  0.1279182E+00
         21   -1    0    0  505  502  0.00000000000E+00  0.00000000000E+00  0.12906849627E+03  0.12906849627E+03  0.00000000000E+00 0.  1.
          2   -1    0    0  504    0 -0.00000000000E+00 -0.00000000000E+00 -0.14796049885E+04  0.14796049885E+04  0.00000000000E+00 0.  1.
         21    1    1    2  503  501 -0.14766766085E+02 -0.88741809385E+02 -0.58222880777E+02  0.10715908715E+03  0.00000000000E+00 0.  1.
         21    1    1    2  504  502  0.16528375441E+02  0.26734473433E+02  0.24244389327E+01  0.31524548667E+02  0.00000000000E+00 0. -1.
         21    1    1    2  505  503  0.17645553361E+02 -0.37876448738E+02  0.80656012380E+02  0.90837124874E+02  0.00000000000E+00 0.  1.
          2    1    1    2  501    0 -0.19407162717E+02  0.99883784690E+02 -0.13753940628E+04  0.13791527241E+04  0.00000000000E+00 0.  1.
<scales pt_clust_3="100.53161" pt_clust_4="31.43118" pt_clust_5="34.94399" pt_clust_6="14000.00000"></scales>
<clustering>
<clus scale="   31.431">  1  4  2 -1</clus>
<clus scale="   34.944">  1  5  2 -1</clus>
<clus scale="  100.532">  1  3  2 -1</clus>
<clus scale="   31.431">  1  3  2 -1</clus>
</clustering>
</event>
<event>
 6    0  0.3584505E+002  0.1296092E+03  0.7546771E-02  0.1228037E+00
         21   -1    0    0  504  502  0.00000000000E+00  0.00000000000E+00  0.87518880903E+03  0.87518880903E+03  0.00000000000E+00 0. -1.
          1   -1    0    0  503    0 -0.00000000000E+00 -0.00000000000E+00 -0.40320587562E+03  0.40320587562E+03  0.00000000000E+00 0. -1.
         21    1    1    2  503  505  0.42181653222E+02 -0.11073112751E+02 -0.22634156607E+03  0.23050468591E+03  0.00000000000E+00 0. -1.
         21    1    1    2  504  501 -0.80762770087E+02  0.10873501166E+03  0.55269733475E+03  0.56905208165E+03  0.00000000000E+00 0. -1.
         21    1    1    2  505  502 -0.27794174564E+02 -0.33574170674E+02  0.29774901700E+03  0.30092227933E+03  0.00000000000E+00 0. -1.
          1    1    1    2  501    0  0.66375291429E+02 -0.64087728231E+02 -0.15212185226E+03  0.17791563776E+03  0.00000000000E+00 0. -1.
<scales pt_clust_3="43.54472" pt_clust_4="129.60916" pt_clust_5="43.58602" pt_clust_6="14000.00000"></scales>
<clustering>
<clus scale="   43.586">  1  5  2 -1</clus>
<clus scale="   43.545">  2  3  1 -1</clus>
<clus scale="  129.609">  1  4  2 -1</clus>
<clus scale="   43.586">  1  3  2 -1</clus>
</clustering>
</event>
<event>
 6    0  0.3584505E+002  0.1008608E+03  0.7546771E-02  0.1278496E+00
         21   -1    0    0  504  502  0.00000000000E+00  0.00000000000E+00  0.17252710682E+03  0.17252710682E+03  0.00000000000E+00 0.  1.
         -2   -1    0    0    0  501 -0.00000000000E+00 -0.00000000000E+00 -0.27612674674E+03  0.27612674674E+03  0.00000000000E+00 0.  1.
         21    1    1    2  503  501 -0.65941356867E+02  0.12133510203E+02  0.84712631296E+02  0.10803570945E+03  0.00000000000E+00 0.  1.
         21    1    1    2  504  503  0.12161417557E+02  0.65500040827E+02  0.21099278213E+02  0.69880862662E+02  0.00000000000E+00 0.  1.
         21    1    1    2  505  502 -0.37067626225E+02 -0.22947482781E+02 -0.97614024540E+01  0.44675282403E+02  0.00000000000E+00 0.  1.
         -2    1    1    2    0  505  0.90847565534E+02 -0.54686068249E+02 -0.19965014698E+03  0.22606199904E+03  0.00000000000E+00 0.  1.
<scales pt_clust_3="100.86084" pt_clust_4="58.78246" pt_clust_5="43.59582" pt_clust_6="14000.00000"></scales>
<clustering>
<clus scale="   43.596">  1  5  2 -1</clus>
<clus scale="   58.782">  1  4  2 -1</clus>
<clus scale="  100.861">  1  3  2 -1</clus>
<clus scale="   43.596">  1  3  2 -1</clus>
</clustering>
</event>
<event>
 6    0  0.3584505E+002  0.6955032E+02  0.7546771E-02  0.1361629E+00
          1   -1    0    0  505    0 -0.00000000000E+00  0.00000000000E+00  0.10691437581E+04  0.10691437581E+04  0.00000000000E+00 0.  1.
         21   -1    0    0  503  502  0.00000000000E+00 -0.00000000000E+00 -0.20478584542E+03  0.20478584542E+03  0.00000000000E+00 0. -1.
         21    1    1    2  503  501 -0.10546702856E+03 -0.42773829195E+02 -0.16566680648E+03  0.20099349578E+03  0.00000000000E+00 0. -1.
         21    1    1    2  504  502  0.43167007884E+02  0.26475025936E+02  0.35348862237E+02  0.61756454152E+02  0.00000000000E+00 0. -1.
         21    1    1    2  505  504 -0.40969460137E+02  0.49143011997E+02  0.53956126173E+03  0.54334140966E+03  0.00000000000E+00 0.  1.
          1    1    1    2  501    0  0.10326948081E+03 -0.32844208737E+02  0.45511459516E+03  0.46783824389E+03  0.00000000000E+00 0.  1.
<scales pt_clust_3="14000.00000" pt_clust_4="50.63909" pt_clust_5="63.91055" pt_clust_6="69.55032"></scales>
<clustering>
<clus scale="   50.639">  2  4  1 -1</clus>
<clus scale="   63.911">  1  5  2 -1</clus>
<clus scale="   69.550">  1  6  2 -1</clus>
<clus scale="   50.639">  2  3  1 -1</clus>
</clustering>
</event>
<event>
 6    0  0.3584505E+002  0.9598708E+02  0.7546771E-02  0.1288968E+00
         21   -1    0    0  505  502  0.00000000000E+00  0.00000000000E+00  0.64604200007E+02  0.64604200007E+02  0.00000000000E+00 0. -1.
          2   -1    0    0  504    0 -0.00000000000E+00 -0.00000000000E+00 -0.16831365009E+04  0.16831365009E+04  0.00000000000E+00 0.  1.
         21    1    1    2  503  501  0.58367845344E+02  0.89190075821E+02 -0.27498893203E+03  0.29492471536E+03  0.00000000000E+00 0.  1.
         21    1    1    2  504  502 -0.78773898876E+02 -0.83775606403E+02 -0.56066292751E+02  0.12793400078E+03  0.00000000000E+00 0. -1.
         21    1    1    2  505  503  0.13231178002E+02  0.27229263977E+02  0.60925246138E+01  0.30880669427E+02  0.00000000000E+00 0.  1.
          2    1    1    2  501    0  0.71748755308E+01 -0.32643733395E+02 -0.12935696007E+04  0.12940013153E+04  0.00000000000E+00 0.  1.
<scales pt_clust_3="95.98708" pt_clust_4="14000.00000" pt_clust_5="30.27370" pt_clust_6="33.31186"></scales>
<clustering>
<clus scale="   30.274">  1  5  2 -1</clus>
<clus scale="   33.312">  2  6  1 -1</clus>
<clus scale="   95.987">  2  3  1 -1</clus>
<clus scale="   30.274">  1  3  2 -1</clus>
</clustering>
</event>
<event>
 6    0  0.3584505E+002  0.1066420E+03  0.7546771E-02  0.1266918E+00
         21   -1    0    0  503  502  0.00000000000E+00  0.00000000000E+00  0.15073311901E+03  0.15073311901E+03  0.00000000000E+00 0.  1.
          2   -1    0    0  504    0 -0.00000000000E+00 -0.00000000000E+00 -0.11148588586E+04  0.11148588586E+04  0.00000000000E+00 0.  1.
         21    1    1    2  503  501  0.12922825178E+03 -0.31559799440E+02  0.85813504087E+02  0.15830325165E+03  0.00000000000E+00 0.  1.
         21    1    1    2  504  505 -0.82309075707E+02 -0.24314703730E+02 -0.54511249715E+03  0.55182753040E+03  0.00000000000E+00 0. -1.
         21    1    1    2  505  502 -0.21813844874E+02  0.25745686364E+02  0.12992319442E+02  0.36159155950E+02  0.00000000000E+00 0.  1.
          2    1    1    2  501    0 -0.25105331196E+02  0.30128816806E+02 -0.51781906597E+03  0.51930203961E+03  0.00000000000E+00 0.  1.
<scales pt_clust_3="14000.00000" pt_clust_4="106.64203" pt_clust_5="33.74440" pt_clust_6="39.41596"></scales>
<clustering>
<clus scale="   33.744">  1  5  2 -1</clus>
<clus scale="   39.416">  2  6  1 -1</clus>
<clus scale="  106.642">  2  4  1 -1</clus>
<clus scale="   33.744">  1  3  2 -1</clus>
</clustering>
</event>
<event>
 6    0  0.3584505E+002  0.9682871E+02  0.7546771E-02  0.1287110E+00
         21   -1    0    0  505  502  0.00000000000E+00  0.00000000000E+00  0.27158886694E+03  0.27158886694E+03  0.00000000000E+00 0. -1.
          4   -1    0    0  502    0 -0.00000000000E+00 -0.00000000000E+00 -0.34199562018E+03  0.34199562018E+03  0.00000000000E+00 0.  1.
         21    1    1    2  503  501  0.82250649055E+02 -0.49555117411E+02  0.64180286255E+02  0.11549886612E+03  0.00000000000E+00 0.  1.
         21    1    1    2  504  503  0.11202159226E+02  0.29897396735E+02  0.71135220162E+02  0.77971547697E+02  0.00000000000E+00 0. -1.
         21    1    1    2  505  504 -0.35186408641E+02  0.56367851242E+02  0.92584172929E+02  0.11396160355E+03  0.00000000000E+00 0. -1.
          4    1    1    2  501    0 -0.58266399640E+02 -0.36710130566E+02 -0.29830643259E+03  0.30615246975E+03  0.00000000000E+00 0.  1.
<scales pt_clust_3="85.78136" pt_clust_4="31.13354" pt_clust_5="31.13354" pt_clust_6="68.86659"></scales>
<clustering>
<clus scale="   31.134">  4  5 -1 -1</clus>
<clus scale="   68.867">  2  6  1 -1</clus>
<clus scale="   85.781">  2  3  1 -1</clus>
<clus scale="   96.829">  1  3  2 -1</clus>
</clustering>
</event>
<event>
 6    0  0.3584505E+002  0.9319160E+02  0.7546771E-02  0.1295302E+00
         21   -1    0    0  505  502  0.00000000000E+00  0.00000000000E+00  0.15047381460E+03  0.15047381460E+03  0.00000000000E+00 0.  1.
          2   -1    0    0  503    0 -0.00000000000E+00 -0.00000000000E+00 -0.26266513378E+04  0.26266513378E+04  0.00000000000E+00 0. -1.
         21    1    1    2  503  504 -0.65139609961E+02  0.10878569510E+03 -0.64170614093E+03  0.65411334458E+03  0.00000000000E+00 0.  1.
         21    1    1    2  504  502 -0.59513709343E+01 -0.88099865654E+02  0.96739764703E+02  0.13097933890E+03  0.00000000000E+00 0.  1.
         21    1    1    2  505  501  0.32975166526E+02 -0.22711820147E+00  0.21160663407E+02  0.39181460743E+02  0.00000000000E+00 0. -1.
          2    1    1    2  501    0  0.38115814369E+02 -0.20458711247E+02 -0.19523718103E+04  0.19528510081E+04  0.00000000000E+00 0. -1.
<scales pt_clust_3="93.19160" pt_clust_4="14000.00000" pt_clust_5="32.97595" pt_clust_6="43.31747"></scales>
<clustering>
<clus scale="   32.976">  1  5  2 -1</clus>
<clus scale="   43.317">  2  6  1 -1</clus>
<clus scale="   93.192">  2  3  1 -1</clus>
<clus scale="   32.976">  1  3  2 -1</clus>
</clustering>
</event>
<event>
 6    0  0.3584505E+002  0.1998353E+03  0.7546771E-02  0.1149878E+00
         21   -1    0    0  505  502  0.00000000000E+00  0.00000000000E+00  0.91491567477E+03  0.91491567477E+03  0.00000000000E+00 0. -1.
          1   -1    0    0  504    0 -0.00000000000E+00 -0.00000000000E+00 -0.58250335144E+03  0.58250335144E+03  0.00000000000E+00 0.  1.
         21    1    1    2  503  502 -0.30542323934E+02  0.46177620456E+01  0.47206732876E+03  0.47307686496E+03  0.00000000000E+00 0. -1.
         21    1    1    2  504  503  0.22471455960E+03  0.75684403009E+02 -0.13289800318E+03  0.27182097307E+03  0.00000000000E+00 0.  1.
         21    1    1    2  505  501 -0.16965475775E+03 -0.22357771974E+02  0.35035346784E+03  0.38991045026E+03  0.00000000000E+00 0. -1.
          1    1    1    2  501    0 -0.24517477910E+02 -0.57944393081E+02 -0.35711047008E+03  0.36261073792E+03  0.00000000000E+00 0.  1.
<scales pt_clust_3="30.88944" pt_clust_4="14000.00000" pt_clust_5="199.83525" pt_clust_6="62.96571"></scales>
<clustering>
<clus scale="   30.889">  1  3  2 -1</clus>
<clus scale="   62.966">  2  6  1 -1</clus>
<clus scale="  199.835">  1  5  2 -1</clus>
<clus scale="   30.889">  1  3  2 -1</clus>
</clustering>
</event>
<event>
 6    0  0.3584505E+002  0.8898216E+02  0.7546771E-02  0.1305335E+00
         21   -1    0    0  503  502  0.00000000000E+00  0.00000000000E+00  0.40730894416E+03  0.40730894416E+03  0.00000000000E+00 0. -1.
         -1   -1    0    0    0  501 -0.00000000000E+00 -0.00000000000E+00 -0.11298709603E+04  0.11298709603E+04  0.00000000000E+00 0.  1.
         21    1    1    2  503  505 -0.11344968684E+02 -0.33874919455E+02  0.54125856177E+02  0.64852346059E+02  0.00000000000E+00 0. -1.
         21    1    1    2  504  501 -0.11353598248E+03  0.47157672726E+02 -0.30755928567E+02  0.12672881503E+03  0.00000000000E+00 0. -1.
         21    1    1    2  505  504  0.84007559578E+02 -0.10445006092E+02  0.29344643853E+03  0.30541313086E+03  0.00000000000E+00 0. -1.
         -1    1    1    2    0  502  0.40873391591E+02 -0.28377471790E+01 -0.10393783823E+04  0.10401856125E+04  0.00000000000E+00 0.  1.
<scales pt_clust_3="35.72420" pt_clust_4="88.98216" pt_clust_5="14000.00000" pt_clust_6="40.96139"></scales>
<clustering>
<clus scale="   35.724">  1  3  2 -1</clus>
<clus scale="   40.961">  2  6  1 -1</clus>
<clus scale="   88.982">  2  4  1 -1</clus>
<clus scale="   35.724">  1  3  2 -1</clus>
</clustering>
</event>
<event>
 6    0  0.3584505E+002  0.1480182E+03  0.7546771E-02  0.1202930E+00
         21   -1    0    0  501  502  0.00000000000E+00  0.00000000000E+00  0.63870498560E+02  0.63870498560E+02  0.00000000000E+00 0.  1.
          2   -1    0    0  504    0 -0.00000000000E+00 -0.00000000000E+00 -0.16800387188E+04  0.16800387188E+04  0.00000000000E+00 0.  1.
         21    1    1    2  503  505 -0.43133762350E+02  0.17423780986E+02 -0.26650558864E+02  0.53613075701E+02  0.00000000000E+00 0.  1.
         21    1    1    2  504  503  0.82255054946E+02 -0.46986689284E+02 -0.51428727715E+03  0.52293885539E+03  0.00000000000E+00 0.  1.
         21    1    1    2  505  502 -0.37129520000E+02  0.10172665085E+03 -0.20567725147E+02  0.11022678470E+03  0.00000000000E+00 0.  1.
          2    1    1    2  501    0 -0.19917725963E+01 -0.72163742550E+02 -0.10546626590E+04  0.10571305015E+04  0.00000000000E+00 0.  1.
<scales pt_clust_3="41.32261" pt_clust_4="133.91966" pt_clust_5="41.32261" pt_clust_6="72.19122"></scales>
<clustering>
<clus scale="   41.323">  3  5 -1 -1</clus>
<clus scale="   72.191">  2  6  1 -1</clus>
<clus scale="  133.920">  2  4  1 -1</clus>
<clus scale="  148.018">  1  3  2 -1</clus>
</clustering>
</event>
<event>
 6    0  0.3584505E+002  0.9010180E+02  0.7546771E-02  0.1302605E+00
          3   -1    0    0  502    0 -0.00000000000E+00  0.00000000000E+00  0.78062387504E+03  0.78062387504E+03  0.00000000000E+00 0. -1.
         21   -1    0    0  505  502  0.00000000000E+00 -0.00000000000E+00 -0.54703517970E+02  0.54703517970E+02  0.00000000000E+00 0. -1.
         21    1    1    2  503  504  0.94737991823E+02  0.49240594577E+02  0.14181345525E+03  0.17751332158E+03  0.00000000000E+00 0. -1.
         21    1    1    2  504  501 -0.83242701694E+02 -0.26797555546E+02  0.22985890666E+03  0.24593205025E+03  0.00000000000E+00 0. -1.
         21    1    1    2  505  503 -0.38547350767E+02  0.11538120558E+02 -0.12837855088E+02  0.42235494557E+02  0.00000000000E+00 0.  1.
          3    1    1    2  501    0  0.27052060638E+02 -0.33981159589E+02  0.36708585025E+03  0.36964652663E+03  0.00000000000E+00 0. -1.
<scales pt_clust_3="90.10180" pt_clust_4="14000.00000" pt_clust_5="40.23713" pt_clust_6="41.89132"></scales>
<clustering>
<clus scale="   40.237">  2  5  1 -1</clus>
<clus scale="   41.891">  1  6  2 -1</clus>
<clus scale="   90.102">  2  3  1 -1</clus>
<clus scale="   40.237">  2  3  1 -1</clus>
</clustering>
</event>
<event>
 6    0  0.3584505E+002  0.1224980E+03  0.7546771E-02  0.1239032E+00
         21   -1    0    0  504  502  0.00000000000E+00  0.00000000000E+00  0.30200334219E+02  0.30200334219E+02  0.00000000000E+00 0. -1.
          1   -1    0    0  505    0 -0.00000000000E+00 -0.00000000000E+00 -0.21001410599E+04  0.21001410599E+04  0.00000000000E+00 0. -1.
         21    1    1    2  503  501 -0.60884076052E+02 -0.48276033220E+02 -0.21057162911E+03  0.22445012160E+03  0.00000000000E+00 0. -1.
         21    1    1    2  504  503  0.11443395294E+02 -0.33088128838E+02 -0.14241094721E+03  0.14665146932E+03  0.00000000000E+00 0. -1.
         21    1    1    2  505  502 -0.79101785531E+02  0.76155465934E+02 -0.14428898594E+03  0.18131756376E+03  0.00000000000E+00 0. -1.
          1    1    1    2  501    0  0.12854246629E+03  0.52086961248E+01 -0.15726691634E+04  0.15779222394E+04  0.00000000000E+00 0. -1.
<scales pt_clust_3="80.97805" pt_clust_4="35.01108" pt_clust_5="122.49799" pt_clust_6="14000.00000"></scales>
<clustering>
<clus scale="   35.011">  1  4  2 -1</clus>
<clus scale="   80.978">  1  3  2 -1</clus>
<clus scale="  122.498">  1  5  2 -1</clus>
<clus scale="   35.011">  1  3  2 -1</clus>
</clustering>
</event>
<event>
 6    0  0.3584505E+002  0.1182613E+03  0.7546771E-02  0.1245993E+00
         21   -1    0    0  503  502  0.00000000000E+00  0.00000000000E+00  0.43940633895E+02  0.43940633895E+02  0.00000000000E+00 0.  1.
          2   -1    0    0  505    0 -0.00000000000E+00 -0.00000000000E+00 -0.12708723039E+04  0.12708723039E+04  0.00000000000E+00 0. -1.
         21    1    1    2  503  501  0.29822103851E+02  0.39570735235E+02 -0.14062576653E+03  0.14909999054E+03  0.00000000000E+00 0. -1.
         21    1    1    2  504  502 -0.39679208315E+02  0.89522714206E+01 -0.20758656734E+01  0.40729497350E+02  0.00000000000E+00 0.  1.
         21    1    1    2  505  504 -0.10480907263E+03 -0.74683094236E+02 -0.23752836645E+03  0.27015223697E+03  0.00000000000E+00 0.  1.
          2    1    1    2  501    0  0.11466617710E+03  0.26160087580E+02 -0.84670167135E+03  0.85483121294E+03  0.00000000000E+00 0. -1.
<scales pt_clust_3="47.10407" pt_clust_4="40.67656" pt_clust_5="14000.00000" pt_clust_6="118.26129"></scales>
<clustering>
<clus scale="   40.677">  1  4  2 -1</clus>
<clus scale="   47.104">  1  3  2 -1</clus>
<clus scale="  118.261">  2  6  1 -1</clus>
<clus scale="   40.677">  1  3  2 -1</clus>
</clustering>
</event>
<event>
 6    0  0.3584505E+002  0.8002510E+02  0.7546771E-02  0.1328980E+00
         21   -1    0    0  503  502  0.00000000000E+00  0.00000000000E+00  0.11509285804E+04  0.11509285804E+04  0.00000000000E+00 0.  1.
         -1   -1    0    0    0  501 -0.00000000000E+00 -0.00000000000E+00 -0.61096786574E+02  0.61096786574E+02  0.00000000000E+00 0.  1.
         21    1    1    2  503  501  0.53098247485E+01 -0.49731653958E+02  0.12212289775E+03  0.13196754828E+03  0.00000000000E+00 0.  1.
         21    1    1    2  504  502  0.28122987858E+02  0.14442340504E+02  0.83341269826E+03  0.83401211578E+03  0.00000000000E+00 0. -1.
         21    1    1    2  505  504 -0.90331610494E+02  0.76880939612E+02  0.12918220943E+03  0.17538107641E+03  0.00000000000E+00 0.  1.
         -1    1    1    2    0  505  0.56898797887E+02 -0.41591626158E+02  0.51139884308E+01  0.70664626548E+02  0.00000000000E+00 0.  1.
<scales pt_clust_3="46.96860" pt_clust_4="31.61461" pt_clust_5="14000.00000" pt_clust_6="80.02510"></scales>
<clustering>
<clus scale="   31.615">  1  4  2 -1</clus>
<clus scale="   46.969">  1  3  2 -1</clus>
<clus scale="   80.025">  2  6  1 -1</clus>
<clus scale="   31.615">  1  3  2 -1</clus>
</clustering>
</event>
<event>
 6    0  0.3584505E+002  0.8767545E+02  0.7546771E-02  0.1308581E+00
          2   -1    0    0  504    0 -0.00000000000E+00  0.00000000000E+00  0.22215813279E+04  0.22215813279E+04  0.00000000000E+00 0. -1.
         21   -1    0    0  503  502  0.00000000000E+00 -0.00000000000E+00 -0.94735874109E+02  0.94735874109E+02  0.00000000000E+00 0.  1.
         21    1    1    2  503  501 -0.86498482542E+02  0.72579437384E+02  0.22259808814E+03  0.24959902055E+03  0.00000000000E+00 0. -1.
         21    1    1    2  504  505  0.11403956393E+02 -0.87034076176E+02  0.13962469425E+04  0.13990033971E+04  0.00000000000E+00 0. -1.
         21    1    1    2  505  502  0.36999141818E+02 -0.30365789747E+01 -0.74748806024E+02  0.83459818531E+02  0.00000000000E+00 0.  1.
          2    1    1    2  501    0  0.38095384330E+02  0.17491217766E+02  0.58274922916E+03  0.58425496582E+03  0.00000000000E+00 0. -1.
<scales pt_clust_3="14000.00000" pt_clust_4="87.67545" pt_clust_5="37.12354" pt_clust_6="43.48625"></scales>
<clustering>
<clus scale="   37.124">  2  5  1 -1</clus>
<clus scale="   43.486">  1  6  2 -1</clus>
<clus scale="   87.675">  1  4  2 -1</clus>
<clus scale="   37.124">  2  3  1 -1</clus>
</clustering>
</event>
<event>
 6    0  0.3584505E+002  0.7536950E+02  0.7546771E-02  0.1342731E+00
          1   -1    0    0  504    0 -0.00000000000E+00  0.00000000000E+00  0.95410939821E+03  0.95410939821E+03  0.00000000000E+00 0. -1.
         21   -1    0    0  503  502  0.00000000000E+00 -0.00000000000E+00 -0.20147434069E+03  0.20147434069E+03  0.00000000000E+00 0.  1.
         21    1    1    2  503  505  0.57737204063E+02  0.69492243882E+02 -0.12917322153E+03  0.15763399967E+03  0.00000000000E+00 0.  1.
         21    1    1    2  504  502  0.32197994357E+01 -0.34017711504E+02 -0.18894620091E+02  0.39045850903E+02  0.00000000000E+00 0.  1.
         21    1    1    2  505  501 -0.10550158365E+03  0.13242865488E+02  0.73942573489E+02  0.12951240023E+03  0.00000000000E+00 0. -1.
          1    1    1    2  501    0  0.44544580150E+02 -0.48717397865E+02  0.82676032565E+03  0.82939148810E+03  0.00000000000E+00 0. -1.
<scales pt_clust_3="75.36950" pt_clust_4="34.16975" pt_clust_5="14000.00000" pt_clust_6="66.22037"></scales>
<clustering>
<clus scale="   34.170">  2  4  1 -1</clus>
<clus scale="   66.220">  1  6  2 -1</clus>
<clus scale="   75.370">  2  3  1 -1</clus>
<clus scale="   34.170">  2  3  1 -1</clus>
</clustering>
</event>
<event>
 6    0  0.3584505E+002  0.8936786E+02  0.7546771E-02  0.1304390E+00
         21   -1    0    0  501  502  0.00000000000E+00  0.00000000000E+00  0.93778572850E+03  0.93778572850E+03  0.00000000000E+00 0. -1.
          4   -1    0    0  503    0 -0.00000000000E+00 -0.00000000000E+00 -0.57887898004E+02  0.57887898004E+02  0.00000000000E+00 0.  1.
         21    1    1    2  503  505 -0.17784313347E+02  0.25283014950E+02  0.48090700703E+02  0.57168419081E+02  0.00000000000E+00 0.  1.
         21    1    1    2  504  502  0.93196229616E+02  0.40579004668E+02  0.62534486382E+03  0.63355220112E+03  0.00000000000E+00 0.  1.
         21    1    1    2  505  504 -0.38049961696E+02 -0.72127044492E+02  0.24054628091E+03  0.25399335304E+03  0.00000000000E+00 0. -1.
          4    1    1    2  501    0 -0.37361954573E+02  0.62650248751E+01 -0.34084014935E+02  0.50959653259E+02  0.00000000000E+00 0.  1.
<scales pt_clust_3="30.91137" pt_clust_4="14000.00000" pt_clust_5="89.36786" pt_clust_6="57.91291"></scales>
<clustering>
<clus scale="   30.911">  2  3  1 -1</clus>
<clus scale="   57.913">  2  6  1 -1</clus>
<clus scale="   89.368">  2  5  1 -1</clus>
<clus scale="   89.368">  1  3  2 -1</clus>
</clustering>
</event>
<event>
 6    0  0.3584505E+002  0.1314708E+03  0.7546771E-02  0.1225289E+00
         21   -1    0    0  505  502  0.00000000000E+00  0.00000000000E+00  0.23355316107E+03  0.23355316107E+03  0.00000000000E+00 0.  1.
          2   -1    0    0  504    0 -0.00000000000E+00 -0.00000000000E+00 -0.14708073599E+04  0.14708073599E+04  0.00000000000E+00 0. -1.
         21    1    1    2  503  502  0.10419047848E+03  0.66945538892E+02  0.20965465186E+03  0.24350037789E+03  0.00000000000E+00 0.  1.
         21    1    1    2  504  503 -0.38193607931E+01 -0.58389466868E+02 -0.18291393806E+03  0.19204537510E+03  0.00000000000E+00 0. -1.
         21    1    1    2  505  501 -0.47290846190E+02  0.14499603583E+02 -0.43522085885E+03  0.43802266907E+03  0.00000000000E+00 0. -1.
          2    1    1    2  501    0 -0.53080271494E+02 -0.23055675607E+02 -0.82877405374E+03  0.83079209887E+03  0.00000000000E+00 0. -1.
<scales pt_clust_3="123.38707" pt_clust_4="58.51425" pt_clust_5="41.96312" pt_clust_6="41.96312"></scales>
<clustering>
<clus scale="   41.963">  5  6 -1 -1</clus>
<clus scale="   58.514">  2  4  1 -1</clus>
<clus scale="  123.387">  1  3  2 -1</clus>
<clus scale="  123.387">  1  3  2 -1</clus>
</clustering>
</event>
<event>
 6    0  0.3584505E+002  0.2922536E+03  0.7546771E-02  0.1089178E+00
         21   -1    0    0  503  502  0.00000000000E+00  0.00000000000E+00  0.18822442798E+04  0.18822442798E+04  0.00000000000E+00 0.  1.
          2   -1    0    0  504    0 -0.00000000000E+00 -0.00000000000E+00 -0.64495049077E+03  0.64495049077E+03  0.00000000000E+00 0. -1.
         21    1    1    2  503  501 -0.10500510834E+03  0.80043510963E+02  0.69580608008E+03  0.70822251976E+03  0.00000000000E+00 0.  1.
         21    1    1    2  504  505 -0.37700075882E+02 -0.32915104022E+03  0.70291144031E+02  0.33867764604E+03  0.00000000000E+00 0.  1.
         21    1    1    2  505  502  0.27897430621E+02 -0.13749923905E+02  0.93469948523E+03  0.93521679558E+03  0.00000000000E+00 0.  1.
          2    1    1    2  501    0  0.11480775360E+03  0.26285745316E+03 -0.46350292029E+03  0.54507780921E+03  0.00000000000E+00 0. -1.
<scales pt_clust_3="109.50453" pt_clust_4="14000.00000" pt_clust_5="31.10188" pt_clust_6="292.25361"></scales>
<clustering>
<clus scale="   31.102">  1  5  2 -1</clus>
<clus scale="  109.505">  1  3  2 -1</clus>
<clus scale="  292.254">  2  6  1 -1</clus>
<clus scale="   31.102">  1  3  2 -1</clus>
</clustering>
</event>
<event>
 6    0  0.3584505E+002  0.1065591E+03  0.7546771E-02  0.1267078E+00
         -2   -1    0    0    0  501 -0.00000000000E+00  0.00000000000E+00  0.14409224605E+04  0.14409224605E+04  0.00000000000E+00 0. -1.
         21   -1    0    0  504  502  0.00000000000E+00 -0.00000000000E+00 -0.47185634429E+02  0.47185634429E+02  0.00000000000E+00 0. -1.
         21    1    1    2  503  505 -0.21441688553E+02  0.28806545287E+02  0.20976795759E+02  0.41588327926E+02  0.00000000000E+00 0. -1.
         21    1    1    2  504  501 -0.15501488512E+02  0.88073366548E+02  0.66350570158E+03  0.66950506351E+03  0.00000000000E+00 0.  1.
         21    1    1    2  505  502 -0.87066012918E+01  0.28753886929E+02 -0.17256275557E+02  0.34646355734E+02  0.00000000000E+00 0. -1.
         -2    1    1    2    0  503  0.45649778357E+02 -0.14563379876E+03  0.72651060433E+03  0.74236834779E+03  0.00000000000E+00 0. -1.
<scales pt_clust_3="49.87368" pt_clust_4="14000.00000" pt_clust_5="30.04315" pt_clust_6="106.55913"></scales>
<clustering>
<clus scale="   30.043">  2  5  1 -1</clus>
<clus scale="   49.874">  2  3  1 -1</clus>
<clus scale="  106.559">  2  6  1 -1</clus>
<clus scale="   30.043">  2  3  1 -1</clus>
</clustering>
</event>
<event>
 6    0  0.3584505E+002  0.6161035E+02  0.7546771E-02  0.1391195E+00
          2   -1    0    0  503    0 -0.00000000000E+00  0.00000000000E+00  0.14244304549E+03  0.14244304549E+03  0.00000000000E+00 0. -1.
         21   -1    0    0  504  502  0.00000000000E+00 -0.00000000000E+00 -0.33543422222E+03  0.33543422222E+03  0.00000000000E+00 0. -1.
         21    1    1    2  503  505  0.84299792253E+02  0.12643825182E+02  0.36791030658E+02  0.92843423170E+02  0.00000000000E+00 0. -1.
         21    1    1    2  504  501 -0.17824972479E+01  0.57972871932E+02 -0.73275686050E+02  0.93452433583E+02  0.00000000000E+00 0. -1.
         21    1    1    2  505  502 -0.54626493258E+02 -0.50443070296E+02 -0.21290115441E+03  0.22551154883E+03  0.00000000000E+00 0. -1.
          2    1    1    2  501    0 -0.27890801747E+02 -0.20173626818E+02  0.56394633073E+02  0.66069862120E+02  0.00000000000E+00 0. -1.
<scales pt_clust_3="61.61035" pt_clust_4="55.71446" pt_clust_5="14000.00000" pt_clust_6="34.42197"></scales>
<clustering>
<clus scale="   34.422">  1  6  2 -1</clus>
<clus scale="   55.714">  2  4  1 -1</clus>
<clus scale="   61.610">  1  3  2 -1</clus>
<clus scale="   55.714">  2  3  1 -1</clus>
</clustering>
</event>
<event>
 6    0  0.3584505E+002  0.1649353E+03  0.7546771E-02  0.1183235E+00
          2   -1    0    0  504    0 -0.00000000000E+00  0.00000000000E+00  0.31384738988E+04  0.31384738988E+04  0.00000000000E+00 0.  1.
         21   -1    0    0  503  502  0.00000000000E+00 -0.00000000000E+00 -0.51433757619E+02  0.51433757619E+02  0.00000000000E+00 0. -1.
         21    1    1    2  503  501  0.13593524755E+03  0.99280141511E+02  0.14553915330E+04  0.14650936668E+04  0.00000000000E+00 0.  1.
         21    1    1    2  504  505 -0.33000395646E+02 -0.94231469324E+02  0.61020001111E+03  0.61831436137E+03  0.00000000000E+00 0.  1.
         21    1    1    2  505  502 -0.13737219024E+03 -0.32200455872E+02  0.76434881205E+02  0.16046893492E+03  0.00000000000E+00 0. -1.
          2    1    1    2  501    0  0.34437338340E+02  0.27151783685E+02  0.94501371581E+03  0.94603069332E+03  0.00000000000E+00 0.  1.
<scales pt_clust_3="41.35133" pt_clust_4="99.84286" pt_clust_5="143.66691" pt_clust_6="41.35133"></scales>
<clustering>
<clus scale="   41.351">  3  6 -1 -1</clus>
<clus scale="   99.843">  1  4  2 -1</clus>
<clus scale="  143.667">  2  5  1 -1</clus>
<clus scale="  143.667">  2  3  1 -1</clus>
</clustering>
</event>
<event>
 6    0  0.3584505E+002  0.1063357E+03  0.7546771E-02  0.1267510E+00
          3   -1    0    0  505    0 -0.00000000000E+00  0.00000000000E+00  0.98636476951E+03  0.98636476951E+03  0.00000000000E+00 0. -1.
         21   -1    0    0  501  502  0.00000000000E+00 -0.00000000000E+00 -0.17596725785E+03  0.17596725785E+03  0.00000000000E+00 0. -1.
         21    1    1    2  503  504  0.75108931899E+02 -0.18099040670E+01 -0.27585633099E+02  0.80034958345E+02  0.00000000000E+00 0. -1.
         21    1    1    2  504  502  0.52398966170E+02  0.95516358900E+01 -0.10816466588E+03  0.12056732704E+03  0.00000000000E+00 0. -1.
         21    1    1    2  505  503 -0.70568835693E+02 -0.33693762513E+02  0.23157147726E+03  0.24441886033E+03  0.00000000000E+00 0. -1.
          3    1    1    2  501    0 -0.56939062377E+02  0.25952030690E+02  0.71457633337E+03  0.71731088165E+03  0.00000000000E+00 0. -1.
<scales pt_clust_3="106.33573" pt_clust_4="53.26242" pt_clust_5="14000.00000" pt_clust_6="61.60782"></scales>
<clustering>
<clus scale="   53.262">  2  4  1 -1</clus>
<clus scale="   61.608">  1  6  2 -1</clus>
<clus scale="  106.336">  2  3  1 -1</clus>
<clus scale="   53.262">  2  3  1 -1</clus>
</clustering>
</event>
<event>
 6    0  0.3584505E+002  0.1231989E+03  0.7546771E-02  0.1237911E+00
         21   -1    0    0  504  502  0.00000000000E+00  0.00000000000E+00  0.25738366059E+03  0.25738366059E+03  0.00000000000E+00 0.  1.
          2   -1    0    0  502    0 -0.00000000000E+00 -0.00000000000E+00 -0.17766312697E+03  0.17766312697E+03  0.00000000000E+00 0. -1.
         21    1    1    2  503  505 -0.12914905590E+01 -0.67807400774E+02  0.41215916108E+02  0.79361598322E+02  0.00000000000E+00 0.  1.
         21    1    1    2  504  503 -0.53015277223E+01 -0.57796997848E+02  0.15962983131E+03  0.16985370823E+03  0.00000000000E+00 0.  1.
         21    1    1    2  505  501  0.21641712177E+02  0.52990250535E+02 -0.87139656086E+02  0.10425761373E+03  0.00000000000E+00 0. -1.
          2    1    1    2  501    0 -0.15048693896E+02  0.72614148087E+02 -0.33985557703E+02  0.81573867279E+02  0.00000000000E+00 0. -1.
<scales pt_clust_3="105.52665" pt_clust_4="58.03963" pt_clust_5="55.85647" pt_clust_6="55.85647"></scales>
<clustering>
<clus scale="   55.856">  5  6 -1 -1</clus>
<clus scale="   58.040">  1  4  2 -1</clus>
<clus scale="  105.527">  1  3  2 -1</clus>
<clus scale="   58.040">  1  3  2 -1</clus>
</clustering>
</event>
<event>
 6    0  0.3584505E+002  0.6200473E+02  0.7546771E-02  0.1389606E+00
         21   -1    0    0  504  502  0.00000000000E+00  0.00000000000E+00  0.11929002400E+04  0.11929002400E+04  0.00000000000E+00 0.  1.
         -1   -1    0    0    0  501 -0.00000000000E+00 -0.00000000000E+00 -0.81350323400E+03  0.81350323400E+03  0.00000000000E+00 0.  1.
         21    1    1    2  503  505 -0.10285348404E+03  0.32046452267E+02  0.73177447072E+02  0.13023345593E+03  0.00000000000E+00 0.  1.
         21    1    1    2  504  501  0.55020247387E+02 -0.52181390764E+02  0.11301251662E+03  0.13609538595E+03  0.00000000000E+00 0.  1.
         21    1    1    2  505  502 -0.12916663209E+02  0.29512792819E+02  0.96515032017E+03  0.96568783034E+03  0.00000000000E+00 0.  1.
         -1    1    1    2    0  503  0.60749899864E+02 -0.93778543222E+01 -0.77194327789E+03  0.77438680177E+03  0.00000000000E+00 0.  1.
<scales pt_clust_3="14000.00000" pt_clust_4="59.97161" pt_clust_5="32.21560" pt_clust_6="62.00473"></scales>
<clustering>
<clus scale="   32.216">  1  5  2 -1</clus>
<clus scale="   59.972">  1  4  2 -1</clus>
<clus scale="   62.005">  2  6  1 -1</clus>
<clus scale="   32.216">  1  3  2 -1</clus>
</clustering>
</event>
<event>
 6    0  0.3584505E+002  0.1179283E+03  0.7546771E-02  0.1246554E+00
         21   -1    0    0  504  502  0.00000000000E+00  0.00000000000E+00  0.42286385144E+03  0.42286385144E+03  0.00000000000E+00 0. -1.
          2   -1    0    0  503    0 -0.00000000000E+00 -0.00000000000E+00 -0.17267070811E+04  0.17267070811E+04  0.00000000000E+00 0.  1.
         21    1    1    2  503  502  0.95318058116E+02 -0.71396124738E+02  0.12105454530E+03  0.16981502221E+03  0.00000000000E+00 0. -1.
         21    1    1    2  504  505 -0.12382449006E+02  0.30864383413E+02  0.87829428506E+02  0.93914555413E+02  0.00000000000E+00 0. -1.
         21    1    1    2  505  501 -0.11780444179E+03  0.27210032848E+02  0.16673835423E+03  0.20596104284E+03  0.00000000000E+00 0. -1.
          2    1    1    2  501    0  0.34868832684E+02  0.13321708476E+02 -0.16794655577E+04  0.16798803121E+04  0.00000000000E+00 0.  1.
<scales pt_clust_3="117.92831" pt_clust_4="33.25560" pt_clust_5="14000.00000" pt_clust_6="37.32664"></scales>
<clustering>
<clus scale="   33.256">  1  4  2 -1</clus>
<clus scale="   37.327">  2  6  1 -1</clus>
<clus scale="  117.928">  1  3  2 -1</clus>
<clus scale="   33.256">  1  3  2 -1</clus>
</clustering>
</event>
<event>
 6    0  0.3584505E+002  0.1170206E+03  0.7546771E-02  0.1248095E+00
          2   -1    0    0  503    0 -0.00000000000E+00  0.00000000000E+00  0.64757825753E+02  0.64757825753E+02  0.00000000000E+00 0.  1.
         21   -1    0    0  505  502  0.00000000000E+00 -0.00000000000E+00 -0.11195940040E+04  0.11195940040E+04  0.00000000000E+00 0.  1.
         21    1    1    2  503  504 -0.73516358259E+02 -0.72563529524E+02 -0.16858823706E+03  0.19771725879E+03  0.00000000000E+00 0.  1.
         21    1    1    2  504  502  0.29533137950E+02  0.20145542128E+02 -0.17289149897E+03  0.17654891537E+03  0.00000000000E+00 0.  1.
         21    1    1    2  505  501 -0.98833600577E+02  0.72791013910E+02 -0.63332600833E+03  0.64511118819E+03  0.00000000000E+00 0.  1.
          2    1    1    2  501    0  0.14281682089E+03 -0.20373026514E+02 -0.80030433862E+02  0.16497446736E+03  0.00000000000E+00 0.  1.
<scales pt_clust_3="96.48685" pt_clust_4="35.74981" pt_clust_5="14000.00000" pt_clust_6="117.02055"></scales>
<clustering>
<clus scale="   35.750">  2  4  1 -1</clus>
<clus scale="   96.487">  1  3  2 -1</clus>
<clus scale="  117.021">  1  6  2 -1</clus>
<clus scale="   35.750">  2  3  1 -1</clus>
</clustering>
</event>
<event>
 6    0  0.3584505E+002  0.1092535E+03  0.7546771E-02  0.1261958E+00
         -1   -1    0    0    0  501 -0.00000000000E+00  0.00000000000E+00  0.38122015215E+03  0.38122015215E+03  0.00000000000E+00 0. -1.
         21   -1    0    0  505  502  0.00000000000E+00 -0.00000000000E+00 -0.17492871109E+03  0.17492871109E+03  0.00000000000E+00 0.  1.
         21    1    1    2  503  502  0.11412018835E+02  0.76494065242E+02 -0.59975407948E+02  0.97870453916E+02  0.00000000000E+00 0.  1.
         21    1    1    2  504  503  0.11934323208E+03 -0.41703197992E+02 -0.15874897944E+02  0.12741262163E+03  0.00000000000E+00 0.  1.
         21    1    1    2  505  501 -0.75895537448E+02  0.33838680104E+02  0.11299239022E+03  0.14025857950E+03  0.00000000000E+00 0.  1.
         -1    1    1    2    0  504 -0.54859713465E+02 -0.68629547355E+02  0.16914935672E+03  0.19060720818E+03  0.00000000000E+00 0. -1.
<scales pt_clust_3="77.34065" pt_clust_4="109.25354" pt_clust_5="14000.00000" pt_clust_6="80.50482"></scales>
<clustering>
<clus scale="   77.341">  2  3  1 -1</clus>
<clus scale="   80.505">  1  6  2 -1</clus>
<clus scale="  109.254">  2  4  1 -1</clus>
<clus scale="   77.341">  2  3  1 -1</clus>
</clustering>
</event>
<event>
 6    0  0.3584505E+002  0.2154938E+03  0.7546771E-02  0.1137288E+00
         21   -1    0    0  503  502  0.00000000000E+00  0.00000000000E+00  0.27420765723E+03  0.27420765723E+03  0.00000000000E+00 0.  1.
          2   -1    0    0  504    0 -0.00000000000E+00 -0.00000000000E+00 -0.34543685375E+04  0.34543685375E+04  0.00000000000E+00 0. -1.
         21    1    1    2  503  501 -0.27184048969E+03 -0.16621168351E+03 -0.78328120431E+03  0.84560807742E+03  0.00000000000E+00 0. -1.
         21    1    1    2  504  505  0.14065474431E+03  0.88513692061E+02 -0.65442566157E+03  0.67519728768E+03  0.00000000000E+00 0. -1.
         21    1    1    2  505  502  0.15957399590E+03  0.13606155931E+03  0.18474645841E+03  0.27947783809E+03  0.00000000000E+00 0.  1.
          2    1    1    2  501    0 -0.28388250528E+02 -0.58363567857E+02 -0.19272004728E+04  0.19282929915E+04  0.00000000000E+00 0. -1.
<scales pt_clust_3="215.49379" pt_clust_4="142.96927" pt_clust_5="14000.00000" pt_clust_6="64.90145"></scales>
<clustering>
<clus scale="   64.901">  2  6  1 -1</clus>
<clus scale="  142.969">  2  4  1 -1</clus>
<clus scale="  215.494">  2  3  1 -1</clus>
<clus scale="  215.494">  1  3  2 -1</clus>
</clustering>
</event>
<event>
 6    0  0.3584505E+002  0.6354502E+02  0.7546771E-02  0.1383530E+00
          2   -1    0    0  503    0 -0.00000000000E+00  0.00000000000E+00  0.24113350851E+04  0.24113350851E+04  0.00000000000E+00 0.  1.
         21   -1    0    0  505  502  0.00000000000E+00 -0.00000000000E+00 -0.47908140825E+02  0.47908140825E+02  0.00000000000E+00 0.  1.
         21    1    1    2  503  502 -0.35598602491E+01 -0.93312118203E+02  0.15577249950E+03  0.18161744302E+03  0.00000000000E+00 0.  1.
         21    1    1    2  504  501 -0.17084425570E+01  0.81476286156E+02  0.34801611197E+03  0.35743043823E+03  0.00000000000E+00 0.  1.
         21    1    1    2  505  504  0.24347871714E+01  0.50912002668E+02 -0.84760748181E+01  0.51670146589E+02  0.00000000000E+00 0.  1.
          2    1    1    2  501    0  0.28335156346E+01 -0.39076170621E+02  0.18681144076E+04  0.18685251981E+04  0.00000000000E+00 0.  1.
<scales pt_clust_3="14000.00000" pt_clust_4="63.54502" pt_clust_5="49.42355" pt_clust_6="39.17877"></scales>
<clustering>
<clus scale="   39.179">  1  6  2 -1</clus>
<clus scale="   49.424">  2  5  1 -1</clus>
<clus scale="   63.545">  1  4  2 -1</clus>
<clus scale="   49.424">  2  3  1 -1</clus>
</clustering>
</event>
<event>
 6    0  0.3584505E+002  0.1409828E+03  0.7546771E-02  0.1212013E+00
          2   -1    0    0  503    0 -0.00000000000E+00  0.00000000000E+00  0.21296757503E+04  0.21296757503E+04  0.00000000000E+00 0. -1.
         21   -1    0    0  504  502  0.00000000000E+00 -0.00000000000E+00 -0.81894919579E+03  0.81894919579E+03  0.00000000000E+00 0.  1.
         21    1    1    2  503  502  0.81648687975E+02  0.11392628927E+03 -0.74782381261E+03  0.76084568891E+03  0.00000000000E+00 0.  1.
         21    1    1    2  504  505  0.23664870681E+02 -0.21465267463E+02 -0.43231731037E+02  0.53756547323E+02  0.00000000000E+00 0. -1.
         21    1    1    2  505  501 -0.11555830636E+03 -0.14530843375E+03  0.53466615764E+03  0.56598247606E+03  0.00000000000E+00 0. -1.
          2    1    1    2  501    0  0.10244747705E+02  0.52847411936E+02  0.15671159405E+04  0.15680402338E+04  0.00000000000E+00 0. -1.
<scales pt_clust_3="14000.00000" pt_clust_4="31.94971" pt_clust_5="140.98277" pt_clust_6="53.82132"></scales>
<clustering>
<clus scale="   31.950">  2  4  1 -1</clus>
<clus scale="   53.821">  1  6  2 -1</clus>
<clus scale="  140.983">  1  5  2 -1</clus>
<clus scale="   31.950">  2  3  1 -1</clus>
</clustering>
</event>
<event>
 6    0  0.3584505E+002  0.1428386E+03  0.7546771E-02  0.1209560E+00
         21   -1    0    0  504  502  0.00000000000E+00  0.00000000000E+00  0.93081881860E+03  0.93081881860E+03  0.00000000000E+00 0. -1.
          2   -1    0    0  505    0 -0.00000000000E+00 -0.00000000000E+00 -0.27327341183E+04  0.27327341183E+04  0.00000000000E+00 0. -1.
         21    1    1    2  503  501  0.95313446053E+02  0.20315663094E+02  0.20219777022E+03  0.22445783000E+03  0.00000000000E+00 0.  1.
         21    1    1    2  504  503  0.31019290780E+02  0.57130675154E+02  0.62428141421E+03  0.62765706765E+03  0.00000000000E+00 0. -1.
         21    1    1    2  505  502 -0.18140540603E+03 -0.92280261543E+02 -0.22329558809E+02  0.20474905910E+03  0.00000000000E+00 0.  1.
          2    1    1    2  501    0  0.55072669196E+02  0.14833923295E+02 -0.26060649253E+04  0.26066889801E+04  0.00000000000E+00 0. -1.
<scales pt_clust_3="142.83857" pt_clust_4="65.53601" pt_clust_5="14000.00000" pt_clust_6="57.03546"></scales>
<clustering>
<clus scale="   57.035">  2  6  1 -1</clus>
<clus scale="   65.536">  1  4  2 -1</clus>
<clus scale="  142.839">  1  3  2 -1</clus>
<clus scale="   65.536">  1  3  2 -1</clus>
</clustering>
</event>
<event>
 6    0  0.3584505E+002  0.1088226E+03  0.7546771E-02  0.1262766E+00
          2   -1    0    0  505    0 -0.00000000000E+00  0.00000000000E+00  0.12974636197E+04  0.12974636197E+04  0.00000000000E+00 0.  1.
         21   -1    0    0  504  502  0.00000000000E+00 -0.00000000000E+00 -0.84519375102E+03  0.84519375102E+03  0.00000000000E+00 0. -1.
         21    1    1    2  503  502 -0.39932244884E+02 -0.43096303859E+02 -0.78919025797E+03  0.79137420912E+03  0.00000000000E+00 0. -1.
         21    1    1    2  504  501  0.35239850917E+02 -0.46090924068E+02 -0.24909774856E+02  0.63140456582E+02  0.00000000000E+00 0. -1.
         21    1    1    2  505  503 -0.92681919042E+02 -0.12128067217E+02  0.42911999713E+03  0.43918219462E+03  0.00000000000E+00 0. -1.
          2    1    1    2  501    0  0.97374313009E+02  0.10131529514E+03  0.83724990437E+03  0.84896051041E+03  0.00000000000E+00 0.  1.
<scales pt_clust_3="88.71179" pt_clust_4="58.01914" pt_clust_5="14000.00000" pt_clust_6="108.82260"></scales>
<clustering>
<clus scale="   58.019">  2  4  1 -1</clus>
<clus scale="   88.712">  2  3  1 -1</clus>
<clus scale="  108.823">  2  6  1 -1</clus>
<clus scale="   58.019">  2  3  1 -1</clus>
</clustering>
</event>
<event>
 6    0  0.3584505E+002  0.1683219E+03  0.7546771E-02  0.1179609E+00
         21   -1    0    0  505  502  0.00000000000E+00  0.00000000000E+00  0.40131233724E+03  0.40131233724E+03  0.00000000000E+00 0. -1.
          1   -1    0    0  503    0 -0.00000000000E+00 -0.00000000000E+00 -0.47160160292E+04  0.47160160292E+04  0.00000000000E+00 0. -1.
         21    1    1    2  503  502 -0.80386342220E+02  0.32432608814E+02 -0.67822253157E+03  0.68373945364E+03  0.00000000000E+00 0. -1.
         21    1    1    2  504  501  0.10325098600E+03 -0.72511075563E+02 -0.73537146133E+02  0.14603538630E+03  0.00000000000E+00 0.  1.
         21    1    1    2  505  504  0.55338316057E+02 -0.66030531499E+01  0.35962985900E+03  0.36392247116E+03  0.00000000000E+00 0. -1.
          1    1    1    2  501    0 -0.78202959839E+02  0.46681519899E+02 -0.39225738732E+04  0.39236310553E+04  0.00000000000E+00 0. -1.
<scales pt_clust_3="82.93572" pt_clust_4="168.32193" pt_clust_5="55.73087" pt_clust_6="14000.00000"></scales>
<clustering>
<clus scale="   55.731">  1  5  2 -1</clus>
<clus scale="   82.936">  2  3  1 -1</clus>
<clus scale="  168.322">  1  4  2 -1</clus>
<clus scale="   55.731">  1  3  2 -1</clus>
</clustering>
</event>
<event>
 6    0  0.3584505E+002  0.9490978E+02  0.7546771E-02  0.1291379E+00
          2   -1    0    0  503    0 -0.00000000000E+00  0.00000000000E+00  0.34917943111E+04  0.34917943111E+04  0.00000000000E+00 0.  1.
         21   -1    0    0  505  502  0.00000000000E+00 -0.00000000000E+00 -0.98958204392E+02  0.98958204392E+02  0.00000000000E+00 0. -1.
         21    1    1    2  503  504  0.92210043034E+02 -0.63762450998E+02  0.49394756731E+03  0.50651015927E+03  0.00000000000E+00 0. -1.
         21    1    1    2  504  502 -0.18091115001E+02  0.41582440300E+02 -0.57751832546E+02  0.73427937093E+02  0.00000000000E+00 0. -1.
         21    1    1    2  505  501 -0.34523169468E+02  0.47381292613E+02  0.50398767513E+01  0.58840772237E+02  0.00000000000E+00 0.  1.
          2    1    1    2  501    0 -0.39595758565E+02 -0.25201281915E+02  0.29516004952E+04  0.29519736469E+04  0.00000000000E+00 0.  1.
<scales pt_clust_3="94.90978" pt_clust_4="45.34741" pt_clust_5="14000.00000" pt_clust_6="46.89653"></scales>
<clustering>
<clus scale="   45.347">  2  4  1 -1</clus>
<clus scale="   46.897">  1  6  2 -1</clus>
<clus scale="   94.910">  1  3  2 -1</clus>
<clus scale="   45.347">  2  3  1 -1</clus>
</clustering>
</event>
<event>
 6    0  0.3584505E+002  0.9659205E+02  0.7546771E-02  0.1287630E+00
         21   -1    0    0  505  502  0.00000000000E+00  0.00000000000E+00  0.46162468618E+03  0.46162468618E+03  0.00000000000E+00 0. -1.
          2   -1    0    0  504    0 -0.00000000000E+00 -0.00000000000E+00 -0.16144805102E+04  0.16144805102E+04  0.00000000000E+00 0. -1.
         21    1    1    2  503  502  0.45411982136E+02  0.15578911760E+02  0.31011863553E+02  0.57154932370E+02  0.00000000000E+00 0. -1.
         21    1    1    2  504  503 -0.42082170436E+02 -0.69383041625E+02 -0.57991242829E+02  0.99739158702E+02  0.00000000000E+00 0. -1.
         21    1    1    2  505  501  0.54436494431E+02 -0.23829347317E+02  0.39289333206E+03  0.39736172450E+03  0.00000000000E+00 0. -1.
          2    1    1    2  501    0 -0.57766306131E+02  0.77633477182E+02 -0.15187697768E+04  0.15218493808E+04  0.00000000000E+00 0. -1.
<scales pt_clust_3="48.00990" pt_clust_4="79.31914" pt_clust_5="14000.00000" pt_clust_6="96.59205"></scales>
<clustering>
<clus scale="   48.010">  1  3  2 -1</clus>
<clus scale="   79.319">  1  4  2 -1</clus>
<clus scale="   96.592">  2  6  1 -1</clus>
<clus scale="   48.010">  1  3  2 -1</clus>
</clustering>
</event>
<event>
 6    0  0.3584505E+002  0.1359038E+03  0.7546771E-02  0.1218949E+00
         21   -1    0    0  505  502  0.00000000000E+00  0.00000000000E+00  0.56784113914E+02  0.56784113914E+02  0.00000000000E+00 0.  1.
          2   -1    0    0  504    0 -0.00000000000E+00 -0.00000000000E+00 -0.30090999068E+04  0.30090999068E+04  0.00000000000E+00 0. -1.
         21    1    1    2  503  501  0.96425267102E+02 -0.12642959685E+02 -0.19373627605E+03  0.21677504751E+03  0.00000000000E+00 0.  1.
         21    1    1    2  504  502  0.24329376138E+02 -0.30967098333E+02 -0.17531246971E+03  0.17968122261E+03  0.00000000000E+00 0.  1.
         21    1    1    2  505  503  0.47540475137E+02 -0.99136207428E+01  0.25389894014E+02  0.54799848271E+02  0.00000000000E+00 0.  1.
          2    1    1    2  501    0 -0.16829511838E+03  0.53523678761E+02 -0.26086569412E+04  0.26146279023E+04  0.00000000000E+00 0. -1.
<scales pt_clust_3="135.90383" pt_clust_4="39.38121" pt_clust_5="48.71981" pt_clust_6="14000.00000"></scales>
<clustering>
<clus scale="   39.381">  2  4  1 -1</clus>
<clus scale="   48.720">  1  5  2 -1</clus>
<clus scale="  135.904">  1  3  2 -1</clus>
<clus scale="   48.720">  1  3  2 -1</clus>
</clustering>
</event>
<event>
 6    0  0.3584505E+002  0.2028927E+03  0.7546771E-02  0.1147321E+00
         21   -1    0    0  505  502  0.00000000000E+00  0.00000000000E+00  0.93467697893E+03  0.93467697893E+03  0.00000000000E+00 0.  1.
          2   -1    0    0  503    0 -0.00000000000E+00 -0.00000000000E+00 -0.14101577344E+04  0.14101577344E+04  0.00000000000E+00 0. -1.
         21    1    1    2  503  504 -0.19620783162E+03  0.44149292047E+02 -0.30867725580E+03  0.36841324817E+03  0.00000000000E+00 0.  1.
         21    1    1    2  504  502  0.21110286117E+03  0.52287418709E+02  0.80894291863E+03  0.83766761770E+03  0.00000000000E+00 0.  1.
         21    1    1    2  505  501 -0.83506245464E+01 -0.42366348676E+02  0.75028994160E+02  0.86567836955E+02  0.00000000000E+00 0.  1.
          2    1    1    2  501    0 -0.65444050026E+01 -0.54070362081E+02 -0.10507754125E+04  0.10521860105E+04  0.00000000000E+00 0. -1.
<scales pt_clust_3="14000.00000" pt_clust_4="202.89270" pt_clust_5="43.18148" pt_clust_6="54.50054"></scales>
<clustering>
<clus scale="   43.181">  1  5  2 -1</clus>
<clus scale="   54.501">  2  6  1 -1</clus>
<clus scale="  202.893">  1  4  2 -1</clus>
<clus scale="   43.181">  1  3  2 -1</clus>
</clustering>
</event>
<event>
 6    0  0.3584505E+002  0.7379663E+02  0.7546771E-02  0.1347638E+00
         21   -1    0    0  504  502  0.00000000000E+00  0.00000000000E+00  0.43351263811E+03  0.43351263811E+03  0.00000000000E+00 0.  1.
          2   -1    0    0  503    0 -0.00000000000E+00 -0.00000000000E+00 -0.13776753125E+04  0.13776753125E+04  0.00000000000E+00 0.  1.
         21    1    1    2  503  502 -0.51126860313E+02  0.39746340345E+02 -0.99048464937E+01  0.65512085910E+02  0.00000000000E+00 0. -1.
         21    1    1    2  504  505 -0.32266797966E+01 -0.73592445350E+02  0.37134500851E+03  0.37858073752E+03  0.00000000000E+00 0.  1.
         21    1    1    2  505  501  0.41034045306E+02  0.73663800617E+02 -0.28067914264E+02  0.88870446194E+02  0.00000000000E+00 0. -1.
          2    1    1    2  501    0  0.13319494803E+02 -0.39817695611E+02 -0.12775349221E+04  0.12782246809E+04  0.00000000000E+00 0.  1.
<scales pt_clust_3="52.29524" pt_clust_4="14000.00000" pt_clust_5="73.79663" pt_clust_6="41.98640"></scales>
<clustering>
<clus scale="   41.986">  2  6  1 -1</clus>
<clus scale="   52.295">  2  3  1 -1</clus>
<clus scale="   73.797">  2  5  1 -1</clus>
<clus scale="   73.797">  1  3  2 -1</clus>
</clustering>
</event>
<event>
 6    0  0.3584505E+002  0.1886203E+03  0.7546771E-02  0.1159712E+00
         21   -1    0    0  501  502  0.00000000000E+00  0.00000000000E+00  0.41391085318E+03  0.41391085318E+03  0.00000000000E+00 0. -1.
          2   -1    0    0  504    0 -0.00000000000E+00 -0.00000000000E+00 -0.15248678707E+04  0.15248678707E+04  0.00000000000E+00 0. -1.
         21    1    1    2  503  502  0.26600034772E+02  0.19714347215E+02  0.31283199675E+03  0.31457920390E+03  0.00000000000E+00 0. -1.
         21    1    1    2  504  505  0.35274128259E+02 -0.19935265144E+02 -0.90677838584E+02  0.99318423926E+02  0.00000000000E+00 0. -1.
         21    1    1    2  505  503 -0.19462115332E+03  0.69767132291E+02 -0.25046578642E+02  0.20825987892E+03  0.00000000000E+00 0. -1.
          2    1    1    2  501    0  0.13274699029E+03 -0.69546214362E+02 -0.13080645970E+04  0.13166212171E+04  0.00000000000E+00 0. -1.
<scales pt_clust_3="33.10917" pt_clust_4="41.11856" pt_clust_5="188.62032" pt_clust_6="14000.00000"></scales>
<clustering>
<clus scale="   33.109">  1  3  2 -1</clus>
<clus scale="   41.119">  2  4  1 -1</clus>
<clus scale="  188.620">  1  5  2 -1</clus>
<clus scale="   33.109">  1  3  2 -1</clus>
</clustering>
</event>
<event>
 6    0  0.3584505E+002  0.7811326E+02  0.7546771E-02  0.1334493E+00
          2   -1    0    0  504    0 -0.00000000000E+00  0.00000000000E+00  0.10200693107E+04  0.10200693107E+04  0.00000000000E+00 0. -1.
         21   -1    0    0  503  502  0.00000000000E+00 -0.00000000000E+00 -0.12040156235E+03  0.12040156235E+03  0.00000000000E+00 0. -1.
         21    1    1    2  503  505 -0.41424981827E+02  0.46511071064E+02 -0.49887487003E+02  0.79800189287E+02  0.00000000000E+00 0. -1.
         21    1    1    2  504  502 -0.17022096092E+02 -0.36685452635E+02  0.26341661833E+02  0.48264452121E+02  0.00000000000E+00 0. -1.
         21    1    1    2  505  501  0.12658863472E+03 -0.43443459773E+02  0.61397324853E+02  0.14724689517E+03  0.00000000000E+00 0. -1.
          2    1    1    2  501    0 -0.68141556805E+02  0.33617841345E+02  0.86181624867E+03  0.86515933647E+03  0.00000000000E+00 0. -1.
<scales pt_clust_3="57.15887" pt_clust_4="40.44223" pt_clust_5="14000.00000" pt_clust_6="78.11326"></scales>
<clustering>
<clus scale="   40.442">  2  4  1 -1</clus>
<clus scale="   57.159">  2  3  1 -1</clus>
<clus scale="   78.113">  1  6  2 -1</clus>
<clus scale="   40.442">  2  3  1 -1</clus>
</clustering>
</event>
<event>
 6    0  0.3584505E+002  0.1050193E+03  0.7546771E-02  0.1270082E+00
          1   -1    0    0  505    0 -0.00000000000E+00  0.00000000000E+00  0.12929581631E+04  0.12929581631E+04  0.00000000000E+00 0. -1.
         21   -1    0    0  504  502  0.00000000000E+00 -0.00000000000E+00 -0.26826331761E+03  0.26826331761E+03  0.00000000000E+00 0.  1.
         21    1    1    2  503  502  0.16072495782E+02  0.48142191261E+02 -0.13013332909E+03  0.13968063230E+03  0.00000000000E+00 0.  1.
         21    1    1    2  504  501  0.80232104382E+02 -0.82165618980E+02 -0.88322197922E+02  0.14487646518E+03  0.00000000000E+00 0.  1.
         21    1    1    2  505  503 -0.10346558404E+03  0.78706058559E+02  0.24383210564E+03  0.27632203400E+03  0.00000000000E+00 0. -1.
          1    1    1    2  501    0  0.71609838720E+01 -0.44682630840E+02  0.99931826685E+03  0.10003423492E+04  0.00000000000E+00 0. -1.
<scales pt_clust_3="50.10214" pt_clust_4="14000.00000" pt_clust_5="105.01932" pt_clust_6="45.25281"></scales>
<clustering>
<clus scale="   45.253">  1  6  2 -1</clus>
<clus scale="   50.102">  2  3  1 -1</clus>
<clus scale="  105.019">  1  5  2 -1</clus>
<clus scale="   50.102">  2  3  1 -1</clus>
</clustering>
</event>
<event>
 6    0  0.3584505E+002  0.1693547E+03  0.7546771E-02  0.1178523E+00
          2   -1    0    0  504    0 -0.00000000000E+00  0.00000000000E+00  0.11074349047E+04  0.11074349047E+04  0.00000000000E+00 0. -1.
         21   -1    0    0  505  502  0.00000000000E+00 -0.00000000000E+00 -0.99600505578E+03  0.99600505578E+03  0.00000000000E+00 0.  1.
         21    1    1    2  503  502 -0.54375277643E+02 -0.14496721319E+02 -0.13719414048E+02  0.57922776777E+02  0.00000000000E+00 0. -1.
         21    1    1    2  504  503  0.27804010787E+02  0.70401115799E+02  0.85156916374E+02  0.11393454493E+03  0.00000000000E+00 0. -1.
         21    1    1    2  505  501  0.17660875959E+03 -0.10302774203E+03 -0.92832650670E+03  0.95057638969E+03  0.00000000000E+00 0.  1.
          2    1    1    2  501    0 -0.15003749274E+03  0.47123347549E+02  0.96831885324E+03  0.98100624904E+03  0.00000000000E+00 0. -1.
<scales pt_clust_3="56.27456" pt_clust_4="75.19436" pt_clust_5="169.35466" pt_clust_6="14000.00000"></scales>
<clustering>
<clus scale="   56.275">  2  3  1 -1</clus>
<clus scale="   75.194">  1  4  2 -1</clus>
<clus scale="  169.355">  2  5  1 -1</clus>
<clus scale="   56.275">  2  3  1 -1</clus>
</clustering>
</event>
<event>
 6    0  0.3584505E+002  0.1016175E+03  0.7546771E-02  0.1276931E+00
          1   -1    0    0  505    0 -0.00000000000E+00  0.00000000000E+00  0.49023402792E+04  0.49023402792E+04  0.00000000000E+00 0.  1.
         21   -1    0    0  504  502  0.00000000000E+00 -0.00000000000E+00 -0.24765939564E+03  0.24765939564E+03  0.00000000000E+00 0.  1.
         21    1    1    2  503  502 -0.10040442080E+02 -0.10914667241E+03  0.13180369648E+03  0.17142351351E+03  0.00000000000E+00 0. -1.
         21    1    1    2  504  501 -0.38295743393E+02  0.15666171581E+02 -0.22506281148E+03  0.22883457345E+03  0.00000000000E+00 0.  1.
         21    1    1    2  505  503  0.52075619261E+02  0.46821682358E+02  0.16994518981E+04  0.17008941454E+04  0.00000000000E+00 0. -1.
          1    1    1    2  501    0 -0.37394337872E+01  0.46658818475E+02  0.30484881005E+04  0.30488474425E+04  0.00000000000E+00 0.  1.
<scales pt_clust_3="14000.00000" pt_clust_4="41.37624" pt_clust_5="101.61746" pt_clust_6="46.97153"></scales>
<clustering>
<clus scale="   41.376">  2  4  1 -1</clus>
<clus scale="   46.972">  1  6  2 -1</clus>
<clus scale="  101.617">  1  5  2 -1</clus>
<clus scale="   41.376">  2  3  1 -1</clus>
</clustering>
</event>
<event>
 6    0  0.3584505E+002  0.3373277E+03  0.7546771E-02  0.1067940E+00
          2   -1    0    0  505    0 -0.00000000000E+00  0.00000000000E+00  0.31866251167E+04  0.31866251167E+04  0.00000000000E+00 0. -1.
         21   -1    0    0  504  502  0.00000000000E+00 -0.00000000000E+00 -0.24365635959E+03  0.24365635959E+03  0.00000000000E+00 0. -1.
         21    1    1    2  503  501 -0.92773090676E+02  0.32351477305E+03  0.17016959120E+04  0.17346577852E+04  0.00000000000E+00 0. -1.
         21    1    1    2  504  503  0.12694797615E+03 -0.56238540370E+02 -0.82988402717E+02  0.16175795825E+03  0.00000000000E+00 0. -1.
         21    1    1    2  505  502  0.39931082045E+02 -0.25930857207E+03  0.62241331566E+02  0.26964682497E+03  0.00000000000E+00 0. -1.
          2    1    1    2  501    0 -0.74105967518E+02 -0.79676606127E+01  0.12620199162E+04  0.12642189079E+04  0.00000000000E+00 0. -1.
<scales pt_clust_3="14000.00000" pt_clust_4="137.52814" pt_clust_5="337.32767" pt_clust_6="74.53307"></scales>
<clustering>
<clus scale="   74.533">  1  6  2 -1</clus>
<clus scale="  137.528">  2  4  1 -1</clus>
<clus scale="  337.328">  2  5  1 -1</clus>
<clus scale="  137.528">  2  3  1 -1</clus>
</clustering>
</event>
<event>
 6    0  0.3584505E+002  0.1104552E+03  0.7546771E-02  0.1259729E+00
          3   -1    0    0  504    0 -0.00000000000E+00  0.00000000000E+00  0.20983378319E+03  0.20983378319E+03  0.00000000000E+00 0.  1.
         21   -1    0    0  503  502  0.00000000000E+00 -0.00000000000E+00 -0.31097532613E+03  0.31097532613E+03  0.00000000000E+00 0.  1.
         21    1    1    2  503  505  0.92141077157E+02  0.50043697124E+02 -0.25973099723E+03  0.28009737708E+03  0.00000000000E+00 0.  1.
         21    1    1    2  504  502 -0.38882519832E+02  0.33896036097E+02  0.21858566909E+01  0.51629154371E+02  0.00000000000E+00 0.  1.
         21    1    1    2  505  501 -0.18670978273E+02 -0.56839455803E+02  0.69512457204E+02  0.91713199007E+02  0.00000000000E+00 0.  1.
          3    1    1    2  501    0 -0.34587579052E+02 -0.27100277418E+02  0.86891140396E+02  0.97369378863E+02  0.00000000000E+00 0.  1.
<scales pt_clust_3="103.88730" pt_clust_4="51.58286" pt_clust_5="32.15493" pt_clust_6="32.15493"></scales>
<clustering>
<clus scale="   32.155">  5  6 -1 -1</clus>
<clus scale="   51.583">  1  4  2 -1</clus>
<clus scale="  103.887">  2  3  1 -1</clus>
<clus scale="  103.887">  2  3  1 -1</clus>
</clustering>
</event>
<event>
 6    0  0.3584505E+002  0.1000912E+03  0.7546771E-02  0.1280104E+00
          2   -1    0    0  505    0 -0.00000000000E+00  0.00000000000E+00  0.18109616566E+04  0.18109616566E+04  0.00000000000E+00 0. -1.
         21   -1    0    0  504  502  0.00000000000E+00 -0.00000000000E+00 -0.11470559425E+02  0.11470559425E+02  0.00000000000E+00 0. -1.
         21    1    1    2  503  501 -0.60235372542E+01 -0.35216665481E+02  0.14127096854E+03  0.14571884944E+03  0.00000000000E+00 0. -1.
         21    1    1    2  504  503  0.62455144343E+02 -0.39948243900E+02  0.34697451008E+03  0.35480673315E+03  0.00000000000E+00 0. -1.
         21    1    1    2  505  502 -0.60287595650E+01  0.10390017817E+03  0.99079653633E+03  0.99624764460E+03  0.00000000000E+00 0. -1.
          2    1    1    2  501    0 -0.50402847524E+02 -0.28735268794E+02  0.32044908218E+03  0.32565898879E+03  0.00000000000E+00 0. -1.
<scales pt_clust_3="32.71375" pt_clust_4="74.13843" pt_clust_5="90.99656" pt_clust_6="32.71375"></scales>
<clustering>
<clus scale="   32.714">  3  6 -1 -1</clus>
<clus scale="   74.138">  2  4  1 -1</clus>
<clus scale="   90.997">  1  5  2 -1</clus>
<clus scale="   74.138">  2  3  1 -1</clus>
</clustering>
</event>
<event>
 6    0  0.3584505E+002  0.1067422E+03  0.7546771E-02  0.1266725E+00
         -1   -1    0    0    0  501 -0.00000000000E+00  0.00000000000E+00  0.10952802460E+04  0.10952802460E+04  0.00000000000E+00 0. -1.
         21   -1    0    0  505  502  0.00000000000E+00 -0.00000000000E+00 -0.48214510094E+03  0.48214510094E+03  0.00000000000E+00 0. -1.
         21    1    1    2  503  501 -0.61588951268E+02 -0.59110125511E+02 -0.11351043705E+03  0.14202755076E+03  0.00000000000E+00 0.  1.
         21    1    1    2  504  502 -0.33499449226E+02  0.70801102392E+01  0.21685595044E+01  0.34308070621E+02  0.00000000000E+00 0.  1.
         21    1    1    2  505  503  0.89184483948E+02  0.10329103310E+03 -0.32388407519E+03  0.35145953374E+03  0.00000000000E+00 0. -1.
         -1    1    1    2    0  504  0.59039165457E+01 -0.51261017831E+02  0.10483610978E+04  0.10496301918E+04  0.00000000000E+00 0. -1.
<scales pt_clust_3="14000.00000" pt_clust_4="34.23947" pt_clust_5="106.74220" pt_clust_6="51.58511"></scales>
<clustering>
<clus scale="   34.239">  2  4  1 -1</clus>
<clus scale="   51.585">  1  6  2 -1</clus>
<clus scale="  106.742">  2  5  1 -1</clus>
<clus scale="   34.239">  2  3  1 -1</clus>
</clustering>
</event>
<event>
 6    0  0.3584505E+002  0.9639996E+02  0.7546771E-02  0.1288054E+00
          2   -1    0    0  504    0 -0.00000000000E+00  0.00000000000E+00  0.10239267807E+04  0.10239267807E+04  0.00000000000E+00 0. -1.
         21   -1    0    0  505  502  0.00000000000E+00 -0.00000000000E+00 -0.61446985441E+02  0.61446985441E+02  0.00000000000E+00 0.  1.
         21    1    1    2  503  501  0.12966163963E+03 -0.94547334725E+00  0.48714464052E+02  0.13851401994E+03  0.00000000000E+00 0.  1.
         21    1    1    2  504  502 -0.24025140857E+01 -0.32190307687E+02  0.36499049060E+02  0.48725440636E+02  0.00000000000E+00 0. -1.
         21    1    1    2  505  503 -0.37376337269E+02  0.30730872238E+01  0.37493450524E+02  0.53030116773E+02  0.00000000000E+00 0.  1.
          2    1    1    2  501    0 -0.89882788274E+02  0.30062693810E+02  0.83977283162E+03  0.84510418879E+03  0.00000000000E+00 0. -1.
<scales pt_clust_3="96.39996" pt_clust_4="32.27984" pt_clust_5="37.74134" pt_clust_6="14000.00000"></scales>
<clustering>
<clus scale="   32.280">  2  4  1 -1</clus>
<clus scale="   37.741">  2  5  1 -1</clus>
<clus scale="   96.400">  2  3  1 -1</clus>
<clus scale="   32.280">  2  3  1 -1</clus>
</clustering>
</event>
<event>
 6    0  0.3584505E+002  0.1449132E+03  0.7546771E-02  0.1206867E+00
          2   -1    0    0  503    0 -0.00000000000E+00  0.00000000000E+00  0.33814328709E+04  0.33814328709E+04  0.00000000000E+00 0. -1.
         21   -1    0    0  505  502  0.00000000000E+00 -0.00000000000E+00 -0.16465494648E+03  0.16465494648E+03  0.00000000000E+00 0. -1.
         21    1    1    2  503  502  0.24572701455E+02 -0.17314131727E+03  0.41371685971E+02  0.17970350526E+03  0.00000000000E+00 0. -1.
         21    1    1    2  504  501 -0.11453545092E+03  0.94033096133E+02  0.98362292949E+03  0.99472340884E+03  0.00000000000E+00 0. -1.
         21    1    1    2  505  504 -0.29480636274E+02  0.26817593748E+02 -0.83563884512E+02  0.92580851391E+02  0.00000000000E+00 0. -1.
          2    1    1    2  501    0  0.11944338574E+03  0.52290627386E+02  0.22753471935E+04  0.22790800519E+04  0.00000000000E+00 0. -1.
<scales pt_clust_3="144.91320" pt_clust_4="14000.00000" pt_clust_5="39.85337" pt_clust_6="129.99497"></scales>
<clustering>
<clus scale="   39.853">  2  5  1 -1</clus>
<clus scale="  129.995">  1  6  2 -1</clus>
<clus scale="  144.913">  2  3  1 -1</clus>
<clus scale="   39.853">  2  3  1 -1</clus>
</clustering>
</event>
<event>
 6    0  0.3584505E+002  0.7396129E+02  0.7546771E-02  0.1347118E+00
          1   -1    0    0  503    0 -0.00000000000E+00  0.00000000000E+00  0.27379027702E+04  0.27379027702E+04  0.00000000000E+00 0. -1.
         21   -1    0    0  504  502  0.00000000000E+00 -0.00000000000E+00 -0.10652333961E+03  0.10652333961E+03  0.00000000000E+00 0.  1.
         21    1    1    2  503  502 -0.17745434029E+02 -0.10132613157E+03  0.34531926290E+03  0.36031552659E+03  0.00000000000E+00 0.  1.
         21    1    1    2  504  505  0.31552159056E+01  0.72811058543E+02 -0.84097657267E+02  0.11128262035E+03  0.00000000000E+00 0.  1.
         21    1    1    2  505  501  0.28869727366E+02  0.54969040295E+02  0.80841107360E+03  0.81079190948E+03  0.00000000000E+00 0.  1.
          1    1    1    2  501    0 -0.14279509243E+02 -0.26453967266E+02  0.15617467513E+04  0.15620360534E+04  0.00000000000E+00 0. -1.
<scales pt_clust_3="73.96129" pt_clust_4="14000.00000" pt_clust_5="41.39561" pt_clust_6="30.06188"></scales>
<clustering>
<clus scale="   30.062">  1  6  2 -1</clus>
<clus scale="   41.396">  1  5  2 -1</clus>
<clus scale="   73.961">  1  3  2 -1</clus>
<clus scale="   73.961">  2  3  1 -1</clus>
</clustering>
</event>
<event>
 6    0  0.3584505E+002  0.2305637E+03  0.7546771E-02  0.1126244E+00
         21   -1    0    0  505  502  0.00000000000E+00  0.00000000000E+00  0.92523259856E+03  0.92523259856E+03  0.00000000000E+00 0.  1.
          2   -1    0    0  504    0 -0.00000000000E+00 -0.00000000000E+00 -0.56041180495E+03  0.56041180495E+03  0.00000000000E+00 0.  1.
         21    1    1    2  503  501 -0.89916425299E+02 -0.18408335699E+03  0.49424092231E+03  0.53501937829E+03  0.00000000000E+00 0.  1.
         21    1    1    2  504  502  0.20212816249E+03  0.28645455858E+02 -0.35506648240E+02  0.20721264025E+03  0.00000000000E+00 0.  1.
         21    1    1    2  505  503 -0.23202677225E+02 -0.33045839475E+02  0.29735519769E+03  0.30008416375E+03  0.00000000000E+00 0.  1.
          2    1    1    2  501    0 -0.89009059962E+02  0.18848374061E+03 -0.39126867816E+03  0.44332822122E+03  0.00000000000E+00 0.  1.
<scales pt_clust_3="14000.00000" pt_clust_4="200.40507" pt_clust_5="40.37811" pt_clust_6="230.56370"></scales>
<clustering>
<clus scale="   40.378">  1  5  2 -1</clus>
<clus scale="  200.405">  2  4  1 -1</clus>
<clus scale="  230.564">  2  6  1 -1</clus>
<clus scale="   40.378">  1  3  2 -1</clus>
</clustering>
</event>
<event>
 6    0  0.3584505E+002  0.1323814E+03  0.7546771E-02  0.1223964E+00
         21   -1    0    0  504  502  0.00000000000E+00  0.00000000000E+00  0.12720707690E+04  0.12720707690E+04  0.00000000000E+00 0. -1.
          1   -1    0    0  505    0 -0.00000000000E+00 -0.00000000000E+00 -0.10564215505E+03  0.10564215505E+03  0.00000000000E+00 0. -1.
         21    1    1    2  503  501 -0.76253458860E+02  0.92765803728E+01  0.26504157578E+03  0.27594869418E+03  0.00000000000E+00 0. -1.
         21    1    1    2  504  503  0.34794556534E+01  0.39622858553E+02  0.91448091653E+02  0.99723773487E+02  0.00000000000E+00 0.  1.
         21    1    1    2  505  502 -0.11469333435E+01  0.66149124480E+02  0.85538290830E+03  0.85793760958E+03  0.00000000000E+00 0. -1.
          1    1    1    2  501    0  0.73920936551E+02 -0.11504856341E+03 -0.45443961746E+02  0.14410284682E+03  0.00000000000E+00 0. -1.
<scales pt_clust_3="77.66140" pt_clust_4="39.77534" pt_clust_5="14000.00000" pt_clust_6="132.38137"></scales>
<clustering>
<clus scale="   39.775">  1  4  2 -1</clus>
<clus scale="   77.661">  1  3  2 -1</clus>
<clus scale="  132.381">  2  6  1 -1</clus>
<clus scale="   39.775">  1  3  2 -1</clus>
</clustering>
</event>
<event>
 6    0  0.3584505E+002  0.1617360E+03  0.7546771E-02  0.1186751E+00
          2   -1    0    0  503    0 -0.00000000000E+00  0.00000000000E+00  0.10357034966E+04  0.10357034966E+04  0.00000000000E+00 0. -1.
         21   -1    0    0  504  502  0.00000000000E+00 -0.00000000000E+00 -0.61188243074E+03  0.61188243074E+03  0.00000000000E+00 0. -1.
         21    1    1    2  503  502  0.12294899589E+03 -0.35793329401E+01 -0.17366359989E+03  0.21281050994E+03  0.00000000000E+00 0. -1.
         21    1    1    2  504  505  0.18953905352E+02 -0.87374738101E+02 -0.37787567082E+03  0.38830866329E+03  0.00000000000E+00 0. -1.
         21    1    1    2  505  501 -0.12439115763E+03  0.15501322787E+03  0.25623590208E+03  0.32428243620E+03  0.00000000000E+00 0. -1.
          2    1    1    2  501    0 -0.17511743607E+02 -0.64059156826E+02  0.71912443447E+03  0.72218431788E+03  0.00000000000E+00 0. -1.
<scales pt_clust_3="14000.00000" pt_clust_4="90.38343" pt_clust_5="161.73602" pt_clust_6="66.40961"></scales>
<clustering>
<clus scale="   66.410">  1  6  2 -1</clus>
<clus scale="   90.383">  2  4  1 -1</clus>
<clus scale="  161.736">  1  5  2 -1</clus>
<clus scale="   90.383">  2  3  1 -1</clus>
</clustering>
</event>
<event>
 6    0  0.3584505E+002  0.1619425E+03  0.7546771E-02  0.1186521E+00
          2   -1    0    0  503    0 -0.00000000000E+00  0.00000000000E+00  0.11614963409E+04  0.11614963409E+04  0.00000000000E+00 0. -1.
         21   -1    0    0  505  502  0.00000000000E+00 -0.00000000000E+00 -0.24837385739E+03  0.24837385739E+03  0.00000000000E+00 0.  1.
         21    1    1    2  503  502  0.83057196126E+02  0.10177623528E+03 -0.19255230534E+03  0.23309502395E+03  0.00000000000E+00 0.  1.
         21    1    1    2  504  501 -0.84818696634E+02 -0.93859813394E+02  0.28544605162E+03  0.31222319621E+03  0.00000000000E+00 0. -1.
         21    1    1    2  505  504  0.16451902697E+00  0.50650025697E+02  0.92846563640E+01  0.51494242527E+02  0.00000000000E+00 0. -1.
          2    1    1    2  501    0  0.15969814811E+01 -0.58566447585E+02  0.81094408092E+03  0.81305773565E+03  0.00000000000E+00 0. -1.
<scales pt_clust_3="161.94253" pt_clust_4="14000.00000" pt_clust_5="50.65029" pt_clust_6="58.35280"></scales>
<clustering>
<clus scale="   50.650">  2  5  1 -1</clus>
<clus scale="   58.353">  1  6  2 -1</clus>
<clus scale="  161.943">  2  3  1 -1</clus>
<clus scale="   50.650">  2  3  1 -1</clus>
</clustering>
</event>
<event>
 6    0  0.3584505E+002  0.8833308E+02  0.7546771E-02  0.1306939E+00
          2   -1    0    0  504    0 -0.00000000000E+00  0.00000000000E+00  0.38331728284E+04  0.38331728284E+04  0.00000000000E+00 0.  1.
         21   -1    0    0  505  502  0.00000000000E+00 -0.00000000000E+00 -0.97723246900E+02  0.97723246900E+02  0.00000000000E+00 0. -1.
         21    1    1    2  503  502 -0.18605609448E+02 -0.40077736533E+02 -0.20905309105E+02  0.48881751374E+02  0.00000000000E+00 0. -1.
         21    1    1    2  504  503  0.84960672137E+02  0.29854140794E+02 -0.85728011100E+01  0.90460369507E+02  0.00000000000E+00 0. -1.
         21    1    1    2  505  501  0.32046960124E+01 -0.44907482478E+02  0.26844896141E+02  0.52417559156E+02  0.00000000000E+00 0. -1.
          2    1    1    2  501    0 -0.69559758701E+02  0.55131078217E+02  0.37380827956E+04  0.37391363952E+04  0.00000000000E+00 0.  1.
<scales pt_clust_3="44.18590" pt_clust_4="14000.00000" pt_clust_5="53.06680" pt_clust_6="88.33308"></scales>
<clustering>
<clus scale="   44.186">  2  3  1 -1</clus>
<clus scale="   53.067">  2  5  1 -1</clus>
<clus scale="   88.333">  1  6  2 -1</clus>
<clus scale="   44.186">  2  3  1 -1</clus>
</clustering>
</event>
<event>
 6    0  0.3584505E+002  0.1142596E+03  0.7546771E-02  0.1252879E+00
         21   -1    0    0  505  502  0.00000000000E+00  0.00000000000E+00  0.34155088929E+03  0.34155088929E+03  0.00000000000E+00 0.  1.
          1   -1    0    0  503    0 -0.00000000000E+00 -0.00000000000E+00 -0.23449626458E+04  0.23449626458E+04  0.00000000000E+00 0.  1.
         21    1    1    2  503  504  0.98753019420E+02 -0.25361049797E+02 -0.44893444631E+03  0.46036667861E+03  0.00000000000E+00 0.  1.
         21    1    1    2  504  502  0.40811076355E+02 -0.31084205718E+02 -0.50354995363E+02  0.71884611402E+02  0.00000000000E+00 0.  1.
         21    1    1    2  505  501 -0.20102310660E+02  0.73284288731E+02  0.31860734817E+03  0.32754439726E+03  0.00000000000E+00 0.  1.
          1    1    1    2  501    0 -0.11946178511E+03 -0.16839033217E+02 -0.18227296630E+04  0.18267178478E+04  0.00000000000E+00 0.  1.
<scales pt_clust_3="14000.00000" pt_clust_4="51.30080" pt_clust_5="47.25338" pt_clust_6="114.25959"></scales>
<clustering>
<clus scale="   51.301">  1  4  2 -1</clus>
<clus scale="   47.253">  1  5  2 -1</clus>
<clus scale="  114.260">  2  6  1 -1</clus>
<clus scale="   51.301">  1  3  2 -1</clus>
</clustering>
</event>
<event>
 6    0  0.3584505E+002  0.8459014E+02  0.7546771E-02  0.1316508E+00
          4   -1    0    0  505    0 -0.00000000000E+00  0.00000000000E+00  0.34296459578E+03  0.34296459578E+03  0.00000000000E+00 0. -1.
         21   -1    0    0  503  502  0.00000000000E+00 -0.00000000000E+00 -0.44677640246E+03  0.44677640246E+03  0.00000000000E+00 0. -1.
         21    1    1    2  503  501 -0.14407754044E+03  0.16723860246E+02 -0.14864229066E+03  0.20768378785E+03  0.00000000000E+00 0. -1.
         21    1    1    2  504  502 -0.20917325484E+02 -0.73700643053E+02 -0.56569220653E+02  0.95233376592E+02  0.00000000000E+00 0.  1.
         21    1    1    2  505  504  0.90040891886E+02  0.20756002097E+02 -0.17514282419E+03  0.19802318728E+03  0.00000000000E+00 0. -1.
          4    1    1    2  501    0  0.74953974041E+02  0.36220780710E+02  0.27654252883E+03  0.28880064652E+03  0.00000000000E+00 0. -1.
<scales pt_clust_3="14000.00000" pt_clust_4="76.61148" pt_clust_5="81.17548" pt_clust_6="84.59014"></scales>
<clustering>
<clus scale="   76.611">  2  4  1 -1</clus>
<clus scale="   81.175">  2  5  1 -1</clus>
<clus scale="   84.590">  1  6  2 -1</clus>
<clus scale="   76.611">  2  3  1 -1</clus>
</clustering>
</event>
<event>
 6    0  0.3584505E+002  0.1684521E+03  0.7546771E-02  0.1179472E+00
          2   -1    0    0  505    0 -0.00000000000E+00  0.00000000000E+00  0.95835509769E+03  0.95835509769E+03  0.00000000000E+00 0.  1.
         21   -1    0    0  503  502  0.00000000000E+00 -0.00000000000E+00 -0.47652870426E+02  0.47652870426E+02  0.00000000000E+00 0.  1.
         21    1    1    2  503  504 -0.10368939722E+02 -0.60204240262E+02  0.59953827125E+02  0.85595133293E+02  0.00000000000E+00 0.  1.
         21    1    1    2  504  501  0.44375677503E+02  0.24920174978E+02  0.12118308859E+03  0.13143651256E+03  0.00000000000E+00 0.  1.
         21    1    1    2  505  502 -0.15066035784E+03  0.42719108390E+02  0.24702778867E+03  0.29248280979E+03  0.00000000000E+00 0.  1.
          2    1    1    2  501    0  0.11665362006E+03 -0.74350431063E+01  0.48253752288E+03  0.49649351247E+03  0.00000000000E+00 0.  1.
<scales pt_clust_3="61.09063" pt_clust_4="39.48841" pt_clust_5="157.46345" pt_clust_6="39.48841"></scales>
<clustering>
<clus scale="   39.488">  4  6 -1 -1</clus>
<clus scale="   61.091">  2  3  1 -1</clus>
<clus scale="  157.463">  2  5  1 -1</clus>
<clus scale="   61.091">  2  3  1 -1</clus>
</clustering>
</event>
<event>
 6    0  0.3584505E+002  0.8490144E+02  0.7546771E-02  0.1315690E+00
         -1   -1    0    0    0  501 -0.00000000000E+00  0.00000000000E+00  0.14497676310E+03  0.14497676310E+03  0.00000000000E+00 0. -1.
         21   -1    0    0  505  502  0.00000000000E+00 -0.00000000000E+00 -0.46807954126E+03  0.46807954126E+03  0.00000000000E+00 0.  1.
         21    1    1    2  503  501 -0.55602890749E+02 -0.49426031744E+02 -0.54370517432E+02  0.92145359294E+02  0.00000000000E+00 0. -1.
         21    1    1    2  504  502 -0.23228463892E+02 -0.24463226415E+02 -0.31104886023E+03  0.31287282469E+03  0.00000000000E+00 0.  1.
         21    1    1    2  505  503 -0.13944035738E+02  0.76197041434E+02 -0.37103530648E+02  0.85890029936E+02  0.00000000000E+00 0.  1.
         -1    1    1    2    0  504  0.92775390379E+02 -0.23077832748E+01  0.79420130153E+02  0.12214809044E+03  0.00000000000E+00 0. -1.
<scales pt_clust_3="84.90144" pt_clust_4="33.73442" pt_clust_5="70.45325" pt_clust_6="14000.00000"></scales>
<clustering>
<clus scale="   33.734">  2  4  1 -1</clus>
<clus scale="   70.453">  2  5  1 -1</clus>
<clus scale="   84.901">  2  3  1 -1</clus>
<clus scale="   33.734">  2  3  1 -1</clus>
</clustering>
</event>
<event>
 6    0  0.3584505E+002  0.1113369E+03  0.7546771E-02  0.1258114E+00
          1   -1    0    0  503    0 -0.00000000000E+00  0.00000000000E+00  0.14766426468E+03  0.14766426468E+03  0.00000000000E+00 0.  1.
         21   -1    0    0  501  502  0.00000000000E+00 -0.00000000000E+00 -0.72793515710E+03  0.72793515710E+03  0.00000000000E+00 0.  1.
         21    1    1    2  503  505 -0.21064732946E+02 -0.40456766499E+02  0.40141687855E+02  0.60760415021E+02  0.00000000000E+00 0.  1.
         21    1    1    2  504  502  0.11230517490E+03  0.44168374532E+02 -0.58380568353E+03  0.59614794619E+03  0.00000000000E+00 0.  1.
         21    1    1    2  505  504 -0.63735706326E+02 -0.63667945658E+02 -0.94763063812E+02  0.13075123643E+03  0.00000000000E+00 0. -1.
          1    1    1    2  501    0 -0.27504735625E+02  0.59956337626E+02  0.58156167059E+02  0.87939824143E+02  0.00000000000E+00 0.  1.
<scales pt_clust_3="45.61220" pt_clust_4="14000.00000" pt_clust_5="111.33693" pt_clust_6="52.45323"></scales>
<clustering>
<clus scale="   45.612">  1  3  2 -1</clus>
<clus scale="   52.453">  1  6  2 -1</clus>
<clus scale="  111.337">  1  5  2 -1</clus>
<clus scale="  111.337">  2  3  1 -1</clus>
</clustering>
</event>
<event>
 6    0  0.3584505E+002  0.1042599E+03  0.7546771E-02  0.1271585E+00
         21   -1    0    0  505  502  0.00000000000E+00  0.00000000000E+00  0.42882337895E+03  0.42882337895E+03  0.00000000000E+00 0.  1.
          2   -1    0    0  504    0 -0.00000000000E+00 -0.00000000000E+00 -0.18785922737E+04  0.18785922737E+04  0.00000000000E+00 0.  1.
         21    1    1    2  503  501  0.47417868747E+02  0.79520549001E+02 -0.13263020059E+04  0.13295296096E+04  0.00000000000E+00 0. -1.
         21    1    1    2  504  502  0.21348480602E+02 -0.34947168312E+02  0.25425068600E+03  0.25752761703E+03  0.00000000000E+00 0.  1.
         21    1    1    2  505  503 -0.10041207988E+03 -0.33524103533E+02  0.15438952533E+03  0.18719662613E+03  0.00000000000E+00 0.  1.
          2    1    1    2  501    0  0.31645730528E+02 -0.11049277157E+02 -0.53210710014E+03  0.53316179984E+03  0.00000000000E+00 0.  1.
<scales pt_clust_3="104.25994" pt_clust_4="40.98352" pt_clust_5="14000.00000" pt_clust_6="33.51923"></scales>
<clustering>
<clus scale="   33.519">  2  6  1 -1</clus>
<clus scale="   40.984">  1  4  2 -1</clus>
<clus scale="  104.260">  2  3  1 -1</clus>
<clus scale="   40.984">  1  3  2 -1</clus>
</clustering>
</event>
<event>
 6    0  0.3584505E+002  0.9912447E+02  0.7546771E-02  0.1282148E+00
          2   -1    0    0  505    0 -0.00000000000E+00  0.00000000000E+00  0.24187058649E+04  0.24187058649E+04  0.00000000000E+00 0.  1.
         21   -1    0    0  503  502  0.00000000000E+00 -0.00000000000E+00 -0.57679360750E+02  0.57679360750E+02  0.00000000000E+00 0.  1.
         21    1    1    2  503  501 -0.12724809156E+03  0.65376134348E+02  0.10638195387E+04  0.10733956059E+04  0.00000000000E+00 0.  1.
         21    1    1    2  504  502  0.55649490864E+02 -0.74456363311E+01 -0.29318569022E+02  0.63339417611E+02  0.00000000000E+00 0.  1.
         21    1    1    2  505  504  0.47724375842E+02 -0.36963436515E+02  0.13710712831E+03  0.14980746417E+03  0.00000000000E+00 0. -1.
          2    1    1    2  501    0  0.23874224853E+02 -0.20967061502E+02  0.11894184061E+04  0.11898427380E+04  0.00000000000E+00 0.  1.
<scales pt_clust_3="14000.00000" pt_clust_4="56.51189" pt_clust_5="99.12447" pt_clust_6="31.77414"></scales>
<clustering>
<clus scale="   31.774">  1  6  2 -1</clus>
<clus scale="   56.512">  2  4  1 -1</clus>
<clus scale="   99.124">  2  5  1 -1</clus>
<clus scale="   56.512">  2  3  1 -1</clus>
</clustering>
</event>
<event>
 6    0  0.3584505E+002  0.1066575E+03  0.7546771E-02  0.1266888E+00
         21   -1    0    0  505  502  0.00000000000E+00  0.00000000000E+00  0.17491377908E+03  0.17491377908E+03  0.00000000000E+00 0. -1.
          2   -1    0    0  503    0 -0.00000000000E+00 -0.00000000000E+00 -0.80558204600E+03  0.80558204600E+03  0.00000000000E+00 0.  1.
         21    1    1    2  503  504  0.88882095749E+02 -0.50922940356E+02 -0.33378768952E+03  0.34915239434E+03  0.00000000000E+00 0.  1.
         21    1    1    2  504  502 -0.98871368829E+01  0.65627270993E+02  0.20766733538E+02  0.69541005138E+02  0.00000000000E+00 0. -1.
         21    1    1    2  505  501 -0.63547957545E+02  0.19292396477E+02  0.11217551575E+03  0.13036059912E+03  0.00000000000E+00 0. -1.
          2    1    1    2  501    0 -0.15447001321E+02 -0.33996727114E+02 -0.42982282669E+03  0.43144182649E+03  0.00000000000E+00 0.  1.
<scales pt_clust_3="14000.00000" pt_clust_4="64.34463" pt_clust_5="106.65753" pt_clust_6="37.34150"></scales>
<clustering>
<clus scale="   37.341">  2  6  1 -1</clus>
<clus scale="   64.345">  1  4  2 -1</clus>
<clus scale="  106.658">  1  5  2 -1</clus>
<clus scale="   64.345">  1  3  2 -1</clus>
</clustering>
</event>
<event>
 6    0  0.3584505E+002  0.7279408E+02  0.7546771E-02  0.1350841E+00
         -3   -1    0    0    0  501 -0.00000000000E+00  0.00000000000E+00  0.19451292717E+04  0.19451292717E+04  0.00000000000E+00 0. -1.
         21   -1    0    0  503  502  0.00000000000E+00 -0.00000000000E+00 -0.44171153703E+03  0.44171153703E+03  0.00000000000E+00 0. -1.
         21    1    1    2  503  504  0.37457750329E+02  0.10651593723E+03  0.11138289100E+03  0.15860288884E+03  0.00000000000E+00 0. -1.
         21    1    1    2  504  501 -0.17787841869E+02 -0.34751522426E+02  0.62663016345E+02  0.73829054218E+02  0.00000000000E+00 0. -1.
         21    1    1    2  505  502  0.22864186627E+02 -0.68683640953E+02 -0.40907926799E+03  0.41543478557E+03  0.00000000000E+00 0. -1.
         -3    1    1    2    0  505 -0.42534095086E+02 -0.30807738478E+01  0.17384510953E+04  0.17389740801E+04  0.00000000000E+00 0. -1.
<scales pt_clust_3="72.79408" pt_clust_4="39.03941" pt_clust_5="14000.00000" pt_clust_6="68.75117"></scales>
<clustering>
<clus scale="   39.039">  1  4  2 -1</clus>
<clus scale="   68.751">  1  6  2 -1</clus>
<clus scale="   72.794">  1  3  2 -1</clus>
<clus scale="   72.794">  2  3  1 -1</clus>
</clustering>
</event>
<event>
 6    0  0.3584505E+002  0.9829658E+02  0.7546771E-02  0.1283919E+00
         21   -1    0    0  503  502  0.00000000000E+00  0.00000000000E+00  0.91605936130E+03  0.91605936130E+03  0.00000000000E+00 0.  1.
          1   -1    0    0  502    0 -0.00000000000E+00 -0.00000000000E+00 -0.11705213928E+03  0.11705213928E+03  0.00000000000E+00 0. -1.
         21    1    1    2  503  504  0.10355155464E+03 -0.11505968628E+02  0.64631799541E+03  0.65466194557E+03  0.00000000000E+00 0.  1.
         21    1    1    2  504  505 -0.82974361099E+02  0.18541306030E+02  0.17730882005E+03  0.19663911691E+03  0.00000000000E+00 0.  1.
         21    1    1    2  505  501 -0.74201926145E+02 -0.38539956854E+02  0.39507149782E+02  0.92477397249E+02  0.00000000000E+00 0.  1.
          1    1    1    2  501    0  0.53624732606E+02  0.31504619452E+02 -0.64126743216E+02  0.89333040860E+02  0.00000000000E+00 0. -1.
<scales pt_clust_3="14000.00000" pt_clust_4="98.29658" pt_clust_5="42.87052" pt_clust_6="62.19448"></scales>
<clustering>
<clus scale="   62.194">  2  6  1 -1</clus>
<clus scale="   42.871">  2  5  1 -1</clus>
<clus scale="   98.297">  2  4  1 -1</clus>
<clus scale="   98.297">  1  3  2 -1</clus>
</clustering>
</event>
<event>
 6    0  0.3584505E+002  0.2508148E+03  0.7546771E-02  0.1112791E+00
         21   -1    0    0  505  502  0.00000000000E+00  0.00000000000E+00  0.16301612044E+04  0.16301612044E+04  0.00000000000E+00 0. -1.
          2   -1    0    0  503    0 -0.00000000000E+00 -0.00000000000E+00 -0.11772809546E+03  0.11772809546E+03  0.00000000000E+00 0. -1.
         21    1    1    2  503  502 -0.22892323397E+03 -0.58181512397E+02  0.14043082219E+04  0.14240338892E+04  0.00000000000E+00 0. -1.
         21    1    1    2  504  501  0.15010784580E+03  0.20827519788E+02  0.84330142853E+02  0.17342930532E+03  0.00000000000E+00 0. -1.
         21    1    1    2  505  504  0.37054937246E+02  0.65730563976E+02  0.52896754612E+02  0.92150106149E+02  0.00000000000E+00 0. -1.
          2    1    1    2  501    0  0.41760450927E+02 -0.28376571367E+02 -0.29102010479E+02  0.58275999160E+02  0.00000000000E+00 0. -1.
<scales pt_clust_3="231.79528" pt_clust_4="62.89067" pt_clust_5="62.89067" pt_clust_6="50.48926"></scales>
<clustering>
<clus scale="   50.489">  2  6  1 -1</clus>
<clus scale="   62.891">  4  5 -1 -1</clus>
<clus scale="  231.795">  1  3  2 -1</clus>
<clus scale="  231.795">  1  3  2 -1</clus>
</clustering>
</event>
<event>
 6    0  0.3584505E+002  0.9862610E+02  0.7546771E-02  0.1283212E+00
         21   -1    0    0  504  502  0.00000000000E+00  0.00000000000E+00  0.52758524492E+02  0.52758524492E+02  0.00000000000E+00 0.  1.
          1   -1    0    0  503    0 -0.00000000000E+00 -0.00000000000E+00 -0.14400420165E+04  0.14400420165E+04  0.00000000000E+00 0. -1.
         21    1    1    2  503  505  0.42036774576E+01  0.69061136968E+02 -0.43823196334E+03  0.44366019118E+03  0.00000000000E+00 0. -1.
         21    1    1    2  504  501 -0.60694641414E+02  0.28467431092E+02 -0.12067057471E+03  0.13804210130E+03  0.00000000000E+00 0. -1.
         21    1    1    2  505  502  0.98369948978E+02 -0.71134923121E+02 -0.50234086981E+02  0.13137841392E+03  0.00000000000E+00 0.  1.
          1    1    1    2  501    0 -0.41878985021E+02 -0.26393644940E+02 -0.77814686701E+03  0.77971983463E+03  0.00000000000E+00 0. -1.
<scales pt_clust_3="56.66470" pt_clust_4="14000.00000" pt_clust_5="98.62610" pt_clust_6="49.50226"></scales>
<clustering>
<clus scale="   49.502">  2  6  1 -1</clus>
<clus scale="   56.665">  2  3  1 -1</clus>
<clus scale="   98.626">  1  5  2 -1</clus>
<clus scale="   98.626">  1  3  2 -1</clus>
</clustering>
</event>
<event>
 6    0  0.3584505E+002  0.3715717E+03  0.7546771E-02  0.1054094E+00
          1   -1    0    0  504    0 -0.00000000000E+00  0.00000000000E+00  0.37913635652E+04  0.37913635652E+04  0.00000000000E+00 0.  1.
         21   -1    0    0  503  502  0.00000000000E+00 -0.00000000000E+00 -0.26761272919E+03  0.26761272919E+03  0.00000000000E+00 0.  1.
         21    1    1    2  503  501  0.38695402271E+00  0.33044151970E+02  0.29139997657E+02  0.44059110026E+02  0.00000000000E+00 0. -1.
         21    1    1    2  504  505  0.69208980482E+02  0.31961357656E+03 -0.12549885647E+03  0.35027515510E+03  0.00000000000E+00 0.  1.
         21    1    1    2  505  502  0.43693253546E+02  0.31846695805E+01  0.25508166047E+02  0.50694270493E+02  0.00000000000E+00 0. -1.
          1    1    1    2  501    0 -0.11328918805E+03 -0.35584239812E+03  0.35946015288E+04  0.36139477588E+04  0.00000000000E+00 0.  1.
<scales pt_clust_3="33.04642" pt_clust_4="14000.00000" pt_clust_5="43.97302" pt_clust_6="371.57167"></scales>
<clustering>
<clus scale="   33.046">  2  3  1 -1</clus>
<clus scale="   43.973">  2  5  1 -1</clus>
<clus scale="  371.572">  1  6  2 -1</clus>
<clus scale="   33.046">  2  3  1 -1</clus>
</clustering>
</event>
<event>
 6    0  0.3584505E+002  0.8270418E+02  0.7546771E-02  0.1321548E+00
          2   -1    0    0  505    0 -0.00000000000E+00  0.00000000000E+00  0.17944357006E+03  0.17944357006E+03  0.00000000000E+00 0.  1.
         21   -1    0    0  503  502  0.00000000000E+00 -0.00000000000E+00 -0.74354669511E+03  0.74354669511E+03  0.00000000000E+00 0.  1.
         21    1    1    2  503  504 -0.27681971768E+02 -0.41185640381E+02 -0.42502483180E+03  0.42791197247E+03  0.00000000000E+00 0.  1.
         21    1    1    2  504  501 -0.52681355573E+01  0.87228942750E+02 -0.22918097027E+03  0.24527649467E+03  0.00000000000E+00 0.  1.
         21    1    1    2  505  502 -0.42834942830E+02 -0.87732345945E+01 -0.61975626711E+02  0.75847084840E+02  0.00000000000E+00 0.  1.
          2    1    1    2  501    0  0.75785050155E+02 -0.37270067775E+02  0.15207830373E+03  0.17395471320E+03  0.00000000000E+00 0.  1.
<scales pt_clust_3="71.98954" pt_clust_4="82.70418" pt_clust_5="43.72416" pt_clust_6="14000.00000"></scales>
<clustering>
<clus scale="   43.724">  2  5  1 -1</clus>
<clus scale="   71.990">  2  3  1 -1</clus>
<clus scale="   82.704">  2  4  1 -1</clus>
<clus scale="   43.724">  2  3  1 -1</clus>
</clustering>
</event>
<event>
 6    0  0.3584505E+002  0.1821466E+03  0.7546771E-02  0.1165742E+00
          1   -1    0    0  503    0 -0.00000000000E+00  0.00000000000E+00  0.18299148187E+04  0.18299148187E+04  0.00000000000E+00 0. -1.
         21   -1    0    0  504  502  0.00000000000E+00 -0.00000000000E+00 -0.79077725785E+02  0.79077725785E+02  0.00000000000E+00 0. -1.
         21    1    1    2  503  505 -0.31214108303E+02  0.13466020873E+03  0.33970012559E+02  0.14234343724E+03  0.00000000000E+00 0. -1.
         21    1    1    2  504  501 -0.12782073450E+02 -0.11488449826E+03  0.93940622231E+03  0.94649135223E+03  0.00000000000E+00 0. -1.
         21    1    1    2  505  502  0.25433352771E+02  0.35181483993E+02  0.29869524493E+01  0.43514527851E+02  0.00000000000E+00 0. -1.
          1    1    1    2  501    0  0.18562828981E+02 -0.54957194466E+02  0.77447390564E+03  0.77664322720E+03  0.00000000000E+00 0. -1.
<scales pt_clust_3="36.73861" pt_clust_4="38.33242" pt_clust_5="36.73861" pt_clust_6="178.34709"></scales>
<clustering>
<clus scale="   36.739">  3  5 -1 -1</clus>
<clus scale="   38.332">  4  6 -1 -1</clus>
<clus scale="  178.347">  1  4  2 -1</clus>
<clus scale="  182.147">  2  3  1 -1</clus>
</clustering>
</event>
<event>
 6    0  0.3584505E+002  0.2836094E+03  0.7546771E-02  0.1093734E+00
          1   -1    0    0  503    0 -0.00000000000E+00  0.00000000000E+00  0.45880589851E+04  0.45880589851E+04  0.00000000000E+00 0.  1.
         21   -1    0    0  504  502  0.00000000000E+00 -0.00000000000E+00 -0.18578445896E+03  0.18578445896E+03  0.00000000000E+00 0.  1.
         21    1    1    2  503  502 -0.23751246462E+02 -0.98050339950E+02 -0.12714206665E+03  0.16230556363E+03  0.00000000000E+00 0.  1.
         21    1    1    2  504  505 -0.20944552543E+03  0.19907384951E+03  0.10490129712E+04  0.10880836546E+04  0.00000000000E+00 0. -1.
         21    1    1    2  505  501  0.23234462225E+03 -0.15807176551E+03  0.90966422836E+03  0.95208177952E+03  0.00000000000E+00 0.  1.
          1    1    1    2  501    0  0.85214964815E+00  0.57048255947E+02  0.25707393932E+04  0.25713724463E+04  0.00000000000E+00 0.  1.
<scales pt_clust_3="100.40104" pt_clust_4="283.60935" pt_clust_5="14000.00000" pt_clust_6="57.05462"></scales>
<clustering>
<clus scale="   57.055">  1  6  2 -1</clus>
<clus scale="  100.401">  2  3  1 -1</clus>
<clus scale="  283.609">  2  4  1 -1</clus>
<clus scale="  100.401">  2  3  1 -1</clus>
</clustering>
</event>
<event>
 6    0  0.3584505E+002  0.1801958E+03  0.7546771E-02  0.1167614E+00
          2   -1    0    0  504    0 -0.00000000000E+00  0.00000000000E+00  0.28340305245E+04  0.28340305245E+04  0.00000000000E+00 0.  1.
         21   -1    0    0  503  502  0.00000000000E+00 -0.00000000000E+00 -0.21343460375E+03  0.21343460375E+03  0.00000000000E+00 0.  1.
         21    1    1    2  503  505 -0.24504505430E+01  0.46135718676E+02  0.31472043748E+02  0.55901688555E+02  0.00000000000E+00 0.  1.
         21    1    1    2  504  502  0.63842114356E+02 -0.15877383718E+03 -0.14114624686E+03  0.22182698199E+03  0.00000000000E+00 0.  1.
         21    1    1    2  505  501  0.12903174143E+03  0.61422565473E+02  0.30894689406E+03  0.34039698176E+03  0.00000000000E+00 0.  1.
          2    1    1    2  501    0 -0.19042340524E+03  0.51215553033E+02  0.24213232298E+04  0.24293394759E+04  0.00000000000E+00 0.  1.
<scales pt_clust_3="46.20075" pt_clust_4="132.38414" pt_clust_5="180.19580" pt_clust_6="14000.00000"></scales>
<clustering>
<clus scale="   46.201">  2  3  1 -1</clus>
<clus scale="  132.384">  2  4  1 -1</clus>
<clus scale="  180.196">  2  5  1 -1</clus>
<clus scale="   46.201">  2  3  1 -1</clus>
</clustering>
</event>
<event>
 6    0  0.3584505E+002  0.1659612E+03  0.7546771E-02  0.1182126E+00
         21   -1    0    0  505  502  0.00000000000E+00  0.00000000000E+00  0.17876616317E+03  0.17876616317E+03  0.00000000000E+00 0.  1.
         -1   -1    0    0    0  501 -0.00000000000E+00 -0.00000000000E+00 -0.14207853888E+03  0.14207853888E+03  0.00000000000E+00 0.  1.
         21    1    1    2  503  504  0.48226879645E+02 -0.51402296063E+02  0.89767937403E+01  0.71053576875E+02  0.00000000000E+00 0.  1.
         21    1    1    2  504  502  0.15465909410E+02 -0.55225647903E+02 -0.19924912970E+02  0.60713002701E+02  0.00000000000E+00 0.  1.
         21    1    1    2  505  501 -0.97426876935E+02  0.10309768953E+03  0.58534688613E+02  0.15345175042E+03  0.00000000000E+00 0.  1.
         -1    1    1    2    0  503  0.33734087880E+02  0.35302544359E+01 -0.10898945089E+02  0.35626372051E+02  0.00000000000E+00 0.  1.
<scales pt_clust_3="33.75389" pt_clust_4="46.50623" pt_clust_5="141.84897" pt_clust_6="46.50623"></scales>
<clustering>
<clus scale="   33.754">  3  6 -1 -1</clus>
<clus scale="   46.506">  3  4 -1 -1</clus>
<clus scale="  141.849">  1  5  2 -1</clus>
<clus scale="  141.849">  1  3  2 -1</clus>
</clustering>
</event>
<event>
 6    0  0.5261149E+002  0.9882219E+02  0.7546771E-02  0.1282792E+00
          2   -1    0    0  504    0 -0.00000000000E+00  0.00000000000E+00  0.14081380420E+04  0.14081380420E+04  0.00000000000E+00 0.  1.
         21   -1    0    0  503  502  0.00000000000E+00 -0.00000000000E+00 -0.39323972013E+03  0.39323972013E+03  0.00000000000E+00 0. -1.
         21    1    1    2  503  505  0.17022570099E+02  0.29730677439E+02 -0.16384100590E+02  0.37975252809E+02  0.00000000000E+00 0. -1.
         21    1    1    2  504  502  0.24067197809E+02  0.62368904459E+02 -0.33129825067E+03  0.33797579965E+03  0.00000000000E+00 0. -1.
         21    1    1    2  505  501 -0.69579252823E+01 -0.11220623845E+03  0.70413812159E+02  0.13265277085E+03  0.00000000000E+00 0. -1.
          2    1    1    2  501    0 -0.34131842626E+02  0.20106656553E+02  0.12921668610E+04  0.12927739388E+04  0.00000000000E+00 0.  1.
<scales pt_clust_3="34.25903" pt_clust_4="98.82219" pt_clust_5="14000.00000" pt_clust_6="39.61425"></scales>
<clustering>
<clus scale="   34.259">  2  3  1 -1</clus>
<clus scale="   39.614">  1  6  2 -1</clus>
<clus scale="   98.822">  2  4  1 -1</clus>
<clus scale="   34.259">  2  3  1 -1</clus>
</clustering>
</event>
<event>
 6    0  0.3584505E+002  0.7601683E+02  0.7546771E-02  0.1340751E+00
         21   -1    0    0  505  502  0.00000000000E+00  0.00000000000E+00  0.21374826373E+02  0.21374826373E+02  0.00000000000E+00 0. -1.
          1   -1    0    0  504    0 -0.00000000000E+00 -0.00000000000E+00 -0.21110365656E+04  0.21110365656E+04  0.00000000000E+00 0.  1.
         21    1    1    2  503  502 -0.40583894478E+02  0.71636996643E+02 -0.17878947749E+03  0.19683645252E+03  0.00000000000E+00 0. -1.
         21    1    1    2  504  503 -0.43728964788E+02 -0.75605973135E+02 -0.13092655977E+04  0.13121756326E+04  0.00000000000E+00 0.  1.
         21    1    1    2  505  501  0.38859988821E+02  0.57252091646E+01 -0.28596069411E+02  0.48586129059E+02  0.00000000000E+00 0. -1.
          1    1    1    2  501    0  0.45452870444E+02 -0.17562326721E+01 -0.57301059465E+03  0.57481317779E+03  0.00000000000E+00 0.  1.
<scales pt_clust_3="76.01683" pt_clust_4="14000.00000" pt_clust_5="39.27947" pt_clust_6="48.54810"></scales>
<clustering>
<clus scale="   39.279">  1  5  2 -1</clus>
<clus scale="   48.548">  2  6  1 -1</clus>
<clus scale="   76.017">  1  3  2 -1</clus>
<clus scale="   39.279">  1  3  2 -1</clus>
</clustering>
</event>
<event>
 6    0  0.3584505E+002  0.2756132E+03  0.7546771E-02  0.1098109E+00
         21   -1    0    0  503  502  0.00000000000E+00  0.00000000000E+00  0.56574080574E+03  0.56574080574E+03  0.00000000000E+00 0. -1.
          2   -1    0    0  504    0 -0.00000000000E+00 -0.00000000000E+00 -0.85444108536E+03  0.85444108536E+03  0.00000000000E+00 0. -1.
         21    1    1    2  503  505  0.16910846905E+02 -0.88367660847E+02  0.18818676956E+03  0.20858830376E+03  0.00000000000E+00 0. -1.
         21    1    1    2  504  502  0.83088354745E+02  0.20955964430E+03 -0.31950885960E+03  0.39103047269E+03  0.00000000000E+00 0. -1.
         21    1    1    2  505  501 -0.13559678639E+03 -0.12744424685E+03  0.30472341488E+03  0.35705025432E+03  0.00000000000E+00 0. -1.
          2    1    1    2  501    0  0.35597584743E+02  0.62522633966E+01 -0.46210160447E+03  0.46351286033E+03  0.00000000000E+00 0. -1.
<scales pt_clust_3="89.33771" pt_clust_4="244.20735" pt_clust_5="89.33771" pt_clust_6="36.14248"></scales>
<clustering>
<clus scale="   36.142">  2  6  1 -1</clus>
<clus scale="   89.338">  3  5 -1 -1</clus>
<clus scale="  244.207">  2  4  1 -1</clus>
<clus scale="  275.613">  1  3  2 -1</clus>
</clustering>
</event>
<event>
 6    0  0.3584505E+002  0.8412033E+02  0.7546771E-02  0.1317749E+00
         21   -1    0    0  505  502  0.00000000000E+00  0.00000000000E+00  0.85925079547E+03  0.85925079547E+03  0.00000000000E+00 0.  1.
         -1   -1    0    0    0  501 -0.00000000000E+00 -0.00000000000E+00 -0.20041156635E+03  0.20041156635E+03  0.00000000000E+00 0. -1.
         21    1    1    2  503  501  0.11615683690E+02  0.10118032186E+03  0.21554669860E+02  0.10410084261E+03  0.00000000000E+00 0.  1.
         21    1    1    2  504  503 -0.10233548086E+03 -0.21177266993E+02  0.83555170916E+02  0.13380020130E+03  0.00000000000E+00 0.  1.
         21    1    1    2  505  504  0.32859237135E+02 -0.30448178528E+02  0.67611772422E+03  0.67760017566E+03  0.00000000000E+00 0.  1.
         -1    1    1    2    0  502  0.57860560034E+02 -0.49554876337E+02 -0.12238833588E+03  0.14416114226E+03  0.00000000000E+00 0. -1.
<scales pt_clust_3="84.12033" pt_clust_4="14000.00000" pt_clust_5="44.79756" pt_clust_6="78.85276"></scales>
<clustering>
<clus scale="   44.798">  1  5  2 -1</clus>
<clus scale="   78.853">  2  6  1 -1</clus>
<clus scale="   84.120">  2  3  1 -1</clus>
<clus scale="   44.798">  1  3  2 -1</clus>
</clustering>
</event>
<event>
 6    0  0.3584505E+002  0.7925180E+02  0.7546771E-02  0.1331188E+00
          2   -1    0    0  503    0 -0.00000000000E+00  0.00000000000E+00  0.78373342857E+03  0.78373342857E+03  0.00000000000E+00 0.  1.
         21   -1    0    0  504  502  0.00000000000E+00 -0.00000000000E+00 -0.48798272741E+02  0.48798272741E+02  0.00000000000E+00 0.  1.
         21    1    1    2  503  502 -0.12587308453E+02  0.73296478858E+02  0.13742864298E+03  0.15626082702E+03  0.00000000000E+00 0. -1.
         21    1    1    2  504  505  0.65562772007E+02 -0.57956033505E+02  0.46175173199E+02  0.98942031073E+02  0.00000000000E+00 0.  1.
         21    1    1    2  505  501 -0.28698129773E+02 -0.50458748995E+02  0.57673983637E+02  0.81828823719E+02  0.00000000000E+00 0.  1.
          2    1    1    2  501    0 -0.24277333782E+02  0.35118303642E+02  0.49365735601E+03  0.49550001950E+03  0.00000000000E+00 0.  1.
<scales pt_clust_3="79.25180" pt_clust_4="14000.00000" pt_clust_5="54.37780" pt_clust_6="42.69291"></scales>
<clustering>
<clus scale="   42.693">  1  6  2 -1</clus>
<clus scale="   54.378">  1  5  2 -1</clus>
<clus scale="   79.252">  1  3  2 -1</clus>
<clus scale="   79.252">  2  3  1 -1</clus>
</clustering>
</event>
<event>
 6    0  0.3584505E+002  0.3205144E+03  0.7546771E-02  0.1075413E+00
          2   -1    0    0  505    0 -0.00000000000E+00  0.00000000000E+00  0.12031248033E+04  0.12031248033E+04  0.00000000000E+00 0.  1.
         21   -1    0    0  503  502  0.00000000000E+00 -0.00000000000E+00 -0.12904635626E+04  0.12904635626E+04  0.00000000000E+00 0. -1.
         21    1    1    2  503  501  0.69823787638E+02 -0.20580615539E+03 -0.14622886648E+03  0.26194353649E+03  0.00000000000E+00 0.  1.
         21    1    1    2  504  502  0.32508946504E+02  0.30753158024E+02 -0.90863496409E+03  0.90973627294E+03  0.00000000000E+00 0. -1.
         21    1    1    2  505  504 -0.28917062923E+03 -0.10067880093E+03  0.80882577133E+01  0.30630261781E+03  0.00000000000E+00 0.  1.
          2    1    1    2  501    0  0.18683789509E+03  0.27573179829E+03  0.95943681351E+03  0.10156059387E+04  0.00000000000E+00 0.  1.
<scales pt_clust_3="208.46985" pt_clust_4="44.75029" pt_clust_5="14000.00000" pt_clust_6="320.51442"></scales>
<clustering>
<clus scale="   44.750">  2  4  1 -1</clus>
<clus scale="  208.470">  2  3  1 -1</clus>
<clus scale="  320.514">  1  6  2 -1</clus>
<clus scale="   44.750">  2  3  1 -1</clus>
</clustering>
</event>
<event>
 6    0  0.3584505E+002  0.7517424E+02  0.7546771E-02  0.1343332E+00
         21   -1    0    0  503  502  0.00000000000E+00  0.00000000000E+00  0.82253664915E+03  0.82253664915E+03  0.00000000000E+00 0. -1.
          2   -1    0    0  505    0 -0.00000000000E+00 -0.00000000000E+00 -0.24722165596E+04  0.24722165596E+04  0.00000000000E+00 0.  1.
         21    1    1    2  503  504 -0.41313273599E+02 -0.45301698036E+01  0.41917272790E+03  0.42122806747E+03  0.00000000000E+00 0. -1.
         21    1    1    2  504  501  0.51775491040E+02 -0.19688544982E+02  0.10559698910E+03  0.11924371843E+03  0.00000000000E+00 0. -1.
         21    1    1    2  505  502  0.22735027067E+02  0.91628009307E+02  0.28164058757E+03  0.29704207465E+03  0.00000000000E+00 0. -1.
          2    1    1    2  501    0 -0.33197244509E+02 -0.67409294521E+02 -0.24560902150E+04  0.24572393482E+04  0.00000000000E+00 0.  1.
<scales pt_clust_3="41.56091" pt_clust_4="45.36167" pt_clust_5="14000.00000" pt_clust_6="75.17424"></scales>
<clustering>
<clus scale="   41.561">  1  3  2 -1</clus>
<clus scale="   45.362">  1  4  2 -1</clus>
<clus scale="   75.174">  2  6  1 -1</clus>
<clus scale="   41.561">  1  3  2 -1</clus>
</clustering>
</event>
<event>
 6    0  0.3584505E+002  0.9967854E+02  0.7546771E-02  0.1280973E+00
         21   -1    0    0  503  502  0.00000000000E+00  0.00000000000E+00  0.14290110881E+04  0.14290110881E+04  0.00000000000E+00 0. -1.
          1   -1    0    0  505    0 -0.00000000000E+00 -0.00000000000E+00 -0.67832103213E+03  0.67832103213E+03  0.00000000000E+00 0.  1.
         21    1    1    2  503  504  0.10039112673E+03  0.93287585199E+01  0.14039336937E+04  0.14075493669E+04  0.00000000000E+00 0. -1.
         21    1    1    2  504  501 -0.56742491623E+02  0.13110731194E+02 -0.57909107670E+02  0.82128353077E+02  0.00000000000E+00 0.  1.
         21    1    1    2  505  502 -0.17072232297E+02 -0.65696566799E+02 -0.10717553784E+03  0.12686250792E+03  0.00000000000E+00 0.  1.
          1    1    1    2  501    0 -0.26576402808E+02  0.43257077085E+02 -0.48815899220E+03  0.49079189232E+03  0.00000000000E+00 0.  1.
<scales pt_clust_3="14000.00000" pt_clust_4="99.67854" pt_clust_5="51.35715" pt_clust_6="50.76889"></scales>
<clustering>
<clus scale="   50.769">  2  6  1 -1</clus>
<clus scale="   51.357">  2  5  1 -1</clus>
<clus scale="   99.679">  2  4  1 -1</clus>
<clus scale="   99.679">  1  3  2 -1</clus>
</clustering>
</event>
<event>
 6    0  0.3584505E+002  0.7412443E+02  0.7546771E-02  0.1346604E+00
          2   -1    0    0  505    0 -0.00000000000E+00  0.00000000000E+00  0.32698674843E+04  0.32698674843E+04  0.00000000000E+00 0.  1.
         21   -1    0    0  503  502  0.00000000000E+00 -0.00000000000E+00 -0.59752289765E+02  0.59752289765E+02  0.00000000000E+00 0. -1.
         21    1    1    2  503  504  0.26075344191E+02 -0.51539233765E+02  0.41214823946E+02  0.70956873555E+02  0.00000000000E+00 0.  1.
         21    1    1    2  504  501  0.48611384604E+02  0.37910333464E+02 -0.87866169179E+01  0.62269292058E+02  0.00000000000E+00 0. -1.
         21    1    1    2  505  502 -0.90087376184E+02 -0.25386265038E+02  0.22873693151E+03  0.24714526424E+03  0.00000000000E+00 0. -1.
          2    1    1    2  501    0  0.15400647389E+02  0.39015165339E+02  0.29489500559E+04  0.29492483442E+04  0.00000000000E+00 0.  1.
<scales pt_clust_3="53.17198" pt_clust_4="14000.00000" pt_clust_5="74.12443" pt_clust_6="41.94476"></scales>
<clustering>
<clus scale="   41.945">  1  6  2 -1</clus>
<clus scale="   53.172">  2  3  1 -1</clus>
<clus scale="   74.124">  1  5  2 -1</clus>
<clus scale="   53.172">  2  3  1 -1</clus>
</clustering>
</event>
<event>
 6    0  0.3584505E+002  0.1137646E+03  0.7546771E-02  0.1253753E+00
         -3   -1    0    0    0  501 -0.00000000000E+00  0.00000000000E+00  0.12960463325E+03  0.12960463325E+03  0.00000000000E+00 0. -1.
         21   -1    0    0  504  502  0.00000000000E+00 -0.00000000000E+00 -0.64131704469E+03  0.64131704469E+03  0.00000000000E+00 0. -1.
         21    1    1    2  503  501 -0.35089152252E+02  0.30224742268E+02  0.51024390339E+02  0.68907706828E+02  0.00000000000E+00 0. -1.
         21    1    1    2  504  505  0.69316626648E+02  0.10037580421E+03 -0.52229864993E+03  0.53635433858E+03  0.00000000000E+00 0. -1.
         21    1    1    2  505  503 -0.20349881756E+02 -0.89756512108E+02 -0.68033965829E+02  0.11445073027E+03  0.00000000000E+00 0. -1.
         -3    1    1    2    0  502 -0.13877592640E+02 -0.40844034373E+02  0.27595813971E+02  0.51208902254E+02  0.00000000000E+00 0. -1.
<scales pt_clust_3="44.42125" pt_clust_4="113.76457" pt_clust_5="14000.00000" pt_clust_6="43.13725"></scales>
<clustering>
<clus scale="   43.137">  1  6  2 -1</clus>
<clus scale="   44.421">  1  3  2 -1</clus>
<clus scale="  113.765">  2  4  1 -1</clus>
<clus scale="  113.765">  2  3  1 -1</clus>
</clustering>
</event>
<event>
 6    0  0.3584505E+002  0.1267715E+03  0.7546771E-02  0.1232326E+00
         21   -1    0    0  504  502  0.00000000000E+00  0.00000000000E+00  0.24770361125E+03  0.24770361125E+03  0.00000000000E+00 0.  1.
          2   -1    0    0  505    0 -0.00000000000E+00 -0.00000000000E+00 -0.55260622906E+03  0.55260622906E+03  0.00000000000E+00 0.  1.
         21    1    1    2  503  502 -0.14922660195E+03 -0.22764481019E+02  0.11163175484E+03  0.18774570305E+03  0.00000000000E+00 0.  1.
         21    1    1    2  504  501  0.40791535799E+02 -0.34231884508E+02  0.49750185329E+02  0.72875594338E+02  0.00000000000E+00 0.  1.
         21    1    1    2  505  503  0.13954812147E+03 -0.27991158625E+02 -0.13465583748E+03  0.19593207429E+03  0.00000000000E+00 0.  1.
          2    1    1    2  501    0 -0.31113055321E+02  0.84987524152E+02 -0.33162872049E+03  0.34375646864E+03  0.00000000000E+00 0.  1.
<scales pt_clust_3="14000.00000" pt_clust_4="53.25196" pt_clust_5="126.77152" pt_clust_6="89.00577"></scales>
<clustering>
<clus scale="   53.252">  1  4  2 -1</clus>
<clus scale="   89.006">  2  6  1 -1</clus>
<clus scale="  126.772">  2  5  1 -1</clus>
<clus scale="   53.252">  1  3  2 -1</clus>
</clustering>
</event>
<event>
 6    0  0.3584505E+002  0.1268837E+03  0.7546771E-02  0.1232154E+00
         21   -1    0    0  501  502  0.00000000000E+00  0.00000000000E+00  0.32759578010E+03  0.32759578010E+03  0.00000000000E+00 0. -1.
          4   -1    0    0  505    0 -0.00000000000E+00 -0.00000000000E+00 -0.69772790423E+02  0.69772790423E+02  0.00000000000E+00 0. -1.
         21    1    1    2  503  504 -0.23192579888E+02  0.44292254511E+02  0.69996962002E+02  0.86019034295E+02  0.00000000000E+00 0.  1.
         21    1    1    2  504  502  0.94991896898E+01  0.87849769808E+02  0.74679214657E+02  0.11569270401E+03  0.00000000000E+00 0. -1.
         21    1    1    2  505  503 -0.34352703326E+02 -0.34385353235E+02  0.20859324498E+02  0.52892080328E+02  0.00000000000E+00 0.  1.
          4    1    1    2  501    0  0.48046093524E+02 -0.97756671084E+02  0.92287488522E+02  0.14276475189E+03  0.00000000000E+00 0. -1.
<scales pt_clust_3="34.53136" pt_clust_4="34.53136" pt_clust_5="48.60515" pt_clust_6="118.28809"></scales>
<clustering>
<clus scale="   34.531">  3  4 -1 -1</clus>
<clus scale="   48.605">  2  5  1 -1</clus>
<clus scale="  118.288">  1  6  2 -1</clus>
<clus scale="  118.288">  1  3  2 -1</clus>
</clustering>
</event>
<event>
 6    0  0.3584505E+002  0.1310768E+03  0.7546771E-02  0.1225867E+00
          1   -1    0    0  504    0 -0.00000000000E+00  0.00000000000E+00  0.26925855907E+04  0.26925855907E+04  0.00000000000E+00 0. -1.
         21   -1    0    0  503  502  0.00000000000E+00 -0.00000000000E+00 -0.65197000726E+03  0.65197000726E+03  0.00000000000E+00 0.  1.
         21    1    1    2  503  501  0.41310164775E+02  0.57320645553E+02  0.12024921562E+03  0.13947064199E+03  0.00000000000E+00 0.  1.
         21    1    1    2  504  505 -0.14348783216E+03  0.22289298204E+02  0.11315005454E+03  0.18408830934E+03  0.00000000000E+00 0.  1.
         21    1    1    2  505  502  0.76804760061E+02 -0.10788029378E+03 -0.59951432217E+03  0.61396624618E+03  0.00000000000E+00 0.  1.
          1    1    1    2  501    0  0.25372907326E+02  0.28270350021E+02  0.24067306355E+04  0.24070304005E+04  0.00000000000E+00 0. -1.
<scales pt_clust_3="87.84200" pt_clust_4="131.07677" pt_clust_5="14000.00000" pt_clust_6="37.98680"></scales>
<clustering>
<clus scale="   37.987">  1  6  2 -1</clus>
<clus scale="   87.842">  1  3  2 -1</clus>
<clus scale="  131.077">  1  4  2 -1</clus>
<clus scale="  131.077">  2  3  1 -1</clus>
</clustering>
</event>
<event>
 6    0  0.3584505E+002  0.1730890E+03  0.7546771E-02  0.1174664E+00
         21   -1    0    0  504  502  0.00000000000E+00  0.00000000000E+00  0.31461023910E+03  0.31461023910E+03  0.00000000000E+00 0.  1.
         -1   -1    0    0    0  501 -0.00000000000E+00 -0.00000000000E+00 -0.61468485982E+03  0.61468485982E+03  0.00000000000E+00 0.  1.
         21    1    1    2  503  502 -0.15207407490E+03 -0.15920708132E+03 -0.71709651101E+02  0.23155062742E+03  0.00000000000E+00 0.  1.
         21    1    1    2  504  505 -0.38012671820E+02 -0.35016273450E+02  0.15300463675E+03  0.16149774454E+03  0.00000000000E+00 0.  1.
         21    1    1    2  505  501  0.36751028957E+02  0.13120321074E+03 -0.18761481224E+02  0.13753877204E+03  0.00000000000E+00 0.  1.
         -1    1    1    2    0  503  0.15333571776E+03  0.63020144027E+02 -0.36260812514E+03  0.39870795491E+03  0.00000000000E+00 0.  1.
<scales pt_clust_3="14000.00000" pt_clust_4="51.68271" pt_clust_5="120.09615" pt_clust_6="173.08899"></scales>
<clustering>
<clus scale="   51.683">  1  4  2 -1</clus>
<clus scale="  120.096">  1  5  2 -1</clus>
<clus scale="  173.089">  2  6  1 -1</clus>
<clus scale="   51.683">  1  3  2 -1</clus>
</clustering>
</event>
<event>
 6    0  0.3584505E+002  0.9393640E+02  0.7546771E-02  0.1293590E+00
         21   -1    0    0  503  502  0.00000000000E+00  0.00000000000E+00  0.19608596119E+03  0.19608596119E+03  0.00000000000E+00 0. -1.
          1   -1    0    0  505    0 -0.00000000000E+00 -0.00000000000E+00 -0.27187018711E+03  0.27187018711E+03  0.00000000000E+00 0. -1.
         21    1    1    2  503  501 -0.42718788996E+01 -0.56266115622E+02  0.17775540988E+02  0.59161597121E+02  0.00000000000E+00 0. -1.
         21    1    1    2  504  502  0.65560609563E+02 -0.17800421213E+02  0.12669343819E+03  0.14375769823E+03  0.00000000000E+00 0. -1.
         21    1    1    2  505  504 -0.91583110084E+02  0.68460615965E+02 -0.15248119430E+03  0.19059075688E+03  0.00000000000E+00 0. -1.
          1    1    1    2  501    0  0.30294379420E+02  0.56059208700E+01 -0.67772010790E+02  0.74446096068E+02  0.00000000000E+00 0. -1.
<scales pt_clust_3="55.70016" pt_clust_4="14000.00000" pt_clust_5="93.93640" pt_clust_6="30.80870"></scales>
<clustering>
<clus scale="   30.809">  2  6  1 -1</clus>
<clus scale="   55.700">  1  3  2 -1</clus>
<clus scale="   93.936">  2  5  1 -1</clus>
<clus scale="   55.700">  1  3  2 -1</clus>
</clustering>
</event>
<event>
 6    0  0.3584505E+002  0.8072368E+02  0.7546771E-02  0.1327010E+00
         21   -1    0    0  503  502  0.00000000000E+00  0.00000000000E+00  0.10828569366E+03  0.10828569366E+03  0.00000000000E+00 0.  1.
          2   -1    0    0  504    0 -0.00000000000E+00 -0.00000000000E+00 -0.50802833391E+03  0.50802833391E+03  0.00000000000E+00 0.  1.
         21    1    1    2  503  501 -0.53583970762E+01  0.63484537569E+02 -0.30852877935E+02  0.70787703780E+02  0.00000000000E+00 0. -1.
         21    1    1    2  504  505 -0.85188779871E+02 -0.89061984391E+02 -0.48994448311E+02  0.13262586944E+03  0.00000000000E+00 0.  1.
         21    1    1    2  505  502  0.40720160534E+02  0.33016523355E+01  0.35022283048E+02  0.53810711684E+02  0.00000000000E+00 0.  1.
          2    1    1    2  501    0  0.49827016414E+02  0.22275794487E+02 -0.35491759706E+03  0.35908974266E+03  0.00000000000E+00 0.  1.
<scales pt_clust_3="80.72368" pt_clust_4="14000.00000" pt_clust_5="40.85379" pt_clust_6="55.83965"></scales>
<clustering>
<clus scale="   40.854">  1  5  2 -1</clus>
<clus scale="   55.840">  2  6  1 -1</clus>
<clus scale="   80.724">  1  3  2 -1</clus>
<clus scale="   40.854">  1  3  2 -1</clus>
</clustering>
</event>
<event>
 6    0  0.3584505E+002  0.8404374E+02  0.7546771E-02  0.1317952E+00
         21   -1    0    0  503  502  0.00000000000E+00  0.00000000000E+00  0.57159941136E+03  0.57159941136E+03  0.00000000000E+00 0.  1.
          2   -1    0    0  505    0 -0.00000000000E+00 -0.00000000000E+00 -0.15678433202E+04  0.15678433202E+04  0.00000000000E+00 0.  1.
         21    1    1    2  503  501  0.35592914192E+02 -0.87977840029E+02 -0.10641351137E+03  0.14258608375E+03  0.00000000000E+00 0. -1.
         21    1    1    2  504  502 -0.25924016512E+02  0.79651154469E+02  0.53192285633E+03  0.53847774896E+03  0.00000000000E+00 0.  1.
         21    1    1    2  505  504  0.89360285453E+01  0.42967446248E+02 -0.86530700290E+01  0.44731752304E+02  0.00000000000E+00 0.  1.
          2    1    1    2  501    0 -0.18604926225E+02 -0.34640760689E+02 -0.14131001837E+04  0.14136471465E+04  0.00000000000E+00 0.  1.
<scales pt_clust_3="84.04374" pt_clust_4="14000.00000" pt_clust_5="37.42142" pt_clust_6="39.32080"></scales>
<clustering>
<clus scale="   39.321">  2  6  1 -1</clus>
<clus scale="   37.421">  2  5  1 -1</clus>
<clus scale="   84.044">  2  3  1 -1</clus>
<clus scale="   84.044">  1  3  2 -1</clus>
</clustering>
</event>
<event>
 6    0  0.3584505E+002  0.1096459E+03  0.7546771E-02  0.1261227E+00
          1   -1    0    0  503    0 -0.00000000000E+00  0.00000000000E+00  0.33564490117E+04  0.33564490117E+04  0.00000000000E+00 0. -1.
         21   -1    0    0  505  502  0.00000000000E+00 -0.00000000000E+00 -0.77347249454E+02  0.77347249454E+02  0.00000000000E+00 0.  1.
         21    1    1    2  503  504 -0.79802031662E+02 -0.15983829439E+02  0.35396093630E+03  0.36319717990E+03  0.00000000000E+00 0. -1.
         21    1    1    2  504  502  0.10486938210E+03 -0.88811611631E+01  0.87481734273E+02  0.13685582252E+03  0.00000000000E+00 0.  1.
         21    1    1    2  505  501  0.26413643332E+02  0.32627321421E+02 -0.38591114101E+02  0.57021897064E+02  0.00000000000E+00 0.  1.
          1    1    1    2  501    0 -0.51480993770E+02 -0.77623308191E+01  0.28762502057E+04  0.28767213616E+04  0.00000000000E+00 0. -1.
<scales pt_clust_3="109.64589" pt_clust_4="14000.00000" pt_clust_5="41.97884" pt_clust_6="51.81632"></scales>
<clustering>
<clus scale="   41.979">  2  5  1 -1</clus>
<clus scale="   51.816">  1  6  2 -1</clus>
<clus scale="  109.646">  1  3  2 -1</clus>
<clus scale="   41.979">  2  3  1 -1</clus>
</clustering>
</event>
<event>
 6    0  0.3584505E+002  0.7533896E+02  0.7546771E-02  0.1342825E+00
         21   -1    0    0  504  502  0.00000000000E+00  0.00000000000E+00  0.53920059846E+03  0.53920059846E+03  0.00000000000E+00 0. -1.
          1   -1    0    0  503    0 -0.00000000000E+00 -0.00000000000E+00 -0.13221707904E+04  0.13221707904E+04  0.00000000000E+00 0.  1.
         21    1    1    2  503  505  0.31557184084E+00  0.49897321744E+02 -0.94459230567E+02  0.10682878143E+03  0.00000000000E+00 0.  1.
         21    1    1    2  504  501 -0.83721476785E+02 -0.74773190136E+02  0.17995709864E+03  0.21209637665E+03  0.00000000000E+00 0. -1.
         21    1    1    2  505  502  0.40927216092E+02  0.54078600487E+02  0.33301860179E+03  0.33985426463E+03  0.00000000000E+00 0. -1.
          1    1    1    2  501    0  0.42478688852E+02 -0.29202732095E+02 -0.12014866618E+04  0.12025919662E+04  0.00000000000E+00 0.  1.
<scales pt_clust_3="49.89832" pt_clust_4="75.33896" pt_clust_5="14000.00000" pt_clust_6="47.18973"></scales>
<clustering>
<clus scale="   49.898">  2  3  1 -1</clus>
<clus scale="   47.190">  2  6  1 -1</clus>
<clus scale="   75.339">  2  4  1 -1</clus>
<clus scale="   75.339">  1  3  2 -1</clus>
</clustering>
</event>
<event>
 6    0  0.3584505E+002  0.7328385E+02  0.7546771E-02  0.1349269E+00
          1   -1    0    0  505    0 -0.00000000000E+00  0.00000000000E+00  0.37927285349E+04  0.37927285349E+04  0.00000000000E+00 0.  1.
         21   -1    0    0  503  502  0.00000000000E+00 -0.00000000000E+00 -0.26530240108E+03  0.26530240108E+03  0.00000000000E+00 0.  1.
         21    1    1    2  503  504 -0.34673313448E+02  0.20864317274E+02  0.44234757144E+02  0.59952248835E+02  0.00000000000E+00 0.  1.
         21    1    1    2  504  501 -0.39658293114E+02 -0.10291879001E+03  0.62670322720E+03  0.63633481166E+03  0.00000000000E+00 0. -1.
         21    1    1    2  505  502  0.87802205746E+02  0.25756908833E+02 -0.24406328038E+03  0.26065212548E+03  0.00000000000E+00 0.  1.
          1    1    1    2  501    0 -0.13470599184E+02  0.56297563904E+02  0.31005514299E+04  0.31010917500E+04  0.00000000000E+00 0.  1.
<scales pt_clust_3="40.46676" pt_clust_4="73.28385" pt_clust_5="14000.00000" pt_clust_6="57.91649"></scales>
<clustering>
<clus scale="   40.467">  2  3  1 -1</clus>
<clus scale="   57.916">  1  6  2 -1</clus>
<clus scale="   73.284">  1  4  2 -1</clus>
<clus scale="   40.467">  2  3  1 -1</clus>
</clustering>
</event>
<event>
 6    0  0.3584505E+002  0.9447795E+02  0.7546771E-02  0.1292356E+00
         21   -1    0    0  503  502  0.00000000000E+00  0.00000000000E+00  0.54418178453E+02  0.54418178453E+02  0.00000000000E+00 0.  1.
          2   -1    0    0  504    0 -0.00000000000E+00 -0.00000000000E+00 -0.28732472112E+04  0.28732472112E+04  0.00000000000E+00 0. -1.
         21    1    1    2  503  501  0.14846070334E+02  0.81394726216E+02 -0.11283646134E+03  0.13991988518E+03  0.00000000000E+00 0.  1.
         21    1    1    2  504  505 -0.79758080891E+02 -0.83154896474E+02 -0.21811246616E+03  0.24667617673E+03  0.00000000000E+00 0.  1.
         21    1    1    2  505  502 -0.71149772599E+01  0.42811502383E+02  0.77306946269E+01  0.44081870163E+02  0.00000000000E+00 0.  1.
          2    1    1    2  501    0  0.72026987817E+02 -0.41051332125E+02 -0.24956107998E+04  0.24969874575E+04  0.00000000000E+00 0. -1.
<scales pt_clust_3="94.47795" pt_clust_4="14000.00000" pt_clust_5="43.39871" pt_clust_6="82.24716"></scales>
<clustering>
<clus scale="   43.399">  1  5  2 -1</clus>
<clus scale="   82.247">  2  6  1 -1</clus>
<clus scale="   94.478">  2  3  1 -1</clus>
<clus scale="   43.399">  1  3  2 -1</clus>
</clustering>
</event>
<event>
 6    0  0.3584505E+002  0.6837980E+02  0.7546771E-02  0.1365691E+00
         21   -1    0    0  503  502  0.00000000000E+00  0.00000000000E+00  0.18780166626E+04  0.18780166626E+04  0.00000000000E+00 0.  1.
          2   -1    0    0  505    0 -0.00000000000E+00 -0.00000000000E+00 -0.25768472743E+03  0.25768472743E+03  0.00000000000E+00 0.  1.
         21    1    1    2  503  504 -0.68057400151E+02 -0.55590288411E+01  0.17879577661E+04  0.17892612123E+04  0.00000000000E+00 0.  1.
         21    1    1    2  504  501  0.17955972734E+02  0.46340294959E+02  0.31242741727E+02  0.58702204425E+02  0.00000000000E+00 0. -1.
         21    1    1    2  505  502  0.83101322076E+02 -0.64042763614E+02 -0.23148307895E+02  0.10743904998E+03  0.00000000000E+00 0. -1.
          2    1    1    2  501    0 -0.32999894659E+02  0.23261497496E+02 -0.17572026474E+03  0.18029892333E+03  0.00000000000E+00 0.  1.
<scales pt_clust_3="14000.00000" pt_clust_4="51.82214" pt_clust_5="68.37980" pt_clust_6="40.37438"></scales>
<clustering>
<clus scale="   40.374">  2  6  1 -1</clus>
<clus scale="   51.822">  2  4  1 -1</clus>
<clus scale="   68.380">  2  5  1 -1</clus>
<clus scale="   68.380">  1  3  2 -1</clus>
</clustering>
</event>
<event>
 6    0  0.3584505E+002  0.1202790E+03  0.7546771E-02  0.1242637E+00
          1   -1    0    0  505    0 -0.00000000000E+00  0.00000000000E+00  0.33871261362E+03  0.33871261362E+03  0.00000000000E+00 0. -1.
         21   -1    0    0  503  502  0.00000000000E+00 -0.00000000000E+00 -0.10257329961E+04  0.10257329961E+04  0.00000000000E+00 0. -1.
         21    1    1    2  503  501  0.16344710841E+02  0.12545461430E+03 -0.97367728850E+03  0.98186224694E+03  0.00000000000E+00 0. -1.
         21    1    1    2  504  502 -0.21434334631E+02 -0.68024569790E+02 -0.59637565089E+01  0.71570518986E+02  0.00000000000E+00 0.  1.
         21    1    1    2  505  504  0.26195760713E+02  0.14753623390E+02  0.77691192657E+02  0.83305514217E+02  0.00000000000E+00 0.  1.
          1    1    1    2  501    0 -0.21106136924E+02 -0.72183667904E+02  0.21492946987E+03  0.22770732958E+03  0.00000000000E+00 0. -1.
<scales pt_clust_3="14000.00000" pt_clust_4="120.27900" pt_clust_5="30.06472" pt_clust_6="59.55339"></scales>
<clustering>
<clus scale="   30.065">  1  5  2 -1</clus>
<clus scale="   59.553">  1  6  2 -1</clus>
<clus scale="  120.279">  1  4  2 -1</clus>
<clus scale="  120.279">  2  3  1 -1</clus>
</clustering>
</event>
<event>
 6    0  0.3584505E+002  0.1498334E+03  0.7546771E-02  0.1200678E+00
          1   -1    0    0  503    0 -0.00000000000E+00  0.00000000000E+00  0.59599281807E+03  0.59599281807E+03  0.00000000000E+00 0.  1.
         21   -1    0    0  504  502  0.00000000000E+00 -0.00000000000E+00 -0.19243282311E+04  0.19243282311E+04  0.00000000000E+00 0.  1.
         21    1    1    2  503  502  0.15918167284E+03  0.95852205707E+02 -0.74019507883E+03  0.76316132308E+03  0.00000000000E+00 0.  1.
         21    1    1    2  504  505  0.29949205408E+02 -0.11335202394E+03 -0.72480669481E+03  0.73422774470E+03  0.00000000000E+00 0.  1.
         21    1    1    2  505  501 -0.13493803392E+03  0.32496416452E+02 -0.43084096185E+03  0.45264580467E+03  0.00000000000E+00 0.  1.
          1    1    1    2  501    0 -0.54192844329E+02 -0.14996598219E+02  0.56750732246E+03  0.57028617674E+03  0.00000000000E+00 0.  1.
<scales pt_clust_3="14000.00000" pt_clust_4="117.76212" pt_clust_5="149.83344" pt_clust_6="56.22955"></scales>
<clustering>
<clus scale="   56.230">  1  6  2 -1</clus>
<clus scale="  117.762">  2  4  1 -1</clus>
<clus scale="  149.833">  2  5  1 -1</clus>
<clus scale="  117.762">  2  3  1 -1</clus>
</clustering>
</event>
<event>
 6    0  0.3584505E+002  0.1048823E+03  0.7546771E-02  0.1270352E+00
         21   -1    0    0  505  502  0.00000000000E+00  0.00000000000E+00  0.21978937573E+04  0.21978937573E+04  0.00000000000E+00 0.  1.
          2   -1    0    0  503    0 -0.00000000000E+00 -0.00000000000E+00 -0.59112271737E+03  0.59112271737E+03  0.00000000000E+00 0. -1.
         21    1    1    2  503  502  0.12749110792E+01 -0.45940157133E+02 -0.38861425700E+02  0.60185827593E+02  0.00000000000E+00 0.  1.
         21    1    1    2  504  501  0.70334077212E+02 -0.33656957949E+02  0.11737936018E+03  0.14091695225E+03  0.00000000000E+00 0. -1.
         21    1    1    2  505  504 -0.46842553541E+02  0.99876507728E+02  0.20561199664E+04  0.20590771860E+04  0.00000000000E+00 0.  1.
          2    1    1    2  501    0 -0.24766434751E+02 -0.20279392647E+02 -0.52786686101E+03  0.52883650878E+03  0.00000000000E+00 0. -1.
<scales pt_clust_3="64.57654" pt_clust_4="104.88229" pt_clust_5="14000.00000" pt_clust_6="32.00984"></scales>
<clustering>
<clus scale="   32.010">  2  6  1 -1</clus>
<clus scale="   64.577">  2  3  1 -1</clus>
<clus scale="  104.882">  2  4  1 -1</clus>
<clus scale="  104.882">  1  3  2 -1</clus>
</clustering>
</event>
<event>
 6    0  0.3584505E+002  0.8895452E+02  0.7546771E-02  0.1305403E+00
         21   -1    0    0  503  502  0.00000000000E+00  0.00000000000E+00  0.73757459874E+03  0.73757459874E+03  0.00000000000E+00 0.  1.
          2   -1    0    0  505    0 -0.00000000000E+00 -0.00000000000E+00 -0.14086895995E+04  0.14086895995E+04  0.00000000000E+00 0. -1.
         21    1    1    2  503  504 -0.63647994783E+02 -0.62304348324E+02  0.70639063024E+03  0.71198358236E+03  0.00000000000E+00 0.  1.
         21    1    1    2  504  501 -0.34151530998E+02  0.94812316570E+02 -0.28482950401E+03  0.30213167460E+03  0.00000000000E+00 0. -1.
         21    1    1    2  505  502  0.57330153402E+02  0.19507207911E+02 -0.30272280850E+02  0.67702944083E+02  0.00000000000E+00 0. -1.
          2    1    1    2  501    0  0.40469372379E+02 -0.52015176158E+02 -0.10624038461E+04  0.10644459972E+04  0.00000000000E+00 0. -1.
<scales pt_clust_3="88.95452" pt_clust_4="14000.00000" pt_clust_5="60.55805" pt_clust_6="87.55628"></scales>
<clustering>
<clus scale="   60.558">  2  5  1 -1</clus>
<clus scale="   88.955">  1  3  2 -1</clus>
<clus scale="   87.556">  2  6  1 -1</clus>
<clus scale="   88.955">  1  3  2 -1</clus>
</clustering>
</event>
<event>
 6    0  0.3584505E+002  0.1216022E+03  0.7546771E-02  0.1240477E+00
          2   -1    0    0  503    0 -0.00000000000E+00  0.00000000000E+00  0.90612893849E+03  0.90612893849E+03  0.00000000000E+00 0. -1.
         21   -1    0    0  505  502  0.00000000000E+00 -0.00000000000E+00 -0.12438136806E+03  0.12438136806E+03  0.00000000000E+00 0. -1.
         21    1    1    2  503  504  0.26019173765E+02  0.70591642131E+02  0.14241354766E+02  0.76570186938E+02  0.00000000000E+00 0. -1.
         21    1    1    2  504  502 -0.15745634297E+02  0.27390264212E+02 -0.10209974321E+02  0.33202336494E+02  0.00000000000E+00 0. -1.
         21    1    1    2  505  501  0.36174504633E+02 -0.12445722758E+03 -0.11127288601E+02  0.13008463720E+03  0.00000000000E+00 0. -1.
          2    1    1    2  501    0 -0.46448044101E+02  0.26475321240E+02  0.78884347859E+03  0.79065314592E+03  0.00000000000E+00 0. -1.
<scales pt_clust_3="31.26513" pt_clust_4="31.26513" pt_clust_5="111.62144" pt_clust_6="53.46366"></scales>
<clustering>
<clus scale="   31.265">  3  4 -1 -1</clus>
<clus scale="   53.464">  1  6  2 -1</clus>
<clus scale="  111.621">  1  5  2 -1</clus>
<clus scale="  121.602">  2  3  1 -1</clus>
</clustering>
</event>
<event>
 6    0  0.3584505E+002  0.1015739E+03  0.7546771E-02  0.1277021E+00
         21   -1    0    0  505  502  0.00000000000E+00  0.00000000000E+00  0.10785417775E+03  0.10785417775E+03  0.00000000000E+00 0.  1.
          2   -1    0    0  502    0 -0.00000000000E+00 -0.00000000000E+00 -0.21791704672E+04  0.21791704672E+04  0.00000000000E+00 0. -1.
         21    1    1    2  503  501  0.19080451207E+01 -0.62366685940E+02 -0.34325511386E+03  0.34888009021E+03  0.00000000000E+00 0.  1.
         21    1    1    2  504  503 -0.12088386439E+01  0.14792892006E+03 -0.14658259950E+02  0.14865830372E+03  0.00000000000E+00 0.  1.
         21    1    1    2  505  504 -0.92009378148E+01 -0.42516721244E+02  0.25237847969E+02  0.50291925914E+02  0.00000000000E+00 0.  1.
          2    1    1    2  501    0  0.85017313380E+01 -0.43045512875E+02 -0.17386407636E+04  0.17391943251E+04  0.00000000000E+00 0. -1.
<scales pt_clust_3="14000.00000" pt_clust_4="101.57393" pt_clust_5="43.50091" pt_clust_6="44.03478"></scales>
<clustering>
<clus scale="   43.501">  1  5  2 -1</clus>
<clus scale="   44.035">  2  6  1 -1</clus>
<clus scale="  101.574">  1  4  2 -1</clus>
<clus scale="   43.501">  1  3  2 -1</clus>
</clustering>
</event>
<event>
 6    0  0.3584505E+002  0.1225679E+03  0.7546771E-02  0.1238920E+00
         -3   -1    0    0    0  501 -0.00000000000E+00  0.00000000000E+00  0.10059668558E+03  0.10059668558E+03  0.00000000000E+00 0.  1.
         21   -1    0    0  503  502  0.00000000000E+00 -0.00000000000E+00 -0.36206902912E+03  0.36206902912E+03  0.00000000000E+00 0.  1.
         21    1    1    2  503  504  0.19046691546E+01  0.32228753292E+02 -0.40926899656E+02  0.52128029109E+02  0.00000000000E+00 0.  1.
         21    1    1    2  504  505  0.69026611633E+02 -0.39172690189E+02 -0.62476647102E+02  0.10100744628E+03  0.00000000000E+00 0.  1.
         21    1    1    2  505  501  0.63368996951E+01 -0.10640594784E+03 -0.13238604693E+03  0.16996601853E+03  0.00000000000E+00 0.  1.
         -3    1    1    2    0  502 -0.77268180482E+02  0.11334988473E+03 -0.25682749858E+02  0.13956422079E+03  0.00000000000E+00 0.  1.
<scales pt_clust_3="32.28499" pt_clust_4="76.04693" pt_clust_5="122.56794" pt_clust_6="14000.00000"></scales>
<clustering>
<clus scale="   32.285">  2  3  1 -1</clus>
<clus scale="   76.047">  2  4  1 -1</clus>
<clus scale="  122.568">  2  5  1 -1</clus>
<clus scale="   32.285">  2  3  1 -1</clus>
</clustering>
</event>
<event>
 6    0  0.3584505E+002  0.1170168E+03  0.7546771E-02  0.1248101E+00
         21   -1    0    0  504  502  0.00000000000E+00  0.00000000000E+00  0.86559232906E+03  0.86559232906E+03  0.00000000000E+00 0. -1.
         -1   -1    0    0    0  501 -0.00000000000E+00 -0.00000000000E+00 -0.53089276939E+03  0.53089276939E+03  0.00000000000E+00 0.  1.
         21    1    1    2  503  502 -0.76585935018E+01  0.40015957082E+02  0.39328716911E+03  0.39539186672E+03  0.00000000000E+00 0. -1.
         21    1    1    2  504  501 -0.53869760344E+02  0.12158186732E+02  0.55388503923E+01  0.55501814815E+02  0.00000000000E+00 0.  1.
         21    1    1    2  505  503  0.15824160724E+03  0.13076816808E+02  0.41926304056E+03  0.44832232443E+03  0.00000000000E+00 0. -1.
         -1    1    1    2    0  505 -0.96713253393E+02 -0.65250960622E+02 -0.48338950040E+03  0.49726909248E+03  0.00000000000E+00 0.  1.
<scales pt_clust_3="40.74225" pt_clust_4="56.33110" pt_clust_5="14000.00000" pt_clust_6="117.01684"></scales>
<clustering>
<clus scale="   40.742">  1  3  2 -1</clus>
<clus scale="   56.331">  1  4  2 -1</clus>
<clus scale="  117.017">  2  6  1 -1</clus>
<clus scale="   40.742">  1  3  2 -1</clus>
</clustering>
</event>
<event>
 6    0  0.3584505E+002  0.1940399E+03  0.7546771E-02  0.1154867E+00
         21   -1    0    0  503  502  0.00000000000E+00  0.00000000000E+00  0.76492340678E+03  0.76492340678E+03  0.00000000000E+00 0.  1.
          2   -1    0    0  505    0 -0.00000000000E+00 -0.00000000000E+00 -0.21529847487E+03  0.21529847487E+03  0.00000000000E+00 0. -1.
         21    1    1    2  503  504  0.52593153257E+01 -0.13142924804E+03  0.27536468426E+03  0.30516719512E+03  0.00000000000E+00 0.  1.
         21    1    1    2  504  501  0.99617685090E+02  0.12487923623E+03 -0.10655650740E+03  0.19202290513E+03  0.00000000000E+00 0. -1.
         21    1    1    2  505  502 -0.97048838554E+02 -0.38597664552E+02  0.41366918542E+03  0.42665026865E+03  0.00000000000E+00 0.  1.
          2    1    1    2  501    0 -0.78281618622E+01  0.45147676364E+02 -0.32852430374E+02  0.56381512756E+02  0.00000000000E+00 0. -1.
<scales pt_clust_3="180.87575" pt_clust_4="37.62554" pt_clust_5="104.44260" pt_clust_6="37.62554"></scales>
<clustering>
<clus scale="   37.626">  4  6 -1 -1</clus>
<clus scale="  104.443">  1  5  2 -1</clus>
<clus scale="  180.876">  1  3  2 -1</clus>
<clus scale="  104.443">  1  3  2 -1</clus>
</clustering>
</event>
<event>
 6    0  0.3584505E+002  0.8028289E+02  0.7546771E-02  0.1328251E+00
         21   -1    0    0  503  502  0.00000000000E+00  0.00000000000E+00  0.13452847631E+03  0.13452847631E+03  0.00000000000E+00 0. -1.
          1   -1    0    0  502    0 -0.00000000000E+00 -0.00000000000E+00 -0.36186136236E+03  0.36186136236E+03  0.00000000000E+00 0.  1.
         21    1    1    2  503  504  0.25897784642E+02  0.29070475304E+02  0.21227661768E+02  0.44344124841E+02  0.00000000000E+00 0. -1.
         21    1    1    2  504  505 -0.76219420313E+02  0.49310105431E+02  0.55461711953E+02  0.10638086305E+03  0.00000000000E+00 0. -1.
         21    1    1    2  505  501  0.69884634714E+02 -0.52780153687E+01 -0.67392052135E+02  0.97228639332E+02  0.00000000000E+00 0.  1.
          1    1    1    2  501    0 -0.19562999044E+02 -0.73102565366E+02 -0.23663020763E+03  0.24843621145E+03  0.00000000000E+00 0.  1.
<scales pt_clust_3="38.93312" pt_clust_4="14000.00000" pt_clust_5="80.28289" pt_clust_6="73.66420"></scales>
<clustering>
<clus scale="   38.933">  1  3  2 -1</clus>
<clus scale="   73.664">  2  6  1 -1</clus>
<clus scale="   80.283">  2  5  1 -1</clus>
<clus scale="   38.933">  1  3  2 -1</clus>
</clustering>
</event>
<event>
 6    0  0.3584505E+002  0.1635123E+03  0.7546771E-02  0.1184788E+00
         21   -1    0    0  505  502  0.00000000000E+00  0.00000000000E+00  0.32710118689E+03  0.32710118689E+03  0.00000000000E+00 0. -1.
          2   -1    0    0  504    0 -0.00000000000E+00 -0.00000000000E+00 -0.13923918613E+04  0.13923918613E+04  0.00000000000E+00 0. -1.
         21    1    1    2  503  502 -0.19721268101E+02 -0.35534858806E+02  0.30600805302E+03  0.30869496776E+03  0.00000000000E+00 0. -1.
         21    1    1    2  504  503  0.69271749161E+02  0.15970053442E+03 -0.58926549337E+03  0.61444011718E+03  0.00000000000E+00 0. -1.
         21    1    1    2  505  501 -0.17836335690E+02 -0.96223276326E+02 -0.39157755970E+03  0.40362115782E+03  0.00000000000E+00 0. -1.
          2    1    1    2  501    0 -0.31714145369E+02 -0.27942399285E+02 -0.39045567434E+03  0.39273680540E+03  0.00000000000E+00 0. -1.
<scales pt_clust_3="40.64055" pt_clust_4="148.31928" pt_clust_5="43.83539" pt_clust_6="43.83539"></scales>
<clustering>
<clus scale="   40.641">  1  3  2 -1</clus>
<clus scale="   43.835">  5  6 -1 -1</clus>
<clus scale="  148.319">  1  4  2 -1</clus>
<clus scale="   40.641">  1  3  2 -1</clus>
</clustering>
</event>
<event>
 6    0  0.3584505E+002  0.9677565E+02  0.7546771E-02  0.1287226E+00
         21   -1    0    0  504  502  0.00000000000E+00  0.00000000000E+00  0.11386117717E+03  0.11386117717E+03  0.00000000000E+00 0.  1.
         -1   -1    0    0    0  501 -0.00000000000E+00 -0.00000000000E+00 -0.84246543854E+03  0.84246543854E+03  0.00000000000E+00 0.  1.
         21    1    1    2  503  505  0.88890875186E+02 -0.15917611150E+02 -0.45790505943E+02  0.10125081960E+03  0.00000000000E+00 0.  1.
         21    1    1    2  504  501 -0.12139981527E+03  0.33305279254E+02 -0.87781727877E+02  0.15346917776E+03  0.00000000000E+00 0.  1.
         21    1    1    2  505  502 -0.20235946265E+02  0.29386980590E+02  0.45154536794E+02  0.57550155018E+02  0.00000000000E+00 0.  1.
         -1    1    1    2    0  503  0.52744886349E+02 -0.46774648694E+02 -0.64018656434E+03  0.64405646333E+03  0.00000000000E+00 0.  1.
<scales pt_clust_3="14000.00000" pt_clust_4="96.77565" pt_clust_5="35.68036" pt_clust_6="69.42574"></scales>
<clustering>
<clus scale="   35.680">  1  5  2 -1</clus>
<clus scale="   69.426">  2  6  1 -1</clus>
<clus scale="   96.776">  2  4  1 -1</clus>
<clus scale="   35.680">  1  3  2 -1</clus>
</clustering>
</event>
<event>
 6    0  0.3584505E+002  0.1059448E+03  0.7546771E-02  0.1268269E+00
          2   -1    0    0  503    0 -0.00000000000E+00  0.00000000000E+00  0.35591262650E+03  0.35591262650E+03  0.00000000000E+00 0. -1.
         21   -1    0    0  501  502  0.00000000000E+00 -0.00000000000E+00 -0.85362674890E+02  0.85362674890E+02  0.00000000000E+00 0. -1.
         21    1    1    2  503  505  0.23231067184E+02 -0.57772675123E+02  0.83053991152E+02  0.10380428661E+03  0.00000000000E+00 0. -1.
         21    1    1    2  504  502 -0.37948520429E+01  0.86887921199E+02 -0.26747383654E+02  0.90990847257E+02  0.00000000000E+00 0. -1.
         21    1    1    2  505  504 -0.27485240689E+02 -0.62912863083E+02  0.69755168489E+02  0.97873644705E+02  0.00000000000E+00 0. -1.
          2    1    1    2  501    0  0.80490255480E+01  0.33797617007E+02  0.14448817563E+03  0.14860652281E+03  0.00000000000E+00 0. -1.
<scales pt_clust_3="50.10963" pt_clust_4="92.10888" pt_clust_5="50.10963" pt_clust_6="34.74285"></scales>
<clustering>
<clus scale="   34.743">  1  6  2 -1</clus>
<clus scale="   50.110">  3  5 -1 -1</clus>
<clus scale="   92.109">  2  4  1 -1</clus>
<clus scale="   92.109">  2  3  1 -1</clus>
</clustering>
</event>
<event>
 6    0  0.3584505E+002  0.1289533E+03  0.7546771E-02  0.1229017E+00
          2   -1    0    0  503    0 -0.00000000000E+00  0.00000000000E+00  0.10837095751E+04  0.10837095751E+04  0.00000000000E+00 0. -1.
         21   -1    0    0  505  502  0.00000000000E+00 -0.00000000000E+00 -0.14640402809E+03  0.14640402809E+03  0.00000000000E+00 0.  1.
         21    1    1    2  503  504  0.35225735374E+02  0.61903458377E+02 -0.91869999849E+02  0.11624537610E+03  0.00000000000E+00 0.  1.
         21    1    1    2  504  502  0.55653209410E+02  0.40775853946E+01  0.16026205517E+01  0.55825395771E+02  0.00000000000E+00 0.  1.
         21    1    1    2  505  501 -0.21271331257E+02  0.45451946235E+02  0.47159394975E+02  0.68864776805E+02  0.00000000000E+00 0.  1.
          2    1    1    2  501    0 -0.69607613527E+02 -0.11143299001E+03  0.98041353136E+03  0.98917805455E+03  0.00000000000E+00 0. -1.
<scales pt_clust_3="14000.00000" pt_clust_4="53.05882" pt_clust_5="50.18315" pt_clust_6="128.95330"></scales>
<clustering>
<clus scale="   50.183">  2  5  1 -1</clus>
<clus scale="   53.059">  2  4  1 -1</clus>
<clus scale="  128.953">  1  6  2 -1</clus>
<clus scale="   50.183">  2  3  1 -1</clus>
</clustering>
</event>
<event>
 6    0  0.3584505E+002  0.1031585E+03  0.7546771E-02  0.1273791E+00
         21   -1    0    0  504  502  0.00000000000E+00  0.00000000000E+00  0.52795450001E+03  0.52795450001E+03  0.00000000000E+00 0. -1.
          1   -1    0    0  505    0 -0.00000000000E+00 -0.00000000000E+00 -0.14681866976E+04  0.14681866976E+04  0.00000000000E+00 0.  1.
         21    1    1    2  503  502  0.33211525426E+01  0.38523028681E+02  0.14586435172E+02  0.41325753278E+02  0.00000000000E+00 0.  1.
         21    1    1    2  504  501  0.10226546313E+03 -0.25005247149E+02  0.49079731398E+03  0.50196164270E+03  0.00000000000E+00 0. -1.
         21    1    1    2  505  503 -0.53385083023E+02 -0.24096296778E+02 -0.28194515144E+03  0.28796469754E+03  0.00000000000E+00 0.  1.
          1    1    1    2  501    0 -0.52201532648E+02  0.10578515246E+02 -0.11636707953E+04  0.11648891041E+04  0.00000000000E+00 0.  1.
<scales pt_clust_3="38.66593" pt_clust_4="14000.00000" pt_clust_5="103.15851" pt_clust_6="53.26798"></scales>
<clustering>
<clus scale="   38.666">  1  3  2 -1</clus>
<clus scale="   53.268">  2  6  1 -1</clus>
<clus scale="  103.159">  2  5  1 -1</clus>
<clus scale="   38.666">  1  3  2 -1</clus>
</clustering>
</event>
<event>
 6    0  0.3584505E+002  0.1058931E+03  0.7546771E-02  0.1268370E+00
         21   -1    0    0  505  502  0.00000000000E+00  0.00000000000E+00  0.18652654257E+03  0.18652654257E+03  0.00000000000E+00 0.  1.
          2   -1    0    0  503    0 -0.00000000000E+00 -0.00000000000E+00 -0.11285645458E+04  0.11285645458E+04  0.00000000000E+00 0.  1.
         21    1    1    2  503  504 -0.29723041879E+02 -0.34621414817E+02 -0.76132452055E+02  0.88759516889E+02  0.00000000000E+00 0.  1.
         21    1    1    2  504  502 -0.10529121155E+03  0.16027140276E+00  0.14657912693E+03  0.18047632910E+03  0.00000000000E+00 0.  1.
         21    1    1    2  505  501  0.11283470404E+03  0.85098775109E+01 -0.17961798482E+03  0.21228921057E+03  0.00000000000E+00 0.  1.
          2    1    1    2  501    0  0.22179549385E+02  0.25951265903E+02 -0.83286669327E+03  0.83356603180E+03  0.00000000000E+00 0.  1.
<scales pt_clust_3="36.10052" pt_clust_4="105.89306" pt_clust_5="14000.00000" pt_clust_6="34.13796"></scales>
<clustering>
<clus scale="   34.138">  2  6  1 -1</clus>
<clus scale="   36.101">  2  3  1 -1</clus>
<clus scale="  105.893">  1  4  2 -1</clus>
<clus scale="  105.893">  1  3  2 -1</clus>
</clustering>
</event>
<event>
 6    0  0.3584505E+002  0.1660715E+03  0.7546771E-02  0.1182008E+00
         -3   -1    0    0    0  501 -0.00000000000E+00  0.00000000000E+00  0.68185747257E+03  0.68185747257E+03  0.00000000000E+00 0. -1.
         21   -1    0    0  505  502  0.00000000000E+00 -0.00000000000E+00 -0.25022184841E+03  0.25022184841E+03  0.00000000000E+00 0. -1.
         21    1    1    2  503  501  0.13957265799E+02  0.12539169866E+03  0.44564719360E+03  0.46316228746E+03  0.00000000000E+00 0. -1.
         21    1    1    2  504  503 -0.14444342495E+03  0.15898581888E+02  0.10993005754E+03  0.18221219901E+03  0.00000000000E+00 0. -1.
         21    1    1    2  505  504  0.15023615409E+03 -0.92065951989E+02 -0.14642153704E+03  0.22909890445E+03  0.00000000000E+00 0. -1.
         -3    1    1    2    0  502 -0.19749994932E+02 -0.49224328557E+02  0.22479910057E+02  0.57605930058E+02  0.00000000000E+00 0. -1.
<scales pt_clust_3="124.24351" pt_clust_4="166.07149" pt_clust_5="14000.00000" pt_clust_6="53.03864"></scales>
<clustering>
<clus scale="   53.039">  2  6  1 -1</clus>
<clus scale="  124.244">  1  3  2 -1</clus>
<clus scale="  166.071">  1  4  2 -1</clus>
<clus scale="   53.039">  2  3  1 -1</clus>
</clustering>
</event>
<event>
 6    0  0.3584505E+002  0.1030315E+03  0.7546771E-02  0.1274047E+00
         21   -1    0    0  504  502  0.00000000000E+00  0.00000000000E+00  0.72692207314E+03  0.72692207314E+03  0.00000000000E+00 0. -1.
          2   -1    0    0  503    0 -0.00000000000E+00 -0.00000000000E+00 -0.13343301860E+04  0.13343301860E+04  0.00000000000E+00 0.  1.
         21    1    1    2  503  505 -0.50574020355E+02  0.15182166562E+02 -0.39057974579E+03  0.39413293131E+03  0.00000000000E+00 0.  1.
         21    1    1    2  504  501  0.46875789769E+02 -0.44276289050E+02  0.49868359313E+02  0.81514309781E+02  0.00000000000E+00 0. -1.
         21    1    1    2  505  502  0.57156810161E+02  0.52014227961E+02  0.65627139026E+03  0.66080596134E+03  0.00000000000E+00 0. -1.
          2    1    1    2  501    0 -0.53458579575E+02 -0.22920105473E+02 -0.92296811661E+03  0.92479905668E+03  0.00000000000E+00 0.  1.
<scales pt_clust_3="52.80369" pt_clust_4="63.68900" pt_clust_5="14000.00000" pt_clust_6="103.03150"></scales>
<clustering>
<clus scale="   52.804">  2  3  1 -1</clus>
<clus scale="   63.689">  1  4  2 -1</clus>
<clus scale="  103.032">  2  6  1 -1</clus>
<clus scale="   63.689">  1  3  2 -1</clus>
</clustering>
</event>
<event>
 6    0  0.3584505E+002  0.2874661E+03  0.7546771E-02  0.1091680E+00
         21   -1    0    0  504  502  0.00000000000E+00  0.00000000000E+00  0.61823406622E+03  0.61823406622E+03  0.00000000000E+00 0. -1.
          2   -1    0    0  503    0 -0.00000000000E+00 -0.00000000000E+00 -0.27104044188E+04  0.27104044188E+04  0.00000000000E+00 0. -1.
         21    1    1    2  503  502 -0.15432119360E+03  0.86489440489E+01  0.20563935289E+03  0.25724964233E+03  0.00000000000E+00 0. -1.
         21    1    1    2  504  505  0.75160046003E+02 -0.89464506844E+01  0.24738046644E+03  0.25870092128E+03  0.00000000000E+00 0. -1.
         21    1    1    2  505  501  0.22749136883E+02  0.28308972987E+03 -0.35186106517E+02  0.28617368935E+03  0.00000000000E+00 0.  1.
          2    1    1    2  501    0  0.56412010710E+02 -0.28279222323E+03 -0.25100040654E+04  0.25265142321E+04  0.00000000000E+00 0. -1.
<scales pt_clust_3="106.72944" pt_clust_4="75.69063" pt_clust_5="287.46612" pt_clust_6="14000.00000"></scales>
<clustering>
<clus scale="   75.691">  1  4  2 -1</clus>
<clus scale="  106.729">  1  3  2 -1</clus>
<clus scale="  287.466">  1  5  2 -1</clus>
<clus scale="   75.691">  1  3  2 -1</clus>
</clustering>
</event>
<event>
 6    0  0.3584505E+002  0.9039860E+02  0.7546771E-02  0.1301889E+00
         21   -1    0    0  504  502  0.00000000000E+00  0.00000000000E+00  0.43630341161E+03  0.43630341161E+03  0.00000000000E+00 0.  1.
          4   -1    0    0  505    0 -0.00000000000E+00 -0.00000000000E+00 -0.61035631709E+03  0.61035631709E+03  0.00000000000E+00 0.  1.
         21    1    1    2  503  501  0.45895857518E+02  0.35867503017E+02 -0.15247565192E+03  0.16322295163E+03  0.00000000000E+00 0.  1.
         21    1    1    2  504  503  0.46491214356E+01 -0.63534500458E+02  0.42279673806E+02  0.76457948545E+02  0.00000000000E+00 0.  1.
         21    1    1    2  505  502 -0.95874758349E+02  0.32370852763E+02  0.36343694311E+03  0.37726151807E+03  0.00000000000E+00 0.  1.
          4    1    1    2  501    0  0.45329779396E+02 -0.47038553219E+01 -0.42729387048E+03  0.42971731045E+03  0.00000000000E+00 0.  1.
<scales pt_clust_3="14000.00000" pt_clust_4="64.59386" pt_clust_5="90.39860" pt_clust_6="45.57318"></scales>
<clustering>
<clus scale="   45.573">  2  6  1 -1</clus>
<clus scale="   64.594">  1  4  2 -1</clus>
<clus scale="   90.399">  1  5  2 -1</clus>
<clus scale="   64.594">  1  3  2 -1</clus>
</clustering>
</event>
<event>
 6    0  0.3584505E+002  0.9472119E+02  0.7546771E-02  0.1291805E+00
          2   -1    0    0  504    0 -0.00000000000E+00  0.00000000000E+00  0.18079560201E+04  0.18079560201E+04  0.00000000000E+00 0. -1.
         21   -1    0    0  505  502  0.00000000000E+00 -0.00000000000E+00 -0.41044999733E+03  0.41044999733E+03  0.00000000000E+00 0.  1.
         21    1    1    2  503  502  0.65607455684E+01  0.30298927365E+02  0.12497533428E+02  0.33425390404E+02  0.00000000000E+00 0.  1.
         21    1    1    2  504  503  0.35148307411E+02 -0.17969965822E+02  0.48461984880E+03  0.48622496957E+03  0.00000000000E+00 0. -1.
         21    1    1    2  505  501 -0.10015952139E+03 -0.48493291473E+02 -0.39049587770E+03  0.40604255878E+03  0.00000000000E+00 0.  1.
          2    1    1    2  501    0  0.58450468412E+02  0.36164329930E+02  0.12908845182E+04  0.12927130986E+04  0.00000000000E+00 0. -1.
<scales pt_clust_3="31.00110" pt_clust_4="39.45969" pt_clust_5="94.72119" pt_clust_6="14000.00000"></scales>
<clustering>
<clus scale="   31.001">  2  3  1 -1</clus>
<clus scale="   39.460">  1  4  2 -1</clus>
<clus scale="   94.721">  2  5  1 -1</clus>
<clus scale="   31.001">  2  3  1 -1</clus>
</clustering>
</event>
<event>
 6    0  0.3584505E+002  0.8918162E+02  0.7546771E-02  0.1304846E+00
         21   -1    0    0  503  502  0.00000000000E+00  0.00000000000E+00  0.45295888132E+03  0.45295888132E+03  0.00000000000E+00 0. -1.
          2   -1    0    0  504    0 -0.00000000000E+00 -0.00000000000E+00 -0.76668504519E+03  0.76668504519E+03  0.00000000000E+00 0.  1.
         21    1    1    2  503  501  0.83917739931E+02 -0.35962708990E+02  0.30778196271E+03  0.32103775492E+03  0.00000000000E+00 0. -1.
         21    1    1    2  504  505 -0.58657781277E+02  0.33449473740E+02 -0.34382916546E+03  0.35039705709E+03  0.00000000000E+00 0.  1.
         21    1    1    2  505  502  0.60496911710E+01  0.46071518329E+02  0.12946247279E+03  0.13754895646E+03  0.00000000000E+00 0. -1.
          2    1    1    2  501    0 -0.31309649824E+02 -0.43558283079E+02 -0.40714143391E+03  0.41066015804E+03  0.00000000000E+00 0.  1.
<scales pt_clust_3="89.18162" pt_clust_4="14000.00000" pt_clust_5="46.46702" pt_clust_6="53.41809"></scales>
<clustering>
<clus scale="   46.467">  1  5  2 -1</clus>
<clus scale="   53.418">  2  6  1 -1</clus>
<clus scale="   89.182">  1  3  2 -1</clus>
<clus scale="   46.467">  1  3  2 -1</clus>
</clustering>
</event>
<event>
 6    0  0.3584505E+002  0.7621442E+02  0.7546771E-02  0.1340151E+00
          3   -1    0    0  505    0 -0.00000000000E+00  0.00000000000E+00  0.24748517990E+03  0.24748517990E+03  0.00000000000E+00 0.  1.
         21   -1    0    0  503  502  0.00000000000E+00 -0.00000000000E+00 -0.18174934259E+03  0.18174934259E+03  0.00000000000E+00 0. -1.
         21    1    1    2  503  504 -0.48834351255E+02 -0.17929621261E+02 -0.90799460627E+02  0.10464610471E+03  0.00000000000E+00 0. -1.
         21    1    1    2  504  501 -0.31450411194E+02 -0.75248806357E+02  0.47232781567E+02  0.94246734038E+02  0.00000000000E+00 0. -1.
         21    1    1    2  505  502  0.88000287447E+02  0.59489261192E+02 -0.94699781617E+01  0.10664287728E+03  0.00000000000E+00 0.  1.
          3    1    1    2  501    0 -0.77155249986E+01  0.33689166426E+02  0.11877249454E+03  0.12369880646E+03  0.00000000000E+00 0.  1.
<scales pt_clust_3="51.81634" pt_clust_4="14000.00000" pt_clust_5="76.21442" pt_clust_6="34.56138"></scales>
<clustering>
<clus scale="   34.561">  1  6  2 -1</clus>
<clus scale="   51.816">  2  3  1 -1</clus>
<clus scale="   76.214">  2  5  1 -1</clus>
<clus scale="   51.816">  2  3  1 -1</clus>
</clustering>
</event>
<event>
 6    0  0.3584505E+002  0.7178313E+02  0.7546771E-02  0.1354132E+00
          2   -1    0    0  505    0 -0.00000000000E+00  0.00000000000E+00  0.90166238316E+03  0.90166238316E+03  0.00000000000E+00 0.  1.
         21   -1    0    0  504  502  0.00000000000E+00 -0.00000000000E+00 -0.18305381405E+03  0.18305381405E+03  0.00000000000E+00 0. -1.
         21    1    1    2  503  501 -0.36619630348E+02 -0.82652180356E+01 -0.12077686936E+03  0.12647673038E+03  0.00000000000E+00 0. -1.
         21    1    1    2  504  503 -0.28478891262E+02 -0.20035510212E+02 -0.19152069187E+02  0.39740038640E+02  0.00000000000E+00 0.  1.
         21    1    1    2  505  502  0.11680337202E+03  0.64268826341E+02  0.12657968985E+03  0.18383668741E+03  0.00000000000E+00 0.  1.
          2    1    1    2  501    0 -0.51704850408E+02 -0.35968098093E+02  0.73195781780E+03  0.73466274077E+03  0.00000000000E+00 0.  1.
<scales pt_clust_3="71.78313" pt_clust_4="34.82052" pt_clust_5="14000.00000" pt_clust_6="63.29146"></scales>
<clustering>
<clus scale="   34.821">  2  4  1 -1</clus>
<clus scale="   63.291">  1  6  2 -1</clus>
<clus scale="   71.783">  2  3  1 -1</clus>
<clus scale="   34.821">  2  3  1 -1</clus>
</clustering>
</event>
<event>
 6    0  0.3584505E+002  0.1343959E+03  0.7546771E-02  0.1221075E+00
          2   -1    0    0  502    0 -0.00000000000E+00  0.00000000000E+00  0.11498547293E+04  0.11498547293E+04  0.00000000000E+00 0.  1.
         21   -1    0    0  504  502  0.00000000000E+00 -0.00000000000E+00 -0.36614563694E+02  0.36614563694E+02  0.00000000000E+00 0.  1.
         21    1    1    2  503  501  0.28213298899E+02  0.44014445598E+02  0.30174580816E+03  0.30624139889E+03  0.00000000000E+00 0. -1.
         21    1    1    2  504  505 -0.33271010791E+02 -0.58099923408E+02  0.94751159623E+02  0.11601872051E+03  0.00000000000E+00 0.  1.
         21    1    1    2  505  503 -0.85607646126E+02  0.11023145948E+02  0.69990901100E+02  0.11112562737E+03  0.00000000000E+00 0.  1.
          2    1    1    2  501    0  0.90665358018E+02  0.30623318618E+01  0.64675229669E+03  0.65308354619E+03  0.00000000000E+00 0.  1.
<scales pt_clust_3="49.82304" pt_clust_4="66.95193" pt_clust_5="117.28139" pt_clust_6="49.82304"></scales>
<clustering>
<clus scale="   49.823">  3  6 -1 -1</clus>
<clus scale="   66.952">  2  4  1 -1</clus>
<clus scale="  117.281">  2  5  1 -1</clus>
<clus scale="   66.952">  2  3  1 -1</clus>
</clustering>
</event>
<event>
 6    0  0.3584505E+002  0.7698075E+02  0.7546771E-02  0.1337845E+00
          2   -1    0    0  504    0 -0.00000000000E+00  0.00000000000E+00  0.53835216199E+03  0.53835216199E+03  0.00000000000E+00 0.  1.
         21   -1    0    0  503  502  0.00000000000E+00 -0.00000000000E+00 -0.43763940042E+03  0.43763940042E+03  0.00000000000E+00 0. -1.
         21    1    1    2  503  505 -0.75567892815E+02  0.10149060599E+02 -0.36032822800E+03  0.36830685813E+03  0.00000000000E+00 0. -1.
         21    1    1    2  504  502  0.88673980913E+02 -0.34933560820E+02  0.58698285607E+02  0.11193264625E+03  0.00000000000E+00 0.  1.
         21    1    1    2  505  501  0.22420257566E+02  0.45098487072E+02 -0.31879433142E+02  0.59605702269E+02  0.00000000000E+00 0. -1.
          2    1    1    2  501    0 -0.35526345664E+02 -0.20313986851E+02  0.43422213710E+03  0.43614635577E+03  0.00000000000E+00 0.  1.
<scales pt_clust_3="14000.00000" pt_clust_4="76.98075" pt_clust_5="45.89675" pt_clust_6="40.92407"></scales>
<clustering>
<clus scale="   40.924">  1  6  2 -1</clus>
<clus scale="   45.897">  1  5  2 -1</clus>
<clus scale="   76.981">  1  4  2 -1</clus>
<clus scale="   76.981">  2  3  1 -1</clus>
</clustering>
</event>
<event>
 6    0  0.3584505E+002  0.9176957E+02  0.7546771E-02  0.1298622E+00
         21   -1    0    0  504  502  0.00000000000E+00  0.00000000000E+00  0.94498878054E+02  0.94498878054E+02  0.00000000000E+00 0. -1.
         -2   -1    0    0    0  501 -0.00000000000E+00 -0.00000000000E+00 -0.15304451259E+04  0.15304451259E+04  0.00000000000E+00 0. -1.
         21    1    1    2  503  501  0.76529816034E+02  0.43404951583E+02 -0.10129085788E+03  0.13416646546E+03  0.00000000000E+00 0. -1.
         21    1    1    2  504  505 -0.80516329315E+01  0.68026396442E+02  0.48378201092E+02  0.83862206903E+02  0.00000000000E+00 0. -1.
         21    1    1    2  505  503  0.16990465298E+02 -0.76757317865E+02 -0.14078681494E+03  0.16124915199E+03  0.00000000000E+00 0. -1.
         -2    1    1    2    0  502 -0.85468648400E+02 -0.34674030159E+02 -0.12422467761E+04  0.12456661796E+04  0.00000000000E+00 0. -1.
<scales pt_clust_3="91.76957" pt_clust_4="68.50124" pt_clust_5="54.09869" pt_clust_6="14000.00000"></scales>
<clustering>
<clus scale="   68.501">  1  4  2 -1</clus>
<clus scale="   54.099">  1  5  2 -1</clus>
<clus scale="   91.770">  1  3  2 -1</clus>
<clus scale="   68.501">  1  3  2 -1</clus>
</clustering>
</event>
<event>
 6    0  0.3584505E+002  0.1218138E+03  0.7546771E-02  0.1240134E+00
          2   -1    0    0  503    0 -0.00000000000E+00  0.00000000000E+00  0.25612169971E+04  0.25612169971E+04  0.00000000000E+00 0. -1.
         21   -1    0    0  505  502  0.00000000000E+00 -0.00000000000E+00 -0.24485618484E+02  0.24485618484E+02  0.00000000000E+00 0. -1.
         21    1    1    2  503  504 -0.26164741428E+01 -0.58578338597E+02  0.42927613383E+03  0.43326235327E+03  0.00000000000E+00 0. -1.
         21    1    1    2  504  502  0.57745015257E+02  0.88053551654E+02  0.12333853489E+03  0.16217369989E+03  0.00000000000E+00 0. -1.
         21    1    1    2  505  501 -0.52752701053E+00  0.32099335552E+02  0.11664034930E+03  0.12097775297E+03  0.00000000000E+00 0.  1.
          2    1    1    2  501    0 -0.54601014104E+02 -0.61574548609E+02  0.18674763606E+04  0.18692888094E+04  0.00000000000E+00 0. -1.
<scales pt_clust_3="55.77520" pt_clust_4="121.81384" pt_clust_5="32.10367" pt_clust_6="14000.00000"></scales>
<clustering>
<clus scale="   32.104">  2  5  1 -1</clus>
<clus scale="   55.775">  1  3  2 -1</clus>
<clus scale="  121.814">  2  4  1 -1</clus>
<clus scale="   32.104">  2  3  1 -1</clus>
</clustering>
</event>
<event>
 6    0  0.3584505E+002  0.8733239E+02  0.7546771E-02  0.1309443E+00
         -3   -1    0    0    0  501 -0.00000000000E+00  0.00000000000E+00  0.82790291920E+03  0.82790291920E+03  0.00000000000E+00 0.  1.
         21   -1    0    0  501  502  0.00000000000E+00 -0.00000000000E+00 -0.25834548483E+03  0.25834548483E+03  0.00000000000E+00 0. -1.
         21    1    1    2  503  505 -0.93179822693E+02 -0.44302817629E+02 -0.76926989313E+02  0.12869724431E+03  0.00000000000E+00 0. -1.
         21    1    1    2  504  503  0.19646896761E+02  0.69107625377E+02  0.27162236682E+03  0.28096365351E+03  0.00000000000E+00 0.  1.
         21    1    1    2  505  502  0.36368022824E+02 -0.24455936927E+02 -0.14700491766E+03  0.15339873451E+03  0.00000000000E+00 0. -1.
         -3    1    1    2    0  504  0.37164903107E+02 -0.34887082169E+00  0.52186697452E+03  0.52318877170E+03  0.00000000000E+00 0.  1.
<scales pt_clust_3="87.33239" pt_clust_4="14000.00000" pt_clust_5="44.15151" pt_clust_6="37.16654"></scales>
<clustering>
<clus scale="   37.167">  1  6  2 -1</clus>
<clus scale="   44.152">  2  5  1 -1</clus>
<clus scale="   87.332">  2  3  1 -1</clus>
<clus scale="   44.152">  2  3  1 -1</clus>
</clustering>
</event>
<event>
 6    0  0.3584505E+002  0.1348439E+03  0.7546771E-02  0.1220440E+00
         21   -1    0    0  505  502  0.00000000000E+00  0.00000000000E+00  0.85127769034E+03  0.85127769034E+03  0.00000000000E+00 0.  1.
          2   -1    0    0  504    0 -0.00000000000E+00 -0.00000000000E+00 -0.20433280530E+03  0.20433280530E+03  0.00000000000E+00 0. -1.
         21    1    1    2  503  501 -0.12415945463E+03  0.14020544291E+03  0.41424327034E+03  0.45461040839E+03  0.00000000000E+00 0.  1.
         21    1    1    2  504  502 -0.18614709084E+02 -0.35017219571E+02  0.60965558884E+02  0.72729034304E+02  0.00000000000E+00 0.  1.
         21    1    1    2  505  503  0.52896735270E+02 -0.86952698836E+01  0.32310338724E+03  0.32752018437E+03  0.00000000000E+00 0.  1.
          2    1    1    2  501    0  0.89877428449E+02 -0.96492953458E+02 -0.15136733143E+03  0.20075086858E+03  0.00000000000E+00 0. -1.
<scales pt_clust_3="134.84389" pt_clust_4="39.65745" pt_clust_5="50.79375" pt_clust_6="14000.00000"></scales>
<clustering>
<clus scale="   39.657">  1  4  2 -1</clus>
<clus scale="   50.794">  1  5  2 -1</clus>
<clus scale="  134.844">  1  3  2 -1</clus>
<clus scale="   39.657">  1  3  2 -1</clus>
</clustering>
</event>
<event>
 6    0  0.3584505E+002  0.7916931E+02  0.7546771E-02  0.1331425E+00
         21   -1    0    0  503  502  0.00000000000E+00  0.00000000000E+00  0.53701826203E+03  0.53701826203E+03  0.00000000000E+00 0.  1.
          2   -1    0    0  504    0 -0.00000000000E+00 -0.00000000000E+00 -0.39531679773E+03  0.39531679773E+03  0.00000000000E+00 0.  1.
         21    1    1    2  503  505 -0.13958589289E+02  0.41032921802E+02  0.27693317374E+03  0.28030434460E+03  0.00000000000E+00 0.  1.
         21    1    1    2  504  502  0.21870606982E+02 -0.86484628614E+02  0.19216945762E+03  0.21186555850E+03  0.00000000000E+00 0.  1.
         21    1    1    2  505  501  0.59571995673E+02 -0.63990314252E+00  0.34708297799E+02  0.68948517610E+02  0.00000000000E+00 0.  1.
          2    1    1    2  501    0 -0.67484013366E+02  0.46091609954E+02 -0.36210946486E+03  0.37121663905E+03  0.00000000000E+00 0.  1.
<scales pt_clust_3="43.34216" pt_clust_4="55.49750" pt_clust_5="79.16931" pt_clust_6="14000.00000"></scales>
<clustering>
<clus scale="   43.342">  1  3  2 -1</clus>
<clus scale="   55.497">  1  4  2 -1</clus>
<clus scale="   79.169">  1  5  2 -1</clus>
<clus scale="   43.342">  1  3  2 -1</clus>
</clustering>
</event>
<event>
 6    0  0.3584505E+002  0.8835092E+02  0.7546771E-02  0.1306895E+00
          1   -1    0    0  503    0 -0.00000000000E+00  0.00000000000E+00  0.14760960107E+04  0.14760960107E+04  0.00000000000E+00 0.  1.
         21   -1    0    0  505  502  0.00000000000E+00 -0.00000000000E+00 -0.47798756461E+03  0.47798756461E+03  0.00000000000E+00 0.  1.
         21    1    1    2  503  502 -0.75668104494E+02 -0.73907788339E+02 -0.35161734316E+03  0.36718221529E+03  0.00000000000E+00 0.  1.
         21    1    1    2  504  501  0.62453362874E+02 -0.38322236351E+01  0.25554971610E+03  0.26309839580E+03  0.00000000000E+00 0.  1.
         21    1    1    2  505  504 -0.12848147080E+02  0.57519916839E+02 -0.10700846460E+03  0.12216557295E+03  0.00000000000E+00 0.  1.
          1    1    1    2  501    0  0.26062888700E+02  0.20220095135E+02  0.12011845377E+04  0.12016373913E+04  0.00000000000E+00 0.  1.
<scales pt_clust_3="14000.00000" pt_clust_4="88.35092" pt_clust_5="59.33080" pt_clust_6="32.98676"></scales>
<clustering>
<clus scale="   32.987">  1  6  2 -1</clus>
<clus scale="   59.331">  2  5  1 -1</clus>
<clus scale="   88.351">  1  4  2 -1</clus>
<clus scale="   59.331">  2  3  1 -1</clus>
</clustering>
</event>
<event>
 6    0  0.3584505E+002  0.8756607E+02  0.7546771E-02  0.1308855E+00
          2   -1    0    0  505    0 -0.00000000000E+00  0.00000000000E+00  0.23782379318E+04  0.23782379318E+04  0.00000000000E+00 0. -1.
         21   -1    0    0  503  502  0.00000000000E+00 -0.00000000000E+00 -0.33523352153E+02  0.33523352153E+02  0.00000000000E+00 0. -1.
         21    1    1    2  503  501  0.84901751978E+02 -0.73295610459E+02  0.75787378750E+03  0.76612873055E+03  0.00000000000E+00 0. -1.
         21    1    1    2  504  502 -0.64706514842E+02  0.55844743883E+02  0.36692153893E+02  0.93015496772E+02  0.00000000000E+00 0. -1.
         21    1    1    2  505  504 -0.49868297095E+02  0.79906549203E+01  0.66252596592E+03  0.66444815685E+03  0.00000000000E+00 0.  1.
          2    1    1    2  501    0  0.29673059959E+02  0.94602116556E+01  0.88762267229E+03  0.88816889973E+03  0.00000000000E+00 0. -1.
<scales pt_clust_3="87.56607" pt_clust_4="14000.00000" pt_clust_5="38.63564" pt_clust_6="31.14460"></scales>
<clustering>
<clus scale="   31.145">  1  6  2 -1</clus>
<clus scale="   38.636">  1  5  2 -1</clus>
<clus scale="   87.566">  1  3  2 -1</clus>
<clus scale="   87.566">  2  3  1 -1</clus>
</clustering>
</event>
<event>
 6    0  0.3584505E+002  0.1025421E+03  0.7546771E-02  0.1275039E+00
         21   -1    0    0  503  502  0.00000000000E+00  0.00000000000E+00  0.15856075216E+02  0.15856075216E+02  0.00000000000E+00 0. -1.
          2   -1    0    0  505    0 -0.00000000000E+00 -0.00000000000E+00 -0.24117848306E+04  0.24117848306E+04  0.00000000000E+00 0.  1.
         21    1    1    2  503  504  0.41329441711E+02 -0.26996937364E+02 -0.99507069162E+02  0.11107931487E+03  0.00000000000E+00 0. -1.
         21    1    1    2  504  501  0.36250725818E+02 -0.52761310357E+02 -0.31522811165E+03  0.32166229709E+03  0.00000000000E+00 0. -1.
         21    1    1    2  505  502 -0.75932252864E+02  0.20544660403E+02 -0.23726461290E+03  0.24996457075E+03  0.00000000000E+00 0. -1.
          2    1    1    2  501    0 -0.16479146650E+01  0.59213587317E+02 -0.17439289617E+04  0.17449347231E+04  0.00000000000E+00 0.  1.
<scales pt_clust_3="47.12665" pt_clust_4="47.12665" pt_clust_5="87.37803" pt_clust_6="59.23651"></scales>
<clustering>
<clus scale="   47.127">  3  4 -1 -1</clus>
<clus scale="   59.237">  2  6  1 -1</clus>
<clus scale="   87.378">  1  5  2 -1</clus>
<clus scale="   87.378">  1  3  2 -1</clus>
</clustering>
</event>
<event>
 6    0  0.3584505E+002  0.7674526E+02  0.7546771E-02  0.1338550E+00
         -3   -1    0    0    0  501 -0.00000000000E+00  0.00000000000E+00  0.73640569155E+03  0.73640569155E+03  0.00000000000E+00 0. -1.
         21   -1    0    0  504  502  0.00000000000E+00 -0.00000000000E+00 -0.41873025816E+02  0.41873025816E+02  0.00000000000E+00 0. -1.
         21    1    1    2  503  502  0.10342520476E+03 -0.51915249807E+01  0.13636252991E+03  0.17122635450E+03  0.00000000000E+00 0. -1.
         21    1    1    2  504  505 -0.65888600849E+02  0.62493979073E+01  0.42691457137E+02  0.78758638945E+02  0.00000000000E+00 0. -1.
         21    1    1    2  505  501 -0.56523050933E+02 -0.41261134639E+02  0.27680550036E+03  0.28551466083E+03  0.00000000000E+00 0. -1.
         -3    1    1    2    0  503  0.18986447018E+02  0.40203261713E+02  0.23867317833E+03  0.24277906309E+03  0.00000000000E+00 0. -1.
<scales pt_clust_3="76.74526" pt_clust_4="14000.00000" pt_clust_5="49.33605" pt_clust_6="44.46108"></scales>
<clustering>
<clus scale="   44.461">  1  6  2 -1</clus>
<clus scale="   49.336">  1  5  2 -1</clus>
<clus scale="   76.745">  1  3  2 -1</clus>
<clus scale="   76.745">  2  3  1 -1</clus>
</clustering>
</event>
<event>
 6    0  0.3584505E+002  0.1499992E+03  0.7546771E-02  0.1200474E+00
         -1   -1    0    0    0  501 -0.00000000000E+00  0.00000000000E+00  0.14269619792E+03  0.14269619792E+03  0.00000000000E+00 0. -1.
         21   -1    0    0  503  502  0.00000000000E+00 -0.00000000000E+00 -0.25666085816E+04  0.25666085816E+04  0.00000000000E+00 0.  1.
         21    1    1    2  503  501 -0.16073514597E+03 -0.32708895988E+02 -0.25827377528E+02  0.16605033110E+03  0.00000000000E+00 0.  1.
         21    1    1    2  504  505  0.54661208691E+02  0.42055748244E+02 -0.18551914466E+02  0.71419235688E+02  0.00000000000E+00 0.  1.
         21    1    1    2  505  502  0.55937220666E+02 -0.60285459122E+02 -0.23968771715E+04  0.23982876150E+04  0.00000000000E+00 0.  1.
         -1    1    1    2    0  504  0.50136716616E+02  0.50938606866E+02  0.17344079803E+02  0.73547597695E+02  0.00000000000E+00 0. -1.
<scales pt_clust_3="145.31485" pt_clust_4="36.53589" pt_clust_5="82.23934" pt_clust_6="36.53589"></scales>
<clustering>
<clus scale="   36.536">  4  6 -1 -1</clus>
<clus scale="   82.239">  2  5  1 -1</clus>
<clus scale="  145.315">  2  3  1 -1</clus>
<clus scale="   82.239">  2  3  1 -1</clus>
</clustering>
</event>
<event>
 6    0  0.3584505E+002  0.2391014E+03  0.7546771E-02  0.1120393E+00
          2   -1    0    0  504    0 -0.00000000000E+00  0.00000000000E+00  0.53242341400E+03  0.53242341400E+03  0.00000000000E+00 0.  1.
         21   -1    0    0  505  502  0.00000000000E+00 -0.00000000000E+00 -0.53738956952E+03  0.53738956952E+03  0.00000000000E+00 0. -1.
         21    1    1    2  503  502  0.18754894297E+03 -0.11119218452E+02 -0.39005232796E+03  0.43294233054E+03  0.00000000000E+00 0. -1.
         21    1    1    2  504  503  0.61323536033E+02 -0.57646505470E+01 -0.66531585837E+02  0.90665644990E+02  0.00000000000E+00 0. -1.
         21    1    1    2  505  501 -0.22279681688E+02 -0.27132206717E+02 -0.41158990545E+01  0.35348005354E+02  0.00000000000E+00 0.  1.
          2    1    1    2  501    0 -0.22659279731E+03  0.44016075716E+02  0.45573365734E+03  0.51085700264E+03  0.00000000000E+00 0.  1.
<scales pt_clust_3="33.74715" pt_clust_4="33.74715" pt_clust_5="35.10756" pt_clust_6="231.72315"></scales>
<clustering>
<clus scale="   33.747">  3  4 -1 -1</clus>
<clus scale="   35.108">  2  5  1 -1</clus>
<clus scale="  231.723">  1  6  2 -1</clus>
<clus scale="   35.108">  2  3  1 -1</clus>
</clustering>
</event>
<event>
 6    0  0.3584505E+002  0.1184830E+03  0.7546771E-02  0.1245621E+00
         21   -1    0    0  503  502  0.00000000000E+00  0.00000000000E+00  0.38449295396E+03  0.38449295396E+03  0.00000000000E+00 0.  1.
          1   -1    0    0  505    0 -0.00000000000E+00 -0.00000000000E+00 -0.15243273314E+04  0.15243273314E+04  0.00000000000E+00 0.  1.
         21    1    1    2  503  501 -0.38674570159E+01  0.72876092532E+02  0.28622649263E+03  0.29538362712E+03  0.00000000000E+00 0.  1.
         21    1    1    2  504  502 -0.35859015047E+02  0.41537215302E+02  0.80256919213E+02  0.97223362916E+02  0.00000000000E+00 0. -1.
         21    1    1    2  505  504 -0.77142209158E+01 -0.89950300454E+02 -0.47427935780E+03  0.48279547947E+03  0.00000000000E+00 0.  1.
          1    1    1    2  501    0  0.47440692979E+02 -0.24463007380E+02 -0.10320384315E+04  0.10334178159E+04  0.00000000000E+00 0.  1.
<scales pt_clust_3="14000.00000" pt_clust_4="54.02107" pt_clust_5="118.48297" pt_clust_6="53.37657"></scales>
<clustering>
<clus scale="   53.377">  2  6  1 -1</clus>
<clus scale="   54.021">  1  4  2 -1</clus>
<clus scale="  118.483">  2  5  1 -1</clus>
<clus scale="   54.021">  1  3  2 -1</clus>
</clustering>
</event>
<event>
 6    0  0.3584505E+002  0.1292042E+03  0.7546771E-02  0.1228641E+00
          2   -1    0    0  505    0 -0.00000000000E+00  0.00000000000E+00  0.34850046956E+04  0.34850046956E+04  0.00000000000E+00 0.  1.
         21   -1    0    0  503  502  0.00000000000E+00 -0.00000000000E+00 -0.19324477188E+02  0.19324477188E+02  0.00000000000E+00 0.  1.
         21    1    1    2  503  501  0.11881035608E+03 -0.73706581272E+02  0.41939502463E+03  0.44208680994E+03  0.00000000000E+00 0.  1.
         21    1    1    2  504  502 -0.12596606951E+03 -0.35868571983E+01  0.67313384130E+03  0.68482806931E+03  0.00000000000E+00 0.  1.
         21    1    1    2  505  504 -0.51699768373E+02  0.58039882716E+02  0.10887205383E+04  0.10914915962E+04  0.00000000000E+00 0.  1.
          2    1    1    2  501    0  0.58855481806E+02  0.19253555753E+02  0.12844308142E+04  0.12859226974E+04  0.00000000000E+00 0.  1.
<scales pt_clust_3="129.20423" pt_clust_4="14000.00000" pt_clust_5="71.23881" pt_clust_6="61.92469"></scales>
<clustering>
<clus scale="   61.925">  1  6  2 -1</clus>
<clus scale="   71.239">  1  5  2 -1</clus>
<clus scale="  129.204">  2  3  1 -1</clus>
<clus scale="  129.204">  2  3  1 -1</clus>
</clustering>
</event>
<event>
 6    0  0.3584505E+002  0.8446775E+02  0.7546771E-02  0.1316830E+00
         -2   -1    0    0    0  501 -0.00000000000E+00  0.00000000000E+00  0.35116185537E+03  0.35116185537E+03  0.00000000000E+00 0.  1.
         21   -1    0    0  504  502  0.00000000000E+00 -0.00000000000E+00 -0.67592595139E+03  0.67592595139E+03  0.00000000000E+00 0.  1.
         21    1    1    2  503  501 -0.32438504277E+02  0.12604927673E+02  0.76411067388E+02  0.83963039373E+02  0.00000000000E+00 0. -1.
         21    1    1    2  504  503 -0.10911266371E+03  0.63269143060E+01 -0.26215703636E+02  0.11239602459E+03  0.00000000000E+00 0. -1.
         21    1    1    2  505  502  0.35075516446E+02  0.25262240253E+01 -0.58934771957E+03  0.59039597578E+03  0.00000000000E+00 0.  1.
         -2    1    1    2    0  505  0.10647565154E+03 -0.21458066004E+02  0.21438825980E+03  0.24033276702E+03  0.00000000000E+00 0.  1.
<scales pt_clust_3="34.80145" pt_clust_4="14000.00000" pt_clust_5="35.10555" pt_clust_6="84.46775"></scales>
<clustering>
<clus scale="   34.801">  1  3  2 -1</clus>
<clus scale="   35.106">  2  5  1 -1</clus>
<clus scale="   84.468">  1  6  2 -1</clus>
<clus scale="   35.106">  2  3  1 -1</clus>
</clustering>
</event>
<event>
 6    0  0.3584505E+002  0.2138905E+03  0.7546771E-02  0.1138522E+00
         21   -1    0    0  505  502  0.00000000000E+00  0.00000000000E+00  0.52374158892E+02  0.52374158892E+02  0.00000000000E+00 0.  1.
          2   -1    0    0  502    0 -0.00000000000E+00 -0.00000000000E+00 -0.24272975829E+04  0.24272975829E+04  0.00000000000E+00 0.  1.
         21    1    1    2  503  501 -0.13975347406E+03  0.16449577077E+03 -0.59366657012E+03  0.63168812604E+03  0.00000000000E+00 0.  1.
         21    1    1    2  504  503  0.76779110624E+02  0.63799001342E+01 -0.15974756317E+03  0.17735562831E+03  0.00000000000E+00 0.  1.
         21    1    1    2  505  504  0.45423212082E+01  0.39974904316E+02 -0.63665221648E+01  0.40732766436E+02  0.00000000000E+00 0.  1.
          2    1    1    2  501    0  0.58432042228E+02 -0.21085057522E+03 -0.16151427686E+04  0.16298952210E+04  0.00000000000E+00 0.  1.
<scales pt_clust_3="14000.00000" pt_clust_4="79.61881" pt_clust_5="40.23215" pt_clust_6="213.89053"></scales>
<clustering>
<clus scale="   40.232">  1  5  2 -1</clus>
<clus scale="   79.619">  1  4  2 -1</clus>
<clus scale="  213.891">  2  6  1 -1</clus>
<clus scale="   40.232">  1  3  2 -1</clus>
</clustering>
</event>
<event>
 6    0  0.3584505E+002  0.1045955E+03  0.7546771E-02  0.1270919E+00
          1   -1    0    0  505    0 -0.00000000000E+00  0.00000000000E+00  0.32295270419E+04  0.32295270419E+04  0.00000000000E+00 0. -1.
         21   -1    0    0  501  502  0.00000000000E+00 -0.00000000000E+00 -0.82002385325E+02  0.82002385325E+02  0.00000000000E+00 0. -1.
         21    1    1    2  503  504  0.82038536981E+02  0.49233836493E+02  0.29155175476E+01  0.95722476192E+02  0.00000000000E+00 0. -1.
         21    1    1    2  504  502  0.16618789204E+02 -0.70018302519E+02  0.10475060951E+03  0.12708830408E+03  0.00000000000E+00 0. -1.
         21    1    1    2  505  503 -0.12569066144E+03 -0.79955404805E+02  0.21292545097E+03  0.25986199568E+03  0.00000000000E+00 0. -1.
          1    1    1    2  501    0  0.27033335259E+02  0.10073987083E+03  0.28269330786E+04  0.28288566513E+04  0.00000000000E+00 0. -1.
<scales pt_clust_3="92.98649" pt_clust_4="71.96351" pt_clust_5="14000.00000" pt_clust_6="104.59547"></scales>
<clustering>
<clus scale="   71.964">  2  4  1 -1</clus>
<clus scale="   92.986">  2  3  1 -1</clus>
<clus scale="  104.595">  1  6  2 -1</clus>
<clus scale="   71.964">  2  3  1 -1</clus>
</clustering>
</event>
<event>
 6    0  0.3584505E+002  0.1210764E+03  0.7546771E-02  0.1241332E+00
          1   -1    0    0  505    0 -0.00000000000E+00  0.00000000000E+00  0.33245339579E+03  0.33245339579E+03  0.00000000000E+00 0. -1.
         21   -1    0    0  503  502  0.00000000000E+00 -0.00000000000E+00 -0.22907547427E+03  0.22907547427E+03  0.00000000000E+00 0. -1.
         21    1    1    2  503  501 -0.27795764481E+02  0.11278204593E+03  0.35446392954E+02  0.12144480714E+03  0.00000000000E+00 0. -1.
         21    1    1    2  504  502  0.42946150200E+02  0.17301361442E+02 -0.39143842431E+02  0.60629607660E+02  0.00000000000E+00 0. -1.
         21    1    1    2  505  504  0.21562179552E+02 -0.12476846089E+03 -0.10479595702E+03  0.16436024163E+03  0.00000000000E+00 0. -1.
          1    1    1    2  501    0 -0.36712565271E+02 -0.53149464837E+01  0.21187132801E+03  0.21509421363E+03  0.00000000000E+00 0. -1.
<scales pt_clust_3="121.07635" pt_clust_4="43.05324" pt_clust_5="14000.00000" pt_clust_6="37.09530"></scales>
<clustering>
<clus scale="   37.095">  1  6  2 -1</clus>
<clus scale="   43.053">  2  4  1 -1</clus>
<clus scale="  121.076">  1  3  2 -1</clus>
<clus scale="   43.053">  2  3  1 -1</clus>
</clustering>
</event>
<event>
 6    0  0.3584505E+002  0.1362129E+03  0.7546771E-02  0.1218518E+00
         21   -1    0    0  504  502  0.00000000000E+00  0.00000000000E+00  0.62610529070E+03  0.62610529070E+03  0.00000000000E+00 0.  1.
          2   -1    0    0  503    0 -0.00000000000E+00 -0.00000000000E+00 -0.19858175084E+03  0.19858175084E+03  0.00000000000E+00 0. -1.
         21    1    1    2  503  505 -0.35202248174E+02 -0.12850461003E+03  0.30549740523E+02  0.13669645102E+03  0.00000000000E+00 0. -1.
         21    1    1    2  504  501  0.20867112982E+02 -0.39776378985E+02  0.46453779397E+03  0.46670435905E+03  0.00000000000E+00 0.  1.
         21    1    1    2  505  502  0.10949893902E+02  0.29712032213E+02  0.36232804968E+02  0.48119862744E+02  0.00000000000E+00 0. -1.
          2    1    1    2  501    0  0.33852412902E+01  0.13856895681E+03 -0.10379679960E+03  0.17316636872E+03  0.00000000000E+00 0. -1.
<scales pt_clust_3="136.21293" pt_clust_4="33.68638" pt_clust_5="31.66552" pt_clust_6="14000.00000"></scales>
<clustering>
<clus scale="   31.666">  1  5  2 -1</clus>
<clus scale="   33.686">  1  4  2 -1</clus>
<clus scale="  136.213">  1  3  2 -1</clus>
<clus scale="   31.666">  1  3  2 -1</clus>
</clustering>
</event>
<event>
 6    0  0.3584505E+002  0.1026956E+03  0.7546771E-02  0.1274727E+00
          1   -1    0    0  503    0 -0.00000000000E+00  0.00000000000E+00  0.11004189433E+04  0.11004189433E+04  0.00000000000E+00 0.  1.
         21   -1    0    0  504  502  0.00000000000E+00 -0.00000000000E+00 -0.19545780634E+03  0.19545780634E+03  0.00000000000E+00 0.  1.
         21    1    1    2  503  502  0.12396661896E+03  0.71492777509E+02 -0.88662090167E+02  0.16834460516E+03  0.00000000000E+00 0.  1.
         21    1    1    2  504  505 -0.35421201625E+02  0.72452498816E+01  0.90788369213E+01  0.37277076739E+02  0.00000000000E+00 0.  1.
         21    1    1    2  505  501  0.10928273606E+02 -0.10420429183E+03  0.45274466805E+01  0.10487353991E+03  0.00000000000E+00 0.  1.
          1    1    1    2  501    0 -0.99473690943E+02  0.25466264440E+02  0.98001694353E+03  0.98538152784E+03  0.00000000000E+00 0.  1.
<scales pt_clust_3="102.69560" pt_clust_4="36.15460" pt_clust_5="102.20612" pt_clust_6="14000.00000"></scales>
<clustering>
<clus scale="   36.155">  2  4  1 -1</clus>
<clus scale="  102.206">  2  5  1 -1</clus>
<clus scale="  102.696">  2  3  1 -1</clus>
<clus scale="   36.155">  2  3  1 -1</clus>
</clustering>
</event>
<event>
 6    0  0.3584505E+002  0.1043155E+03  0.7546771E-02  0.1271474E+00
          1   -1    0    0  505    0 -0.00000000000E+00  0.00000000000E+00  0.96146750701E+03  0.96146750701E+03  0.00000000000E+00 0. -1.
         21   -1    0    0  501  502  0.00000000000E+00 -0.00000000000E+00 -0.23107133628E+03  0.23107133628E+03  0.00000000000E+00 0. -1.
         21    1    1    2  503  504 -0.41938699510E+02  0.54400915118E+02 -0.48082790339E+02  0.83846698260E+02  0.00000000000E+00 0.  1.
         21    1    1    2  504  502 -0.12402330432E+02  0.39306250510E+02 -0.12516700471E+03  0.13177851948E+03  0.00000000000E+00 0. -1.
         21    1    1    2  505  503  0.10155708146E+03 -0.12110646683E+03  0.13946969465E+03  0.21078997327E+03  0.00000000000E+00 0. -1.
          1    1    1    2  501    0 -0.47216051521E+02  0.27399301199E+02  0.76417627112E+03  0.76612365228E+03  0.00000000000E+00 0. -1.
<scales pt_clust_3="104.31547" pt_clust_4="41.21649" pt_clust_5="14000.00000" pt_clust_6="54.87975"></scales>
<clustering>
<clus scale="   41.216">  2  4  1 -1</clus>
<clus scale="   54.880">  1  6  2 -1</clus>
<clus scale="  104.315">  2  3  1 -1</clus>
<clus scale="   41.216">  2  3  1 -1</clus>
</clustering>
</event>
<event>
 6    0  0.3584505E+002  0.1385693E+03  0.7546771E-02  0.1215267E+00
          2   -1    0    0  503    0 -0.00000000000E+00  0.00000000000E+00  0.35099085090E+04  0.35099085090E+04  0.00000000000E+00 0. -1.
         21   -1    0    0  504  502  0.00000000000E+00 -0.00000000000E+00 -0.73784627133E+03  0.73784627133E+03  0.00000000000E+00 0.  1.
         21    1    1    2  503  505  0.65676876208E+02  0.14630096271E+03  0.57351732103E+03  0.59551619733E+03  0.00000000000E+00 0. -1.
         21    1    1    2  504  501  0.62341191849E+02 -0.48779370423E+02  0.84768696798E+02  0.11598096023E+03  0.00000000000E+00 0.  1.
         21    1    1    2  505  502 -0.12620598690E+03 -0.57704771168E+02 -0.70432934958E+03  0.71787020027E+03  0.00000000000E+00 0.  1.
          2    1    1    2  501    0 -0.18120811604E+01 -0.39816821124E+02  0.28181055694E+04  0.28183874225E+04  0.00000000000E+00 0. -1.
<scales pt_clust_3="138.56925" pt_clust_4="82.64527" pt_clust_5="14000.00000" pt_clust_6="39.85803"></scales>
<clustering>
<clus scale="   39.858">  1  6  2 -1</clus>
<clus scale="   82.645">  1  4  2 -1</clus>
<clus scale="  138.569">  1  3  2 -1</clus>
<clus scale="  138.569">  2  3  1 -1</clus>
</clustering>
</event>
<event>
 6    0  0.3584505E+002  0.1206841E+03  0.7546771E-02  0.1241973E+00
         -1   -1    0    0    0  501 -0.00000000000E+00  0.00000000000E+00  0.30252087686E+03  0.30252087686E+03  0.00000000000E+00 0. -1.
         21   -1    0    0  503  502  0.00000000000E+00 -0.00000000000E+00 -0.11886257380E+04  0.11886257380E+04  0.00000000000E+00 0. -1.
         21    1    1    2  503  501 -0.11005799783E+02  0.12390428695E+03  0.13129177026E+03  0.18086162913E+03  0.00000000000E+00 0. -1.
         21    1    1    2  504  502 -0.34252775109E+02 -0.73960510783E+01 -0.79506198197E+03  0.79583384531E+03  0.00000000000E+00 0. -1.
         21    1    1    2  505  504 -0.16047455186E+01 -0.10950896573E+03 -0.35608954667E+03  0.37255141126E+03  0.00000000000E+00 0.  1.
         -1    1    1    2    0  505  0.46863320410E+02 -0.69992701356E+01  0.13375489727E+03  0.14189972912E+03  0.00000000000E+00 0. -1.
<scales pt_clust_3="14000.00000" pt_clust_4="35.04218" pt_clust_5="120.68412" pt_clust_6="47.04373"></scales>
<clustering>
<clus scale="   35.042">  2  4  1 -1</clus>
<clus scale="   47.044">  1  6  2 -1</clus>
<clus scale="  120.684">  2  5  1 -1</clus>
<clus scale="   35.042">  2  3  1 -1</clus>
</clustering>
</event>
<event>
 6    0  0.3584505E+002  0.8742283E+02  0.7546771E-02  0.1309215E+00
         21   -1    0    0  504  502  0.00000000000E+00  0.00000000000E+00  0.42825498546E+03  0.42825498546E+03  0.00000000000E+00 0.  1.
          2   -1    0    0  505    0 -0.00000000000E+00 -0.00000000000E+00 -0.12255128347E+04  0.12255128347E+04  0.00000000000E+00 0. -1.
         21    1    1    2  503  501 -0.80705912612E+02  0.94460570429E+02 -0.26519268201E+03  0.29285389239E+03  0.00000000000E+00 0. -1.
         21    1    1    2  504  503  0.45763194125E+02 -0.10622580221E+03  0.29671936894E+03  0.31846597133E+03  0.00000000000E+00 0.  1.
         21    1    1    2  505  502  0.53289446389E+01  0.38566028649E+02  0.10284254040E+03  0.10996510506E+03  0.00000000000E+00 0.  1.
          2    1    1    2  501    0  0.29613773848E+02 -0.26800796873E+02 -0.93162707657E+03  0.93248285138E+03  0.00000000000E+00 0. -1.
<scales pt_clust_3="87.42283" pt_clust_4="14000.00000" pt_clust_5="38.93246" pt_clust_6="39.91156"></scales>
<clustering>
<clus scale="   38.932">  1  5  2 -1</clus>
<clus scale="   39.912">  2  6  1 -1</clus>
<clus scale="   87.423">  2  3  1 -1</clus>
<clus scale="   38.932">  1  3  2 -1</clus>
</clustering>
</event>
<event>
 6    0  0.3584505E+002  0.5981371E+02  0.7546771E-02  0.1398615E+00
         21   -1    0    0  503  502  0.00000000000E+00  0.00000000000E+00  0.12346204748E+04  0.12346204748E+04  0.00000000000E+00 0. -1.
          4   -1    0    0  505    0 -0.00000000000E+00 -0.00000000000E+00 -0.66992736121E+03  0.66992736121E+03  0.00000000000E+00 0.  1.
         21    1    1    2  503  504 -0.59695644382E+02 -0.53663264074E+02 -0.40500569084E+02  0.89908909266E+02  0.00000000000E+00 0.  1.
         21    1    1    2  504  501  0.85087005093E+02  0.16412209040E+02 -0.11964795902E+03  0.14773216690E+03  0.00000000000E+00 0.  1.
         21    1    1    2  505  502  0.25462170106E+02  0.44078141703E+02  0.11939329614E+04  0.11950176237E+04  0.00000000000E+00 0. -1.
          4    1    1    2  501    0 -0.50853530817E+02 -0.68270866689E+01 -0.46909131964E+03  0.47188913620E+03  0.00000000000E+00 0.  1.
<scales pt_clust_3="14000.00000" pt_clust_4="59.81371" pt_clust_5="50.90388" pt_clust_6="50.24564"></scales>
<clustering>
<clus scale="   50.904">  1  5  2 -1</clus>
<clus scale="   50.246">  2  6  1 -1</clus>
<clus scale="   59.814">  2  4  1 -1</clus>
<clus scale="   50.904">  1  3  2 -1</clus>
</clustering>
</event>
<event>
 6    0  0.3584505E+002  0.7962923E+02  0.7546771E-02  0.1330107E+00
         21   -1    0    0  505  502  0.00000000000E+00  0.00000000000E+00  0.30152629074E+03  0.30152629074E+03  0.00000000000E+00 0.  1.
          1   -1    0    0  503    0 -0.00000000000E+00 -0.00000000000E+00 -0.36545870721E+03  0.36545870721E+03  0.00000000000E+00 0. -1.
         21    1    1    2  503  502 -0.22839781520E+02  0.24689133286E+02  0.27611185338E+02  0.43515359105E+02  0.00000000000E+00 0. -1.
         21    1    1    2  504  501  0.74363144313E+02 -0.54420065061E+02 -0.15045015808E+03  0.17642752274E+03  0.00000000000E+00 0. -1.
         21    1    1    2  505  504  0.16784036522E+02  0.58581748897E+02  0.24197306230E+03  0.24952853157E+03  0.00000000000E+00 0.  1.
          1    1    1    2  501    0 -0.68307399315E+02 -0.28850817122E+02 -0.18306650603E+03  0.19751358454E+03  0.00000000000E+00 0. -1.
<scales pt_clust_3="33.63345" pt_clust_4="79.62923" pt_clust_5="14000.00000" pt_clust_6="74.46582"></scales>
<clustering>
<clus scale="   33.633">  1  3  2 -1</clus>
<clus scale="   74.466">  2  6  1 -1</clus>
<clus scale="   79.629">  2  4  1 -1</clus>
<clus scale="   33.633">  1  3  2 -1</clus>
</clustering>
</event>
<event>
 6    0  0.3584505E+002  0.1099829E+03  0.7546771E-02  0.1260602E+00
         21   -1    0    0  504  502  0.00000000000E+00  0.00000000000E+00  0.18285398297E+03  0.18285398297E+03  0.00000000000E+00 0.  1.
          2   -1    0    0  505    0 -0.00000000000E+00 -0.00000000000E+00 -0.22005784624E+04  0.22005784624E+04  0.00000000000E+00 0. -1.
         21    1    1    2  503  501 -0.73972763603E+02 -0.29234830964E+02 -0.10121161431E+01  0.79546649682E+02  0.00000000000E+00 0.  1.
         21    1    1    2  504  503 -0.37981350669E+02 -0.18187188443E+02  0.13702345530E+03  0.14334847095E+03  0.00000000000E+00 0.  1.
         21    1    1    2  505  502  0.55515408665E+02  0.54267218602E+02 -0.51527089450E+03  0.52108635209E+03  0.00000000000E+00 0. -1.
          2    1    1    2  501    0  0.56438705607E+02 -0.68451991954E+01 -0.16384649241E+04  0.16394509726E+04  0.00000000000E+00 0. -1.
<scales pt_clust_3="14000.00000" pt_clust_4="42.11124" pt_clust_5="109.98292" pt_clust_6="56.44253"></scales>
<clustering>
<clus scale="   42.111">  1  4  2 -1</clus>
<clus scale="   56.443">  2  6  1 -1</clus>
<clus scale="  109.983">  2  5  1 -1</clus>
<clus scale="   42.111">  1  3  2 -1</clus>
</clustering>
</event>
<event>
 6    0  0.3584505E+002  0.1626746E+03  0.7546771E-02  0.1185710E+00
          1   -1    0    0  504    0 -0.00000000000E+00  0.00000000000E+00  0.13376317285E+04  0.13376317285E+04  0.00000000000E+00 0.  1.
         21   -1    0    0  503  502  0.00000000000E+00 -0.00000000000E+00 -0.38294119556E+03  0.38294119556E+03  0.00000000000E+00 0. -1.
         21    1    1    2  503  505 -0.85718953600E+02 -0.19563138732E+03  0.11323720123E+03  0.24174789027E+03  0.00000000000E+00 0. -1.
         21    1    1    2  504  502  0.41218462350E+02  0.34430692162E+02 -0.30125307404E+03  0.30600302093E+03  0.00000000000E+00 0. -1.
         21    1    1    2  505  501 -0.18060681654E+02  0.12931399563E+03  0.29983915594E+03  0.32703488670E+03  0.00000000000E+00 0. -1.
          1    1    1    2  501    0  0.62561172903E+02  0.31886699523E+02  0.84286724978E+03  0.84578712612E+03  0.00000000000E+00 0.  1.
<scales pt_clust_3="14000.00000" pt_clust_4="53.70693" pt_clust_5="162.67463" pt_clust_6="71.18279"></scales>
<clustering>
<clus scale="   53.707">  2  4  1 -1</clus>
<clus scale="   71.183">  1  6  2 -1</clus>
<clus scale="  162.675">  1  5  2 -1</clus>
<clus scale="   53.707">  2  3  1 -1</clus>
</clustering>
</event>
<event>
 6    0  0.3584505E+002  0.9166592E+02  0.7546771E-02  0.1298867E+00
          2   -1    0    0  504    0 -0.00000000000E+00  0.00000000000E+00  0.13499590474E+04  0.13499590474E+04  0.00000000000E+00 0. -1.
         21   -1    0    0  505  502  0.00000000000E+00 -0.00000000000E+00 -0.78792007412E+02  0.78792007412E+02  0.00000000000E+00 0. -1.
         21    1    1    2  503  502 -0.11251195172E+03  0.43313847405E+02 -0.10560025373E+02  0.12102290193E+03  0.00000000000E+00 0. -1.
         21    1    1    2  504  503 -0.20960223087E+02  0.33746447986E+02  0.67744677504E+03  0.67861055600E+03  0.00000000000E+00 0. -1.
         21    1    1    2  505  501  0.35003855051E+02 -0.10409870471E+02  0.48228609525E+02  0.60494909277E+02  0.00000000000E+00 0.  1.
          2    1    1    2  501    0  0.98468319755E+02 -0.66650424920E+02  0.55605168075E+03  0.56862268756E+03  0.00000000000E+00 0. -1.
<scales pt_clust_3="91.66592" pt_clust_4="39.50773" pt_clust_5="36.51897" pt_clust_6="14000.00000"></scales>
<clustering>
<clus scale="   36.519">  2  5  1 -1</clus>
<clus scale="   39.508">  1  4  2 -1</clus>
<clus scale="   91.666">  2  3  1 -1</clus>
<clus scale="   36.519">  2  3  1 -1</clus>
</clustering>
</event>
<event>
 6    0  0.3584505E+002  0.3255221E+03  0.7546771E-02  0.1073136E+00
          1   -1    0    0  505    0 -0.00000000000E+00  0.00000000000E+00  0.21865137398E+04  0.21865137398E+04  0.00000000000E+00 0. -1.
         21   -1    0    0  504  502  0.00000000000E+00 -0.00000000000E+00 -0.10414388988E+04  0.10414388988E+04  0.00000000000E+00 0. -1.
         21    1    1    2  503  502  0.11502247230E+03  0.35894416801E+02 -0.33634568437E+02  0.12509941042E+03  0.00000000000E+00 0. -1.
         21    1    1    2  504  501 -0.14880627233E+03 -0.10249692812E+03 -0.59550710569E+03  0.62231635033E+03  0.00000000000E+00 0. -1.
         21    1    1    2  505  503  0.13794598427E+03 -0.24382559154E+03 -0.28253929283E+03  0.39787996388E+03  0.00000000000E+00 0. -1.
          1    1    1    2  501    0 -0.10416218424E+03  0.31042810286E+03  0.20567558080E+04  0.20826569140E+04  0.00000000000E+00 0. -1.
<scales pt_clust_3="120.49306" pt_clust_4="110.18915" pt_clust_5="14000.00000" pt_clust_6="325.52205"></scales>
<clustering>
<clus scale="  120.493">  2  3  1 -1</clus>
<clus scale="  110.189">  2  4  1 -1</clus>
<clus scale="  325.522">  1  6  2 -1</clus>
<clus scale="  120.493">  2  3  1 -1</clus>
</clustering>
</event>
<event>
 6    0  0.3584505E+002  0.1045275E+03  0.7546771E-02  0.1271053E+00
          2   -1    0    0  504    0 -0.00000000000E+00  0.00000000000E+00  0.21266561446E+03  0.21266561446E+03  0.00000000000E+00 0. -1.
         21   -1    0    0  505  502  0.00000000000E+00 -0.00000000000E+00 -0.18890419295E+04  0.18890419295E+04  0.00000000000E+00 0.  1.
         21    1    1    2  503  502 -0.87776642642E+02  0.38092306678E+02 -0.40999460716E+03  0.42101228096E+03  0.00000000000E+00 0. -1.
         21    1    1    2  504  503 -0.85708821554E+02  0.20564969931E+02  0.41762849256E+02  0.97534894568E+02  0.00000000000E+00 0. -1.
         21    1    1    2  505  501  0.54684064559E+02 -0.40216751805E+02 -0.14184065901E+04  0.14200299254E+04  0.00000000000E+00 0.  1.
          2    1    1    2  501    0  0.11880139964E+03 -0.18440524805E+02  0.11026203303E+03  0.16313044301E+03  0.00000000000E+00 0. -1.
<scales pt_clust_3="39.49588" pt_clust_4="14000.00000" pt_clust_5="67.88029" pt_clust_6="104.52748"></scales>
<clustering>
<clus scale="   67.880">  2  5  1 -1</clus>
<clus scale="   39.496">  2  3  1 -1</clus>
<clus scale="  104.527">  1  6  2 -1</clus>
<clus scale="   67.880">  2  3  1 -1</clus>
</clustering>
</event>
<event>
 6    0  0.3584505E+002  0.8463589E+02  0.7546771E-02  0.1316387E+00
         21   -1    0    0  503  502  0.00000000000E+00  0.00000000000E+00  0.13574873446E+03  0.13574873446E+03  0.00000000000E+00 0. -1.
          2   -1    0    0  505    0 -0.00000000000E+00 -0.00000000000E+00 -0.11491331646E+04  0.11491331646E+04  0.00000000000E+00 0. -1.
         21    1    1    2  503  504 -0.36334281981E+02  0.45735255240E+02  0.81408650142E+01  0.58975989200E+02  0.00000000000E+00 0. -1.
         21    1    1    2  504  501 -0.83110289453E+02  0.14036139007E+02 -0.10286365232E+03  0.13298595557E+03  0.00000000000E+00 0. -1.
         21    1    1    2  505  502  0.96108652579E+02 -0.93106415761E+02  0.35061397698E+02  0.13832924262E+03  0.00000000000E+00 0. -1.
          2    1    1    2  501    0  0.23335918854E+02  0.33335021513E+02 -0.95372304053E+03  0.95459071167E+03  0.00000000000E+00 0. -1.
<scales pt_clust_3="60.13703" pt_clust_4="14000.00000" pt_clust_5="84.63589" pt_clust_6="40.69138"></scales>
<clustering>
<clus scale="   40.691">  2  6  1 -1</clus>
<clus scale="   60.137">  1  3  2 -1</clus>
<clus scale="   84.636">  1  5  2 -1</clus>
<clus scale="   60.137">  1  3  2 -1</clus>
</clustering>
</event>
<event>
 6    0  0.3584505E+002  0.9482887E+02  0.7546771E-02  0.1291562E+00
         21   -1    0    0  503  502  0.00000000000E+00  0.00000000000E+00  0.55300773924E+02  0.55300773924E+02  0.00000000000E+00 0.  1.
          2   -1    0    0  504    0 -0.00000000000E+00 -0.00000000000E+00 -0.41676114721E+04  0.41676114721E+04  0.00000000000E+00 0.  1.
         21    1    1    2  503  505  0.82921094525E+02 -0.40355504056E+02 -0.92571218620E+02  0.13066715403E+03  0.00000000000E+00 0.  1.
         21    1    1    2  504  502  0.23809916043E+02  0.42800750794E+02  0.17370900514E+02  0.51966956378E+02  0.00000000000E+00 0.  1.
         21    1    1    2  505  501 -0.58774251535E+02 -0.22642569570E+02 -0.71730831896E+03  0.72006827666E+03  0.00000000000E+00 0.  1.
          2    1    1    2  501    0 -0.47956759033E+02  0.20197322833E+02 -0.33198020611E+04  0.33202098589E+04  0.00000000000E+00 0.  1.
<scales pt_clust_3="94.82887" pt_clust_4="48.97771" pt_clust_5="14000.00000" pt_clust_6="51.98590"></scales>
<clustering>
<clus scale="   48.978">  1  4  2 -1</clus>
<clus scale="   51.986">  2  6  1 -1</clus>
<clus scale="   94.829">  1  3  2 -1</clus>
<clus scale="   48.978">  1  3  2 -1</clus>
</clustering>
</event>
<event>
 6    0  0.3584505E+002  0.8597054E+02  0.7546771E-02  0.1312914E+00
          2   -1    0    0  504    0 -0.00000000000E+00  0.00000000000E+00  0.19174613896E+03  0.19174613896E+03  0.00000000000E+00 0.  1.
         21   -1    0    0  503  502  0.00000000000E+00 -0.00000000000E+00 -0.12555353546E+04  0.12555353546E+04  0.00000000000E+00 0.  1.
         21    1    1    2  503  501  0.75959620644E+02 -0.39722388467E+02 -0.11971165889E+04  0.12001815944E+04  0.00000000000E+00 0.  1.
         21    1    1    2  504  505  0.78032564196E+01 -0.32795678952E+02  0.45100162998E+02  0.56306945141E+02  0.00000000000E+00 0.  1.
         21    1    1    2  505  502  0.15132248149E+02  0.30174351469E+02 -0.19138440417E+02  0.38804076103E+02  0.00000000000E+00 0.  1.
          2    1    1    2  501    0 -0.98895125213E+02  0.42343715950E+02  0.10736565067E+03  0.15198887793E+03  0.00000000000E+00 0.  1.
<scales pt_clust_3="14000.00000" pt_clust_4="33.71124" pt_clust_5="31.99195" pt_clust_6="85.97054"></scales>
<clustering>
<clus scale="   33.711">  1  4  2 -1</clus>
<clus scale="   31.992">  1  5  2 -1</clus>
<clus scale="   85.971">  1  6  2 -1</clus>
<clus scale="   85.971">  2  3  1 -1</clus>
</clustering>
</event>
<event>
 6    0  0.3584505E+002  0.2417576E+03  0.7546771E-02  0.1118627E+00
         21   -1    0    0  503  502  0.00000000000E+00  0.00000000000E+00  0.51753580237E+03  0.51753580237E+03  0.00000000000E+00 0.  1.
          2   -1    0    0  505    0 -0.00000000000E+00 -0.00000000000E+00 -0.10700730769E+04  0.10700730769E+04  0.00000000000E+00 0.  1.
         21    1    1    2  503  501 -0.13569851016E+03  0.20756018816E+03 -0.30375357705E+03  0.39212441003E+03  0.00000000000E+00 0. -1.
         21    1    1    2  504  502  0.23225167133E+02 -0.13200624483E+03  0.60649060066E+02  0.14711684319E+03  0.00000000000E+00 0.  1.
         21    1    1    2  505  504  0.89987918782E+02 -0.99787140053E+02  0.35682694276E+03  0.38128829765E+03  0.00000000000E+00 0.  1.
          2    1    1    2  501    0  0.22485424246E+02  0.24233196727E+02 -0.66625970034E+03  0.66707932843E+03  0.00000000000E+00 0.  1.
<scales pt_clust_3="241.75757" pt_clust_4="131.92373" pt_clust_5="14000.00000" pt_clust_6="33.05816"></scales>
<clustering>
<clus scale="   33.058">  2  6  1 -1</clus>
<clus scale="  131.924">  1  4  2 -1</clus>
<clus scale="  241.758">  2  3  1 -1</clus>
<clus scale="  131.924">  1  3  2 -1</clus>
</clustering>
</event>
<event>
 6    0  0.3584505E+002  0.1209468E+03  0.7546771E-02  0.1241543E+00
          1   -1    0    0  505    0 -0.00000000000E+00  0.00000000000E+00  0.26428179757E+04  0.26428179757E+04  0.00000000000E+00 0. -1.
         21   -1    0    0  504  502  0.00000000000E+00 -0.00000000000E+00 -0.23713624045E+03  0.23713624045E+03  0.00000000000E+00 0.  1.
         21    1    1    2  503  501  0.41217276749E+02 -0.16149074022E+03 -0.24464086581E+02  0.16845359780E+03  0.00000000000E+00 0.  1.
         21    1    1    2  504  503  0.13568626164E+02 -0.41566200619E+02 -0.93277847879E+02  0.10301754003E+03  0.00000000000E+00 0.  1.
         21    1    1    2  505  502 -0.25346538287E+02  0.86449983038E+02  0.82834284590E+01  0.90469120463E+02  0.00000000000E+00 0.  1.
          1    1    1    2  501    0 -0.29439364626E+02  0.11660695780E+03  0.25151402412E+04  0.25180139578E+04  0.00000000000E+00 0. -1.
<scales pt_clust_3="120.94684" pt_clust_4="43.72478" pt_clust_5="77.16853" pt_clust_6="14000.00000"></scales>
<clustering>
<clus scale="   43.725">  2  4  1 -1</clus>
<clus scale="   77.169">  2  5  1 -1</clus>
<clus scale="  120.947">  2  3  1 -1</clus>
<clus scale="   43.725">  2  3  1 -1</clus>
</clustering>
</event>
<event>
 6    0  0.3584505E+002  0.1014718E+03  0.7546771E-02  0.1277231E+00
         21   -1    0    0  504  502  0.00000000000E+00  0.00000000000E+00  0.65161298771E+03  0.65161298771E+03  0.00000000000E+00 0. -1.
          2   -1    0    0  503    0 -0.00000000000E+00 -0.00000000000E+00 -0.47186257579E+03  0.47186257579E+03  0.00000000000E+00 0. -1.
         21    1    1    2  503  505 -0.64030066340E+02  0.21325409162E+02 -0.49957843094E+02  0.83966711011E+02  0.00000000000E+00 0. -1.
         21    1    1    2  504  501  0.65712635746E+02  0.28906355639E+01  0.11340306922E+03  0.13109829282E+03  0.00000000000E+00 0. -1.
         21    1    1    2  505  502  0.17821443303E+02 -0.79514069776E+02  0.50691568785E+03  0.51342341759E+03  0.00000000000E+00 0. -1.
          2    1    1    2  501    0 -0.19504012708E+02  0.55298025049E+02 -0.39061050207E+03  0.39498714208E+03  0.00000000000E+00 0. -1.
<scales pt_clust_3="101.47184" pt_clust_4="64.17546" pt_clust_5="14000.00000" pt_clust_6="58.63683"></scales>
<clustering>
<clus scale="   58.637">  2  6  1 -1</clus>
<clus scale="   64.175">  1  4  2 -1</clus>
<clus scale="  101.472">  2  3  1 -1</clus>
<clus scale="   64.175">  1  3  2 -1</clus>
</clustering>
</event>
<event>
 6    0  0.3584505E+002  0.1744704E+03  0.7546771E-02  0.1173265E+00
         21   -1    0    0  501  502  0.00000000000E+00  0.00000000000E+00  0.23906019842E+03  0.23906019842E+03  0.00000000000E+00 0.  1.
          1   -1    0    0  503    0 -0.00000000000E+00 -0.00000000000E+00 -0.11158717076E+04  0.11158717076E+04  0.00000000000E+00 0. -1.
         21    1    1    2  503  504  0.11662655883E+03 -0.18561974594E+03 -0.98337277125E+02  0.24026373921E+03  0.00000000000E+00 0.  1.
         21    1    1    2  504  505 -0.87015275052E+02  0.10997107220E+03  0.54844809508E+01  0.14034020929E+03  0.00000000000E+00 0.  1.
         21    1    1    2  505  502 -0.71312544762E+02 -0.11755386142E+02  0.78352181737E+02  0.10659611872E+03  0.00000000000E+00 0.  1.
          1    1    1    2  501    0  0.41701260983E+02  0.87404059879E+02 -0.86231089474E+03  0.86773183878E+03  0.00000000000E+00 0. -1.
<scales pt_clust_3="14000.00000" pt_clust_4="174.47040" pt_clust_5="72.27495" pt_clust_6="96.08474"></scales>
<clustering>
<clus scale="   72.275">  1  5  2 -1</clus>
<clus scale="   96.085">  2  6  1 -1</clus>
<clus scale="  174.470">  1  4  2 -1</clus>
<clus scale="   72.275">  1  3  2 -1</clus>
</clustering>
</event>
<event>
 6    0  0.3584505E+002  0.9193519E+02  0.7546771E-02  0.1298232E+00
          4   -1    0    0  504    0 -0.00000000000E+00  0.00000000000E+00  0.23131388467E+03  0.23131388467E+03  0.00000000000E+00 0. -1.
         21   -1    0    0  505  502  0.00000000000E+00 -0.00000000000E+00 -0.97830929682E+03  0.97830929682E+03  0.00000000000E+00 0.  1.
         21    1    1    2  503  502 -0.94195024436E+02  0.43927067165E+02 -0.68607303371E+03  0.69390092768E+03  0.00000000000E+00 0.  1.
         21    1    1    2  504  503  0.78396185088E+02  0.83523101338E+01 -0.21855705824E+03  0.23234222739E+03  0.00000000000E+00 0.  1.
         21    1    1    2  505  501 -0.14812854106E+02 -0.68614193020E+02 -0.41299195703E+02  0.81442935214E+02  0.00000000000E+00 0.  1.
          4    1    1    2  501    0  0.30611693453E+02  0.16334815721E+02  0.19893387550E+03  0.20193709120E+03  0.00000000000E+00 0. -1.
<scales pt_clust_3="14000.00000" pt_clust_4="91.93519" pt_clust_5="58.21863" pt_clust_6="34.69729"></scales>
<clustering>
<clus scale="   34.697">  1  6  2 -1</clus>
<clus scale="   58.219">  1  5  2 -1</clus>
<clus scale="   91.935">  1  4  2 -1</clus>
<clus scale="   91.935">  2  3  1 -1</clus>
</clustering>
</event>
<event>
 6    0  0.3584505E+002  0.1042259E+03  0.7546771E-02  0.1271652E+00
         21   -1    0    0  505  502  0.00000000000E+00  0.00000000000E+00  0.34288777738E+03  0.34288777738E+03  0.00000000000E+00 0. -1.
          1   -1    0    0  503    0 -0.00000000000E+00 -0.00000000000E+00 -0.20948269538E+04  0.20948269538E+04  0.00000000000E+00 0. -1.
         21    1    1    2  503  504  0.73500730592E+02 -0.86341731003E+02 -0.73489037996E+03  0.74358666104E+03  0.00000000000E+00 0. -1.
         21    1    1    2  504  502 -0.27905839090E+02  0.32301413897E+02  0.32271150411E+03  0.32552239874E+03  0.00000000000E+00 0. -1.
         21    1    1    2  505  501 -0.20487023428E+02  0.72638265396E+02 -0.85856439959E+02  0.11431257154E+03  0.00000000000E+00 0. -1.
          1    1    1    2  501    0 -0.25107868074E+02 -0.18597948290E+02 -0.12539038606E+04  0.12542930998E+04  0.00000000000E+00 0. -1.
<scales pt_clust_3="104.22589" pt_clust_4="42.69021" pt_clust_5="14000.00000" pt_clust_6="31.24562"></scales>
<clustering>
<clus scale="   31.246">  2  6  1 -1</clus>
<clus scale="   42.690">  1  4  2 -1</clus>
<clus scale="  104.226">  2  3  1 -1</clus>
<clus scale="   42.690">  1  3  2 -1</clus>
</clustering>
</event>
<event>
 6    0  0.3584505E+002  0.9596500E+02  0.7546771E-02  0.1289017E+00
         21   -1    0    0  503  502  0.00000000000E+00  0.00000000000E+00  0.58361738359E+03  0.58361738359E+03  0.00000000000E+00 0.  1.
          2   -1    0    0  504    0 -0.00000000000E+00 -0.00000000000E+00 -0.92127991206E+03  0.92127991206E+03  0.00000000000E+00 0. -1.
         21    1    1    2  503  501 -0.20743448793E+02 -0.24524537668E+02  0.77544539453E+01  0.33043534491E+02  0.00000000000E+00 0.  1.
         21    1    1    2  504  505  0.36535954831E+02  0.53797802973E+02 -0.26854330576E+02  0.70357904110E+02  0.00000000000E+00 0. -1.
         21    1    1    2  505  502 -0.76775559410E+02  0.23486486892E+02  0.53658312548E+03  0.54255649673E+03  0.00000000000E+00 0.  1.
          2    1    1    2  501    0  0.60983053373E+02 -0.52759752196E+02 -0.85514577732E+03  0.85893936033E+03  0.00000000000E+00 0. -1.
<scales pt_clust_3="32.12077" pt_clust_4="63.79788" pt_clust_5="95.96500" pt_clust_6="14000.00000"></scales>
<clustering>
<clus scale="   32.121">  1  3  2 -1</clus>
<clus scale="   63.798">  2  4  1 -1</clus>
<clus scale="   95.965">  1  5  2 -1</clus>
<clus scale="   32.121">  1  3  2 -1</clus>
</clustering>
</event>
<event>
 6    0  0.3584505E+002  0.1029700E+03  0.7546771E-02  0.1274172E+00
         21   -1    0    0  505  502  0.00000000000E+00  0.00000000000E+00  0.85727540100E+03  0.85727540100E+03  0.00000000000E+00 0. -1.
         -1   -1    0    0    0  501 -0.00000000000E+00 -0.00000000000E+00 -0.24416144318E+03  0.24416144318E+03  0.00000000000E+00 0. -1.
         21    1    1    2  503  504  0.42299371251E+02 -0.18707537032E+02  0.89653473240E+02  0.10088089023E+03  0.00000000000E+00 0. -1.
         21    1    1    2  504  502  0.52173107391E+02 -0.66742966080E+02  0.31575066465E+03  0.32691763318E+03  0.00000000000E+00 0. -1.
         21    1    1    2  505  501 -0.25227506551E+02  0.28547462965E+02  0.43118277226E+03  0.43286252762E+03  0.00000000000E+00 0. -1.
         -1    1    1    2    0  503 -0.69244972090E+02  0.56903040147E+02 -0.22347295233E+03  0.24077579314E+03  0.00000000000E+00 0. -1.
<scales pt_clust_3="36.44052" pt_clust_4="36.44052" pt_clust_5="38.09704" pt_clust_6="90.39135"></scales>
<clustering>
<clus scale="   36.441">  3  4 -1 -1</clus>
<clus scale="   38.097">  1  5  2 -1</clus>
<clus scale="   90.391">  2  6  1 -1</clus>
<clus scale="   38.097">  1  3  2 -1</clus>
</clustering>
</event>
<event>
 6    0  0.3584505E+002  0.1170365E+03  0.7546771E-02  0.1248067E+00
         21   -1    0    0  503  502  0.00000000000E+00  0.00000000000E+00  0.25624788073E+03  0.25624788073E+03  0.00000000000E+00 0.  1.
          2   -1    0    0  504    0 -0.00000000000E+00 -0.00000000000E+00 -0.12522486811E+04  0.12522486811E+04  0.00000000000E+00 0.  1.
         21    1    1    2  503  505 -0.17936732562E+02  0.48546588521E+02  0.11492241011E+03  0.12603831948E+03  0.00000000000E+00 0.  1.
         21    1    1    2  504  502  0.13102502820E+02  0.32639284361E+02 -0.18369599414E+02  0.39679221846E+02  0.00000000000E+00 0.  1.
         21    1    1    2  505  501  0.59700251244E+02  0.24022442020E+02  0.11372982509E+03  0.13067391030E+03  0.00000000000E+00 0.  1.
          2    1    1    2  501    0 -0.54866021501E+02 -0.10520831490E+03 -0.12062834361E+04  0.12121051102E+04  0.00000000000E+00 0.  1.
<scales pt_clust_3="65.57627" pt_clust_4="35.17099" pt_clust_5="117.03652" pt_clust_6="14000.00000"></scales>
<clustering>
<clus scale="   35.171">  1  4  2 -1</clus>
<clus scale="   65.576">  1  3  2 -1</clus>
<clus scale="  117.037">  1  5  2 -1</clus>
<clus scale="   35.171">  1  3  2 -1</clus>
</clustering>
</event>
<event>
 6    0  0.3584505E+002  0.7422888E+02  0.7546771E-02  0.1346276E+00
         21   -1    0    0  505  502  0.00000000000E+00  0.00000000000E+00  0.11285317774E+03  0.11285317774E+03  0.00000000000E+00 0.  1.
          2   -1    0    0  503    0 -0.00000000000E+00 -0.00000000000E+00 -0.11269249145E+04  0.11269249145E+04  0.00000000000E+00 0. -1.
         21    1    1    2  503  502 -0.26309006819E+02  0.26316465992E+02  0.53229028282E+02  0.64946513948E+02  0.00000000000E+00 0.  1.
         21    1    1    2  504  501 -0.56918293128E+02 -0.28944393459E+02 -0.30122284632E+02  0.70603272139E+02  0.00000000000E+00 0.  1.
         21    1    1    2  505  504  0.96661973592E+02 -0.53067009383E+02 -0.60319035274E+02  0.12569021696E+03  0.00000000000E+00 0.  1.
          2    1    1    2  501    0 -0.13434673645E+02  0.55694936850E+02 -0.97685944511E+03  0.97853808917E+03  0.00000000000E+00 0. -1.
<scales pt_clust_3="37.21183" pt_clust_4="74.22888" pt_clust_5="14000.00000" pt_clust_6="57.78885"></scales>
<clustering>
<clus scale="   37.212">  1  3  2 -1</clus>
<clus scale="   57.789">  2  6  1 -1</clus>
<clus scale="   74.229">  2  4  1 -1</clus>
<clus scale="   37.212">  1  3  2 -1</clus>
</clustering>
</event>
<event>
 6    0  0.3584505E+002  0.7463208E+02  0.7546771E-02  0.1345014E+00
         21   -1    0    0  505  502  0.00000000000E+00  0.00000000000E+00  0.16674588601E+04  0.16674588601E+04  0.00000000000E+00 0.  1.
          2   -1    0    0  503    0 -0.00000000000E+00 -0.00000000000E+00 -0.26288798255E+03  0.26288798255E+03  0.00000000000E+00 0. -1.
         21    1    1    2  503  502 -0.41424036161E+02 -0.35983571015E+02  0.58392812560E+00  0.54873574031E+02  0.00000000000E+00 0. -1.
         21    1    1    2  504  501  0.74851857680E+02  0.45849406729E+02  0.70260985525E+03  0.70807173181E+03  0.00000000000E+00 0.  1.
         21    1    1    2  505  504 -0.73045691366E+02  0.59259060500E+01  0.93098560935E+03  0.93386561892E+03  0.00000000000E+00 0.  1.
          2    1    1    2  501    0  0.39617869847E+02 -0.15791741763E+02 -0.22960851516E+03  0.23353591791E+03  0.00000000000E+00 0. -1.
<scales pt_clust_3="50.17445" pt_clust_4="14000.00000" pt_clust_5="74.63208" pt_clust_6="42.64921"></scales>
<clustering>
<clus scale="   42.649">  2  6  1 -1</clus>
<clus scale="   50.174">  2  3  1 -1</clus>
<clus scale="   74.632">  1  5  2 -1</clus>
<clus scale="   74.632">  1  3  2 -1</clus>
</clustering>
</event>
<event>
 6    0  0.3584505E+002  0.9589542E+02  0.7546771E-02  0.1289172E+00
         21   -1    0    0  505  502  0.00000000000E+00  0.00000000000E+00  0.14752519844E+03  0.14752519844E+03  0.00000000000E+00 0.  1.
          2   -1    0    0  503    0 -0.00000000000E+00 -0.00000000000E+00 -0.42464995499E+03  0.42464995499E+03  0.00000000000E+00 0. -1.
         21    1    1    2  503  504 -0.31367174137E+02 -0.13552197370E+03 -0.10537680043E+03  0.17451181919E+03  0.00000000000E+00 0.  1.
         21    1    1    2  504  502  0.34961029595E+02 -0.18877189709E+02  0.28651596756E+02  0.48985057705E+02  0.00000000000E+00 0.  1.
         21    1    1    2  505  501 -0.21489946604E+02  0.96934633643E+02  0.35329908861E+02  0.10538663798E+03  0.00000000000E+00 0.  1.
          2    1    1    2  501    0  0.17896091146E+02  0.57464529761E+02 -0.23572946175E+03  0.24329163856E+03  0.00000000000E+00 0. -1.
<scales pt_clust_3="14000.00000" pt_clust_4="39.73187" pt_clust_5="95.89542" pt_clust_6="59.93676"></scales>
<clustering>
<clus scale="   39.732">  1  4  2 -1</clus>
<clus scale="   59.937">  2  6  1 -1</clus>
<clus scale="   95.895">  1  5  2 -1</clus>
<clus scale="   39.732">  1  3  2 -1</clus>
</clustering>
</event>
<event>
 6    0  0.3584505E+002  0.1182458E+03  0.7546771E-02  0.1246019E+00
         -4   -1    0    0    0  501 -0.00000000000E+00  0.00000000000E+00  0.19999906717E+03  0.19999906717E+03  0.00000000000E+00 0. -1.
         21   -1    0    0  503  502  0.00000000000E+00 -0.00000000000E+00 -0.90890257983E+03  0.90890257983E+03  0.00000000000E+00 0.  1.
         21    1    1    2  503  504 -0.11855854755E+02 -0.82956486158E+02 -0.10919453951E+03  0.13764369708E+03  0.00000000000E+00 0. -1.
         21    1    1    2  504  501 -0.59987479605E+02  0.29553424749E+02 -0.12277949136E+03  0.13980953516E+03  0.00000000000E+00 0. -1.
         21    1    1    2  505  502  0.10667939053E+03  0.10025733617E+03 -0.64089247460E+03  0.65740032691E+03  0.00000000000E+00 0.  1.
         -4    1    1    2    0  505 -0.34836056167E+02 -0.46854274760E+02  0.16396299281E+03  0.17404808785E+03  0.00000000000E+00 0. -1.
<scales pt_clust_3="118.24581" pt_clust_4="71.53036" pt_clust_5="14000.00000" pt_clust_6="58.38556"></scales>
<clustering>
<clus scale="   58.386">  1  6  2 -1</clus>
<clus scale="   71.530">  1  4  2 -1</clus>
<clus scale="  118.246">  1  3  2 -1</clus>
<clus scale="  118.246">  2  3  1 -1</clus>
</clustering>
</event>
<event>
 6    0  0.3584505E+002  0.8190613E+02  0.7546771E-02  0.1323728E+00
          1   -1    0    0  505    0 -0.00000000000E+00  0.00000000000E+00  0.37401093187E+03  0.37401093187E+03  0.00000000000E+00 0. -1.
         21   -1    0    0  504  502  0.00000000000E+00 -0.00000000000E+00 -0.19384794980E+03  0.19384794980E+03  0.00000000000E+00 0.  1.
         21    1    1    2  503  501  0.62336113475E+02 -0.74949743165E+02  0.10394528119E+03  0.14250570699E+03  0.00000000000E+00 0.  1.
         21    1    1    2  504  503 -0.47599760962E+02 -0.52291938811E+02 -0.16854611715E+01  0.70732064070E+02  0.00000000000E+00 0.  1.
         21    1    1    2  505  502  0.32210068196E+02  0.82007719112E+02 -0.11850893631E+03  0.14767234837E+03  0.00000000000E+00 0.  1.
          1    1    1    2  501    0 -0.46946420709E+02  0.45233962864E+02  0.19641209836E+03  0.20694876225E+03  0.00000000000E+00 0. -1.
<scales pt_clust_3="51.40745" pt_clust_4="81.90613" pt_clust_5="14000.00000" pt_clust_6="65.19262"></scales>
<clustering>
<clus scale="   65.193">  1  6  2 -1</clus>
<clus scale="   51.407">  1  3  2 -1</clus>
<clus scale="   81.906">  1  4  2 -1</clus>
<clus scale="   81.906">  2  3  1 -1</clus>
</clustering>
</event>
<event>
 6    0  0.3584505E+002  0.9974759E+02  0.7546771E-02  0.1280828E+00
         21   -1    0    0  505  502  0.00000000000E+00  0.00000000000E+00  0.63024466287E+02  0.63024466287E+02  0.00000000000E+00 0.  1.
          2   -1    0    0  503    0 -0.00000000000E+00 -0.00000000000E+00 -0.12839202029E+04  0.12839202029E+04  0.00000000000E+00 0.  1.
         21    1    1    2  503  504  0.90118984156E+02  0.48668624968E+02 -0.22388780888E+03  0.24620279715E+03  0.00000000000E+00 0.  1.
         21    1    1    2  504  502 -0.31933579720E+02  0.83438275472E+01  0.21642589032E+02  0.39468653788E+02  0.00000000000E+00 0.  1.
         21    1    1    2  505  501 -0.82556511737E+02 -0.29329682103E+02 -0.70631884019E+02  0.11253742010E+03  0.00000000000E+00 0.  1.
          2    1    1    2  501    0  0.24371107300E+02 -0.27682770412E+02 -0.94801863274E+03  0.94873579814E+03  0.00000000000E+00 0.  1.
<scales pt_clust_3="99.74759" pt_clust_4="33.00565" pt_clust_5="14000.00000" pt_clust_6="36.58043"></scales>
<clustering>
<clus scale="   33.006">  1  4  2 -1</clus>
<clus scale="   36.580">  2  6  1 -1</clus>
<clus scale="   99.748">  2  3  1 -1</clus>
<clus scale="   33.006">  1  3  2 -1</clus>
</clustering>
</event>
<event>
 6    0  0.6864054E+002  0.5965586E+02  0.7546771E-02  0.1399282E+00
         21   -1    0    0  505  502  0.00000000000E+00  0.00000000000E+00  0.93004404660E+02  0.93004404660E+02  0.00000000000E+00 0. -1.
          1   -1    0    0  504    0 -0.00000000000E+00 -0.00000000000E+00 -0.12309496366E+04  0.12309496366E+04  0.00000000000E+00 0. -1.
         21    1    1    2  503  502  0.35745348648E+02 -0.10179639463E+02 -0.56674578777E+02  0.67774352739E+02  0.00000000000E+00 0. -1.
         21    1    1    2  504  503  0.15371785111E+02  0.39755145039E+02 -0.46689635189E+02  0.63219343311E+02  0.00000000000E+00 0. -1.
         21    1    1    2  505  501 -0.10898499063E+03 -0.41475737457E+02  0.34999493047E+02  0.12174945377E+03  0.00000000000E+00 0. -1.
          1    1    1    2  501    0  0.57867856873E+02  0.11900231881E+02 -0.10695805110E+04  0.10712108914E+04  0.00000000000E+00 0. -1.
<scales pt_clust_3="37.16658" pt_clust_4="43.08671" pt_clust_5="14000.00000" pt_clust_6="59.65586"></scales>
<clustering>
<clus scale="   37.167">  1  3  2 -1</clus>
<clus scale="   43.087">  1  4  2 -1</clus>
<clus scale="   59.656">  2  6  1 -1</clus>
<clus scale="   37.167">  1  3  2 -1</clus>
</clustering>
</event>
<event>
 6    0  0.3584505E+002  0.1789884E+03  0.7546771E-02  0.1168786E+00
         21   -1    0    0  503  502  0.00000000000E+00  0.00000000000E+00  0.11488575395E+03  0.11488575395E+03  0.00000000000E+00 0.  1.
          2   -1    0    0  504    0 -0.00000000000E+00 -0.00000000000E+00 -0.13185337822E+04  0.13185337822E+04  0.00000000000E+00 0.  1.
         21    1    1    2  503  505 -0.30964424418E+02 -0.10245599479E+03  0.51700838226E+01  0.10715762322E+03  0.00000000000E+00 0.  1.
         21    1    1    2  504  502 -0.36935595173E+02 -0.97378969536E+01 -0.49478577176E+02  0.62507554961E+02  0.00000000000E+00 0. -1.
         21    1    1    2  505  501  0.26904244990E+02 -0.48199929679E+02  0.30083422755E+02  0.62865602234E+02  0.00000000000E+00 0.  1.
          2    1    1    2  501    0  0.40995774602E+02  0.16039382142E+03 -0.11894229576E+04  0.12008887557E+04  0.00000000000E+00 0.  1.
<scales pt_clust_3="47.27332" pt_clust_4="38.19771" pt_clust_5="47.27332" pt_clust_6="164.57661"></scales>
<clustering>
<clus scale="   38.198">  1  4  2 -1</clus>
<clus scale="   47.273">  3  5 -1 -1</clus>
<clus scale="  164.577">  2  6  1 -1</clus>
<clus scale="   38.198">  1  3  2 -1</clus>
</clustering>
</event>
<event>
 6    0  0.3584505E+002  0.1388523E+03  0.7546771E-02  0.1214882E+00
          1   -1    0    0  504    0 -0.00000000000E+00  0.00000000000E+00  0.11628718052E+04  0.11628718052E+04  0.00000000000E+00 0.  1.
         21   -1    0    0  503  502  0.00000000000E+00 -0.00000000000E+00 -0.85917528999E+02  0.85917528999E+02  0.00000000000E+00 0. -1.
         21    1    1    2  503  501  0.28840053935E+02 -0.12057219517E+02 -0.22986982181E+02  0.38801116005E+02  0.00000000000E+00 0. -1.
         21    1    1    2  504  505  0.18613789646E+02  0.11779886659E+03  0.60887810866E+03  0.62044790058E+03  0.00000000000E+00 0.  1.
         21    1    1    2  505  502 -0.57404547068E+01 -0.13199074894E+03  0.43237426057E+02  0.13901073929E+03  0.00000000000E+00 0. -1.
          1    1    1    2  501    0 -0.41713388874E+02  0.26249101865E+02  0.44782572367E+03  0.45052957832E+03  0.00000000000E+00 0.  1.
<scales pt_clust_3="31.25900" pt_clust_4="138.85229" pt_clust_5="14000.00000" pt_clust_6="48.52776"></scales>
<clustering>
<clus scale="   31.259">  2  3  1 -1</clus>
<clus scale="   48.528">  1  6  2 -1</clus>
<clus scale="  138.852">  1  4  2 -1</clus>
<clus scale="   31.259">  2  3  1 -1</clus>
</clustering>
</event>
<event>
 6    0  0.3584505E+002  0.1722531E+03  0.7546771E-02  0.1175518E+00
          2   -1    0    0  504    0 -0.00000000000E+00  0.00000000000E+00  0.11152560482E+04  0.11152560482E+04  0.00000000000E+00 0. -1.
         21   -1    0    0  503  502  0.00000000000E+00 -0.00000000000E+00 -0.85077223284E+02  0.85077223284E+02  0.00000000000E+00 0.  1.
         21    1    1    2  503  501 -0.10718543260E+03  0.42368514160E+02  0.16085147707E+03  0.19788129176E+03  0.00000000000E+00 0.  1.
         21    1    1    2  504  505  0.91404014627E+02 -0.11232663655E+03  0.62164980894E+02  0.15759585026E+03  0.00000000000E+00 0.  1.
         21    1    1    2  505  502  0.53503206240E+02  0.77013405410E+01  0.25422549009E+02  0.59734493571E+02  0.00000000000E+00 0. -1.
          2    1    1    2  501    0 -0.37721788272E+02  0.62256781848E+02  0.78173981792E+03  0.78512163588E+03  0.00000000000E+00 0. -1.
<scales pt_clust_3="148.50850" pt_clust_4="53.31876" pt_clust_5="53.31876" pt_clust_6="72.79313"></scales>
<clustering>
<clus scale="   53.319">  4  5 -1 -1</clus>
<clus scale="   72.793">  1  6  2 -1</clus>
<clus scale="  148.509">  1  3  2 -1</clus>
<clus scale="  172.253">  2  3  1 -1</clus>
</clustering>
</event>
<event>
 6    0  0.3584505E+002  0.1002892E+03  0.7546771E-02  0.1279689E+00
         -2   -1    0    0    0  501 -0.00000000000E+00  0.00000000000E+00  0.96778990060E+02  0.96778990060E+02  0.00000000000E+00 0.  1.
         21   -1    0    0  505  502  0.00000000000E+00 -0.00000000000E+00 -0.97788551698E+03  0.97788551698E+03  0.00000000000E+00 0.  1.
         21    1    1    2  503  501 -0.34016487771E+02  0.31894437990E+02 -0.24910827360E+02  0.52867059070E+02  0.00000000000E+00 0.  1.
         21    1    1    2  504  503 -0.46211323175E+02  0.65372637495E+02 -0.23486962810E+03  0.24813869171E+03  0.00000000000E+00 0.  1.
         21    1    1    2  505  504  0.11034755819E+03 -0.52936023756E+02 -0.68188975979E+03  0.69278600644E+03  0.00000000000E+00 0.  1.
         -2    1    1    2    0  502 -0.30119747239E+02 -0.44331051728E+02  0.60563688322E+02  0.80872749825E+02  0.00000000000E+00 0.  1.
<scales pt_clust_3="46.63021" pt_clust_4="100.28923" pt_clust_5="14000.00000" pt_clust_6="61.59114"></scales>
<clustering>
<clus scale="   46.630">  1  3  2 -1</clus>
<clus scale="   61.591">  1  6  2 -1</clus>
<clus scale="  100.289">  1  4  2 -1</clus>
<clus scale="  100.289">  2  3  1 -1</clus>
</clustering>
</event>
<event>
 6    0  0.3584505E+002  0.9731873E+02  0.7546771E-02  0.1286037E+00
          1   -1    0    0  503    0 -0.00000000000E+00  0.00000000000E+00  0.92028242764E+03  0.92028242764E+03  0.00000000000E+00 0.  1.
         21   -1    0    0  501  502  0.00000000000E+00 -0.00000000000E+00 -0.61403025172E+03  0.61403025172E+03  0.00000000000E+00 0.  1.
         21    1    1    2  503  504  0.22006490209E+02 -0.12027809896E+03  0.40921138238E+03  0.42708905649E+03  0.00000000000E+00 0.  1.
         21    1    1    2  504  505 -0.23569921308E+02  0.12048165237E+03 -0.40525047682E+02  0.12928127953E+03  0.00000000000E+00 0.  1.
         21    1    1    2  505  502  0.14047848211E+02 -0.28522100148E+02 -0.51917829656E+03  0.52015089720E+03  0.00000000000E+00 0.  1.
          1    1    1    2  501    0 -0.12484417112E+02  0.28318546741E+02  0.45674413778E+03  0.45779144614E+03  0.00000000000E+00 0.  1.
<scales pt_clust_3="14000.00000" pt_clust_4="97.31873" pt_clust_5="31.76143" pt_clust_6="30.94836"></scales>
<clustering>
<clus scale="   30.948">  1  6  2 -1</clus>
<clus scale="   31.761">  2  5  1 -1</clus>
<clus scale="   97.319">  2  4  1 -1</clus>
<clus scale="   31.761">  2  3  1 -1</clus>
</clustering>
</event>
<event>
 6    0  0.3584505E+002  0.1106103E+03  0.7546771E-02  0.1259444E+00
         21   -1    0    0  505  502  0.00000000000E+00  0.00000000000E+00  0.15340144919E+04  0.15340144919E+04  0.00000000000E+00 0. -1.
          1   -1    0    0  504    0 -0.00000000000E+00 -0.00000000000E+00 -0.78392286236E+02  0.78392286236E+02  0.00000000000E+00 0. -1.
         21    1    1    2  503  502  0.81381601506E+02 -0.17245518958E+00  0.11966887120E+04  0.11994527370E+04  0.00000000000E+00 0. -1.
         21    1    1    2  504  503  0.25868722122E+02  0.10746705037E+03  0.29276270955E+02  0.11434796780E+03  0.00000000000E+00 0. -1.
         21    1    1    2  505  501 -0.49202853489E+02 -0.95078200336E+01  0.15417964330E+03  0.16211934444E+03  0.00000000000E+00 0. -1.
          1    1    1    2  501    0 -0.58047470139E+02 -0.97786775143E+02  0.75477579435E+02  0.13648672895E+03  0.00000000000E+00 0. -1.
<scales pt_clust_3="39.45281" pt_clust_4="110.61030" pt_clust_5="50.11307" pt_clust_6="14000.00000"></scales>
<clustering>
<clus scale="   50.113">  1  5  2 -1</clus>
<clus scale="   39.453">  1  3  2 -1</clus>
<clus scale="  110.610">  2  4  1 -1</clus>
<clus scale="   50.113">  1  3  2 -1</clus>
</clustering>
</event>
<event>
 6    0  0.3584505E+002  0.1100020E+03  0.7546771E-02  0.1260566E+00
         21   -1    0    0  504  502  0.00000000000E+00  0.00000000000E+00  0.56675975798E+02  0.56675975798E+02  0.00000000000E+00 0. -1.
          2   -1    0    0  505    0 -0.00000000000E+00 -0.00000000000E+00 -0.65494161468E+03  0.65494161468E+03  0.00000000000E+00 0. -1.
         21    1    1    2  503  502  0.22140748488E+02 -0.22231987668E+02 -0.23345033862E+02  0.39108370272E+02  0.00000000000E+00 0.  1.
         21    1    1    2  504  501  0.61740393612E+02  0.73900142398E+02 -0.94678070314E+02  0.13504460096E+03  0.00000000000E+00 0. -1.
         21    1    1    2  505  503 -0.55159998054E+02 -0.12973694434E+03 -0.19690919113E+03  0.24217252046E+03  0.00000000000E+00 0. -1.
          2    1    1    2  501    0 -0.28721144046E+02  0.78068789611E+02 -0.28333334358E+03  0.29529209879E+03  0.00000000000E+00 0. -1.
<scales pt_clust_3="31.37633" pt_clust_4="14000.00000" pt_clust_5="110.00195" pt_clust_6="79.70694"></scales>
<clustering>
<clus scale="   31.376">  1  3  2 -1</clus>
<clus scale="   79.707">  2  6  1 -1</clus>
<clus scale="  110.002">  2  5  1 -1</clus>
<clus scale="   31.376">  1  3  2 -1</clus>
</clustering>
</event>
<event>
 6    0  0.3584505E+002  0.9521797E+02  0.7546771E-02  0.1290686E+00
         21   -1    0    0  505  502  0.00000000000E+00  0.00000000000E+00  0.42998119221E+03  0.42998119221E+03  0.00000000000E+00 0. -1.
          1   -1    0    0  504    0 -0.00000000000E+00 -0.00000000000E+00 -0.63200193395E+03  0.63200193395E+03  0.00000000000E+00 0.  1.
         21    1    1    2  503  502  0.40044337089E+02  0.10554314427E+02  0.22842454570E+03  0.23214804666E+03  0.00000000000E+00 0. -1.
         21    1    1    2  504  503  0.61063709161E+02  0.70874153158E+02 -0.69115811856E+02  0.11631387540E+03  0.00000000000E+00 0.  1.
         21    1    1    2  505  501  0.94294464504E+00 -0.87348210389E+02  0.15998478070E+03  0.18227926119E+03  0.00000000000E+00 0. -1.
          1    1    1    2  501    0 -0.10205099090E+03  0.59197428038E+01 -0.52131425629E+03  0.53124194292E+03  0.00000000000E+00 0.  1.
<scales pt_clust_3="41.41186" pt_clust_4="95.21797" pt_clust_5="85.87596" pt_clust_6="14000.00000"></scales>
<clustering>
<clus scale="   41.412">  1  3  2 -1</clus>
<clus scale="   85.876">  1  5  2 -1</clus>
<clus scale="   95.218">  1  4  2 -1</clus>
<clus scale="   41.412">  1  3  2 -1</clus>
</clustering>
</event>
<event>
 6    0  0.3584505E+002  0.1361693E+03  0.7546771E-02  0.1218578E+00
          1   -1    0    0  502    0 -0.00000000000E+00  0.00000000000E+00  0.94522131198E+03  0.94522131198E+03  0.00000000000E+00 0. -1.
         21   -1    0    0  505  502  0.00000000000E+00 -0.00000000000E+00 -0.56760689297E+03  0.56760689297E+03  0.00000000000E+00 0.  1.
         21    1    1    2  503  501 -0.10504602202E+02 -0.13270017727E+03  0.10477865772E+02  0.13352703616E+03  0.00000000000E+00 0.  1.
         21    1    1    2  504  503  0.95185659701E+02  0.11767847931E+03 -0.13523848092E+03  0.20297285786E+03  0.00000000000E+00 0.  1.
         21    1    1    2  505  504 -0.11127766914E+03  0.30211704513E+02 -0.32682182314E+03  0.34656596893E+03  0.00000000000E+00 0.  1.
          1    1    1    2  501    0  0.26596611643E+02 -0.15190006558E+02  0.82919685730E+03  0.82976234200E+03  0.00000000000E+00 0. -1.
<scales pt_clust_3="14000.00000" pt_clust_4="136.16925" pt_clust_5="112.77913" pt_clust_6="30.62868"></scales>
<clustering>
<clus scale="   30.629">  1  6  2 -1</clus>
<clus scale="  112.779">  2  5  1 -1</clus>
<clus scale="  136.169">  2  4  1 -1</clus>
<clus scale="  112.779">  2  3  1 -1</clus>
</clustering>
</event>
<event>
 6    0  0.3584505E+002  0.2658505E+03  0.7546771E-02  0.1103678E+00
         21   -1    0    0  503  502  0.00000000000E+00  0.00000000000E+00  0.20808660451E+04  0.20808660451E+04  0.00000000000E+00 0.  1.
         -4   -1    0    0    0  501 -0.00000000000E+00 -0.00000000000E+00 -0.33526914550E+03  0.33526914550E+03  0.00000000000E+00 0. -1.
         21    1    1    2  503  504 -0.38992411588E+02  0.19045309482E+02  0.37800462412E+03  0.38048735568E+03  0.00000000000E+00 0. -1.
         21    1    1    2  504  501 -0.18802715497E+03  0.19672261377E+03  0.38319726514E+03  0.46999376781E+03  0.00000000000E+00 0. -1.
         21    1    1    2  505  502  0.18980945062E+03 -0.22018848273E+03  0.12571565430E+04  0.12903306433E+04  0.00000000000E+00 0.  1.
         -4    1    1    2    0  505  0.37210115931E+02  0.44205594793E+01 -0.27276153258E+03  0.27532342387E+03  0.00000000000E+00 0. -1.
<scales pt_clust_3="42.75849" pt_clust_4="14000.00000" pt_clust_5="265.85049" pt_clust_6="37.47178"></scales>
<clustering>
<clus scale="   37.472">  2  6  1 -1</clus>
<clus scale="   42.758">  1  3  2 -1</clus>
<clus scale="  265.850">  1  5  2 -1</clus>
<clus scale="   42.758">  1  3  2 -1</clus>
</clustering>
</event>
<event>
 6    0  0.3584505E+002  0.1358588E+03  0.7546771E-02  0.1219012E+00
         -2   -1    0    0    0  501 -0.00000000000E+00  0.00000000000E+00  0.82104478935E+02  0.82104478935E+02  0.00000000000E+00 0.  1.
         21   -1    0    0  503  502  0.00000000000E+00 -0.00000000000E+00 -0.17860135200E+04  0.17860135200E+04  0.00000000000E+00 0. -1.
         21    1    1    2  503  504  0.10397442731E+03 -0.28262098496E+02 -0.14802503765E+04  0.14841666365E+04  0.00000000000E+00 0. -1.
         21    1    1    2  504  501 -0.65265566510E+02 -0.29422518536E+02 -0.94264132040E+02  0.11836809265E+03  0.00000000000E+00 0.  1.
         21    1    1    2  505  502  0.43417044121E+02  0.50537985730E+02 -0.16335951952E+03  0.17642409229E+03  0.00000000000E+00 0.  1.
         -2    1    1    2    0  505 -0.82125904920E+02  0.71466313020E+01  0.33964986969E+02  0.89159177530E+02  0.00000000000E+00 0.  1.
<scales pt_clust_3="14000.00000" pt_clust_4="67.64637" pt_clust_5="66.62678" pt_clust_6="135.85875"></scales>
<clustering>
<clus scale="   66.627">  2  5  1 -1</clus>
<clus scale="   67.646">  1  4  2 -1</clus>
<clus scale="  135.859">  1  6  2 -1</clus>
<clus scale="   66.627">  2  3  1 -1</clus>
</clustering>
</event>
<event>
 6    0  0.3584505E+002  0.7481755E+02  0.7546771E-02  0.1344437E+00
          2   -1    0    0  503    0 -0.00000000000E+00  0.00000000000E+00  0.31257535844E+04  0.31257535844E+04  0.00000000000E+00 0. -1.
         21   -1    0    0  504  502  0.00000000000E+00 -0.00000000000E+00 -0.38769688771E+02  0.38769688771E+02  0.00000000000E+00 0. -1.
         21    1    1    2  503  505 -0.42998789830E+02 -0.89275471250E+01  0.58583570332E+03  0.58747941947E+03  0.00000000000E+00 0. -1.
         21    1    1    2  504  501  0.25915503495E+02 -0.99886745839E+02  0.12526215671E+03  0.16229474181E+03  0.00000000000E+00 0. -1.
         21    1    1    2  505  502 -0.63493781722E+01  0.64107816767E+02  0.34992924014E+02  0.73311878334E+02  0.00000000000E+00 0. -1.
          2    1    1    2  501    0  0.23432664507E+02  0.44706476198E+02  0.23408931116E+04  0.23414372336E+04  0.00000000000E+00 0. -1.
<scales pt_clust_3="43.91579" pt_clust_4="74.81755" pt_clust_5="14000.00000" pt_clust_6="39.91637"></scales>
<clustering>
<clus scale="   43.916">  1  3  2 -1</clus>
<clus scale="   39.916">  1  6  2 -1</clus>
<clus scale="   74.818">  1  4  2 -1</clus>
<clus scale="   74.818">  2  3  1 -1</clus>
</clustering>
</event>
<event>
 6    0  0.3584505E+002  0.1086226E+03  0.7546771E-02  0.1263142E+00
         21   -1    0    0  504  502  0.00000000000E+00  0.00000000000E+00  0.64761394664E+03  0.64761394664E+03  0.00000000000E+00 0. -1.
          2   -1    0    0  505    0 -0.00000000000E+00 -0.00000000000E+00 -0.91051735314E+03  0.91051735314E+03  0.00000000000E+00 0. -1.
         21    1    1    2  503  501 -0.91337274614E+02 -0.11718080247E+03 -0.16408707648E+03  0.22135583767E+03  0.00000000000E+00 0.  1.
         21    1    1    2  504  503 -0.29483872195E+02 -0.22325942585E+02  0.68431159875E+02  0.77785410417E+02  0.00000000000E+00 0.  1.
         21    1    1    2  505  502  0.74178043397E+02  0.11725569568E+03  0.53609116309E+03  0.55375537509E+03  0.00000000000E+00 0. -1.
          2    1    1    2  501    0  0.46643103413E+02  0.22251049375E+02 -0.70333865299E+03  0.70523467661E+03  0.00000000000E+00 0. -1.
<scales pt_clust_3="108.62262" pt_clust_4="36.98306" pt_clust_5="14000.00000" pt_clust_6="51.61893"></scales>
<clustering>
<clus scale="   36.983">  1  4  2 -1</clus>
<clus scale="   51.619">  2  6  1 -1</clus>
<clus scale="  108.623">  2  3  1 -1</clus>
<clus scale="   36.983">  1  3  2 -1</clus>
</clustering>
</event>
<event>
 6    0  0.3584505E+002  0.1270052E+03  0.7546771E-02  0.1231968E+00
          2   -1    0    0  503    0 -0.00000000000E+00  0.00000000000E+00  0.14699565454E+04  0.14699565454E+04  0.00000000000E+00 0. -1.
         21   -1    0    0  504  502  0.00000000000E+00 -0.00000000000E+00 -0.82416859810E+02  0.82416859810E+02  0.00000000000E+00 0.  1.
         21    1    1    2  503  502 -0.30746355692E+02 -0.13484144987E+01 -0.25477368305E+02  0.39953133867E+02  0.00000000000E+00 0.  1.
         21    1    1    2  504  505 -0.58882526133E+02 -0.11394337561E+03  0.59806250553E+02  0.14151689770E+03  0.00000000000E+00 0.  1.
         21    1    1    2  505  501  0.37453835317E+02  0.90592640676E+02  0.28988191204E+03  0.30600872414E+03  0.00000000000E+00 0. -1.
          2    1    1    2  501    0  0.52175046508E+02  0.24699149429E+02  0.10633288913E+04  0.10648946495E+04  0.00000000000E+00 0. -1.
<scales pt_clust_3="30.77591" pt_clust_4="14000.00000" pt_clust_5="127.00523" pt_clust_6="57.27942"></scales>
<clustering>
<clus scale="   30.776">  2  3  1 -1</clus>
<clus scale="   57.279">  1  6  2 -1</clus>
<clus scale="  127.005">  1  5  2 -1</clus>
<clus scale="   30.776">  2  3  1 -1</clus>
</clustering>
</event>
<event>
 6    0  0.3584505E+002  0.9424854E+02  0.7546771E-02  0.1292878E+00
          1   -1    0    0  505    0 -0.00000000000E+00  0.00000000000E+00  0.47542924156E+03  0.47542924156E+03  0.00000000000E+00 0.  1.
         21   -1    0    0  504  502  0.00000000000E+00 -0.00000000000E+00 -0.21264305480E+03  0.21264305480E+03  0.00000000000E+00 0.  1.
         21    1    1    2  503  501 -0.44429421511E+02  0.83063689602E+02  0.34860552030E+02  0.10044305906E+03  0.00000000000E+00 0. -1.
         21    1    1    2  504  503 -0.27158182854E+02  0.14800739237E+02 -0.12677129026E+03  0.13048980348E+03  0.00000000000E+00 0.  1.
         21    1    1    2  505  502  0.88307128904E+02 -0.64526589814E+02  0.93330494910E+01  0.10976764378E+03  0.00000000000E+00 0. -1.
          1    1    1    2  501    0 -0.16719524539E+02 -0.33337839025E+02  0.34536387550E+03  0.34737179004E+03  0.00000000000E+00 0.  1.
<scales pt_clust_3="94.24854" pt_clust_4="30.92942" pt_clust_5="14000.00000" pt_clust_6="37.28472"></scales>
<clustering>
<clus scale="   30.929">  2  4  1 -1</clus>
<clus scale="   37.285">  1  6  2 -1</clus>
<clus scale="   94.249">  1  3  2 -1</clus>
<clus scale="   30.929">  2  3  1 -1</clus>
</clustering>
</event>
<event>
 6    0  0.3584505E+002  0.9226919E+02  0.7546771E-02  0.1297448E+00
         21   -1    0    0  504  502  0.00000000000E+00  0.00000000000E+00  0.44179745881E+03  0.44179745881E+03  0.00000000000E+00 0. -1.
          1   -1    0    0  503    0 -0.00000000000E+00 -0.00000000000E+00 -0.35416204956E+03  0.35416204956E+03  0.00000000000E+00 0. -1.
         21    1    1    2  503  505  0.43121559593E+02  0.50167037856E+02 -0.75202097245E+02  0.10015765582E+03  0.00000000000E+00 0.  1.
         21    1    1    2  504  501  0.13446949545E+02  0.62328763017E+02  0.10313369992E+03  0.12125285650E+03  0.00000000000E+00 0.  1.
         21    1    1    2  505  502  0.16812607905E+02  0.28204818271E+02  0.29166194785E+03  0.29350445888E+03  0.00000000000E+00 0. -1.
          1    1    1    2  501    0 -0.73381117044E+02 -0.14070061914E+03 -0.23195814128E+03  0.28104453717E+03  0.00000000000E+00 0. -1.
<scales pt_clust_3="68.85955" pt_clust_4="92.26919" pt_clust_5="32.83558" pt_clust_6="14000.00000"></scales>
<clustering>
<clus scale="   32.836">  1  5  2 -1</clus>
<clus scale="   68.860">  2  3  1 -1</clus>
<clus scale="   92.269">  1  4  2 -1</clus>
<clus scale="   32.836">  1  3  2 -1</clus>
</clustering>
</event>
<event>
 6    0  0.3584505E+002  0.7704805E+02  0.7546771E-02  0.1337644E+00
          4   -1    0    0  504    0 -0.00000000000E+00  0.00000000000E+00  0.29975901826E+03  0.29975901826E+03  0.00000000000E+00 0. -1.
         21   -1    0    0  505  502  0.00000000000E+00 -0.00000000000E+00 -0.36125173411E+03  0.36125173411E+03  0.00000000000E+00 0. -1.
         21    1    1    2  503  501 -0.43556192163E+01 -0.85259907085E+02 -0.26885628621E+02  0.89504526149E+02  0.00000000000E+00 0. -1.
         21    1    1    2  504  502  0.62239695173E+02 -0.63505284088E+01 -0.90195336624E+02  0.10976933823E+03  0.00000000000E+00 0. -1.
         21    1    1    2  505  503  0.46222132932E+01  0.42224188448E+02 -0.19459502021E+03  0.19917697868E+03  0.00000000000E+00 0. -1.
          4    1    1    2  501    0 -0.62506289250E+02  0.49386247046E+02  0.25018326960E+03  0.26255990932E+03  0.00000000000E+00 0. -1.
<scales pt_clust_3="14000.00000" pt_clust_4="67.86373" pt_clust_5="42.47643" pt_clust_6="77.04805"></scales>
<clustering>
<clus scale="   42.476">  2  5  1 -1</clus>
<clus scale="   67.864">  2  4  1 -1</clus>
<clus scale="   77.048">  1  6  2 -1</clus>
<clus scale="   42.476">  2  3  1 -1</clus>
</clustering>
</event>
<event>
 6    0  0.3584505E+002  0.1613196E+03  0.7546771E-02  0.1187215E+00
          2   -1    0    0  503    0 -0.00000000000E+00  0.00000000000E+00  0.32632199497E+04  0.32632199497E+04  0.00000000000E+00 0.  1.
         21   -1    0    0  504  502  0.00000000000E+00 -0.00000000000E+00 -0.20025104490E+02  0.20025104490E+02  0.00000000000E+00 0. -1.
         21    1    1    2  503  502 -0.17528847969E+02 -0.34653719492E+02  0.34788039739E+02  0.52137783753E+02  0.00000000000E+00 0. -1.
         21    1    1    2  504  505 -0.10092243593E+03 -0.68701739347E+02  0.41447108152E+03  0.43207816941E+03  0.00000000000E+00 0. -1.
         21    1    1    2  505  501  0.62371231768E+02  0.50105967931E+02  0.91111047322E+03  0.91461635290E+03  0.00000000000E+00 0.  1.
          2    1    1    2  501    0  0.56080052135E+02  0.53249490908E+02  0.18828252508E+04  0.18844127482E+04  0.00000000000E+00 0.  1.
<scales pt_clust_3="38.83479" pt_clust_4="149.16431" pt_clust_5="61.35174" pt_clust_6="61.35174"></scales>
<clustering>
<clus scale="   38.835">  2  3  1 -1</clus>
<clus scale="   61.352">  5  6 -1 -1</clus>
<clus scale="  149.164">  2  4  1 -1</clus>
<clus scale="   38.835">  2  3  1 -1</clus>
</clustering>
</event>
<event>
 6    0  0.3584505E+002  0.1538840E+03  0.7546771E-02  0.1195780E+00
          2   -1    0    0  503    0 -0.00000000000E+00  0.00000000000E+00  0.34700009957E+04  0.34700009957E+04  0.00000000000E+00 0. -1.
         21   -1    0    0  504  502  0.00000000000E+00 -0.00000000000E+00 -0.21451293898E+03  0.21451293898E+03  0.00000000000E+00 0.  1.
         21    1    1    2  503  505  0.36192815810E+02 -0.13996872341E+03  0.51351620672E+03  0.53347920111E+03  0.00000000000E+00 0.  1.
         21    1    1    2  504  501 -0.34414661230E+02  0.74092651089E+02 -0.14154821320E+03  0.16343190176E+03  0.00000000000E+00 0.  1.
         21    1    1    2  505  502 -0.35579779378E+02  0.86927519797E+02 -0.94112274705E+01  0.94397487261E+02  0.00000000000E+00 0. -1.
          2    1    1    2  501    0  0.33801624799E+02 -0.21051447474E+02  0.28929312907E+04  0.28932053446E+04  0.00000000000E+00 0. -1.
<scales pt_clust_3="14000.00000" pt_clust_4="81.06400" pt_clust_5="153.88403" pt_clust_6="39.82102"></scales>
<clustering>
<clus scale="   39.821">  1  6  2 -1</clus>
<clus scale="   81.064">  2  4  1 -1</clus>
<clus scale="  153.884">  2  5  1 -1</clus>
<clus scale="   81.064">  2  3  1 -1</clus>
</clustering>
</event>
<event>
 6    0  0.3584505E+002  0.7375539E+02  0.7546771E-02  0.1347769E+00
         21   -1    0    0  503  502  0.00000000000E+00  0.00000000000E+00  0.58142994429E+03  0.58142994429E+03  0.00000000000E+00 0. -1.
         -3   -1    0    0    0  501 -0.00000000000E+00 -0.00000000000E+00 -0.77343417487E+03  0.77343417487E+03  0.00000000000E+00 0. -1.
         21    1    1    2  503  504 -0.42218919141E+02  0.62711982078E+02  0.10179500743E+03  0.12679689810E+03  0.00000000000E+00 0. -1.
         21    1    1    2  504  501  0.56978202166E+02 -0.72769110649E+02 -0.35898176940E+02  0.99149070063E+02  0.00000000000E+00 0. -1.
         21    1    1    2  505  502  0.44468974782E+02 -0.32332117211E+02  0.43184821669E+03  0.43533405309E+03  0.00000000000E+00 0. -1.
         -3    1    1    2    0  505 -0.59228257807E+02  0.42389245782E+02 -0.68974927777E+03  0.69358409790E+03  0.00000000000E+00 0. -1.
<scales pt_clust_3="38.52176" pt_clust_4="14000.00000" pt_clust_5="54.98050" pt_clust_6="73.75539"></scales>
<clustering>
<clus scale="   54.981">  1  5  2 -1</clus>
<clus scale="   38.522">  1  3  2 -1</clus>
<clus scale="   73.755">  2  6  1 -1</clus>
<clus scale="   54.981">  1  3  2 -1</clus>
</clustering>
</event>
<event>
 6    0  0.3584505E+002  0.1813114E+03  0.7546771E-02  0.1166540E+00
          3   -1    0    0  504    0 -0.00000000000E+00  0.00000000000E+00  0.96021106041E+03  0.96021106041E+03  0.00000000000E+00 0. -1.
         21   -1    0    0  505  502  0.00000000000E+00 -0.00000000000E+00 -0.40882959726E+03  0.40882959726E+03  0.00000000000E+00 0.  1.
         21    1    1    2  503  502 -0.81507780049E+01 -0.19831059712E+03 -0.15255643972E+03  0.25033376802E+03  0.00000000000E+00 0.  1.
         21    1    1    2  504  503  0.19669262599E+02 -0.80801165208E+02 -0.13555886618E+03  0.15903431828E+03  0.00000000000E+00 0. -1.
         21    1    1    2  505  501  0.80344298126E+01  0.12058308990E+03  0.17274392821E+02  0.12207881995E+03  0.00000000000E+00 0. -1.
          3    1    1    2  501    0 -0.19552914406E+02  0.15852867242E+03  0.82222237623E+03  0.83759375142E+03  0.00000000000E+00 0. -1.
<scales pt_clust_3="52.32999" pt_clust_4="52.32999" pt_clust_5="120.85046" pt_clust_6="162.29007"></scales>
<clustering>
<clus scale="   52.330">  3  4 -1 -1</clus>
<clus scale="  120.850">  2  5  1 -1</clus>
<clus scale="  162.290">  1  6  2 -1</clus>
<clus scale="  120.850">  2  3  1 -1</clus>
</clustering>
</event>
<event>
 6    0  0.3584505E+002  0.1523208E+03  0.7546771E-02  0.1197650E+00
         21   -1    0    0  504  502  0.00000000000E+00  0.00000000000E+00  0.54970105190E+03  0.54970105190E+03  0.00000000000E+00 0.  1.
          1   -1    0    0  502    0 -0.00000000000E+00 -0.00000000000E+00 -0.20224718013E+04  0.20224718013E+04  0.00000000000E+00 0. -1.
         21    1    1    2  503  501  0.99949028943E+02  0.34640491898E+02  0.63312069335E+02  0.12328094009E+03  0.00000000000E+00 0.  1.
         21    1    1    2  504  505 -0.14663743453E+03  0.57252204257E+02  0.38357288537E+03  0.41461851200E+03  0.00000000000E+00 0.  1.
         21    1    1    2  505  503  0.94814621632E+02 -0.97830280219E+02 -0.24409119396E+02  0.13840657973E+03  0.00000000000E+00 0. -1.
          1    1    1    2  501    0 -0.48126216047E+02  0.59375840635E+01 -0.18952465847E+04  0.18958668213E+04  0.00000000000E+00 0. -1.
<scales pt_clust_3="95.63130" pt_clust_4="152.32080" pt_clust_5="14000.00000" pt_clust_6="48.49111"></scales>
<clustering>
<clus scale="   48.491">  2  6  1 -1</clus>
<clus scale="   95.631">  2  3  1 -1</clus>
<clus scale="  152.321">  1  4  2 -1</clus>
<clus scale="  152.321">  1  3  2 -1</clus>
</clustering>
</event>
<event>
 6    0  0.3584505E+002  0.1359012E+03  0.7546771E-02  0.1218953E+00
          4   -1    0    0  502    0 -0.00000000000E+00  0.00000000000E+00  0.22495213926E+04  0.22495213926E+04  0.00000000000E+00 0. -1.
         21   -1    0    0  503  502  0.00000000000E+00 -0.00000000000E+00 -0.31569754817E+03  0.31569754817E+03  0.00000000000E+00 0.  1.
         21    1    1    2  503  505 -0.21898754068E+02  0.63173989701E+02 -0.97645555989E+02  0.11834341135E+03  0.00000000000E+00 0.  1.
         21    1    1    2  504  501 -0.89325736355E+02  0.31761830747E+02  0.21000827337E+03  0.23041565909E+03  0.00000000000E+00 0.  1.
         21    1    1    2  505  504  0.16368827108E+03 -0.70363712599E+02 -0.15680531255E+03  0.23734533529E+03  0.00000000000E+00 0.  1.
          4    1    1    2  501    0 -0.52463780657E+02 -0.24572107849E+02  0.19782664396E+04  0.19791145351E+04  0.00000000000E+00 0. -1.
<scales pt_clust_3="66.66767" pt_clust_4="14000.00000" pt_clust_5="135.90118" pt_clust_6="57.93304"></scales>
<clustering>
<clus scale="   57.933">  1  6  2 -1</clus>
<clus scale="   66.668">  2  3  1 -1</clus>
<clus scale="  135.901">  2  5  1 -1</clus>
<clus scale="   66.668">  2  3  1 -1</clus>
</clustering>
</event>
<event>
 6    0  0.3584505E+002  0.1154282E+03  0.7546771E-02  0.1250836E+00
         21   -1    0    0  503  502  0.00000000000E+00  0.00000000000E+00  0.47587799514E+02  0.47587799514E+02  0.00000000000E+00 0. -1.
          1   -1    0    0  504    0 -0.00000000000E+00 -0.00000000000E+00 -0.33245069797E+04  0.33245069797E+04  0.00000000000E+00 0. -1.
         21    1    1    2  503  501 -0.10980690578E+03 -0.21758402097E+02 -0.24156237088E+03  0.26623929771E+03  0.00000000000E+00 0. -1.
         21    1    1    2  504  505 -0.21658756227E+02 -0.51692129927E+02 -0.97101487695E+03  0.97263100366E+03  0.00000000000E+00 0. -1.
         21    1    1    2  505  502  0.10192379609E+03 -0.85158173599E+02 -0.11061367409E+03  0.17284605762E+03  0.00000000000E+00 0. -1.
          1    1    1    2  501    0  0.29541865925E+02  0.15860870562E+03 -0.19537282583E+04  0.19603784202E+04  0.00000000000E+00 0. -1.
<scales pt_clust_3="115.42815" pt_clust_4="56.04621" pt_clust_5="113.53638" pt_clust_6="14000.00000"></scales>
<clustering>
<clus scale="   56.046">  2  4  1 -1</clus>
<clus scale="  115.428">  1  3  2 -1</clus>
<clus scale="  113.536">  1  5  2 -1</clus>
<clus scale="  115.428">  1  3  2 -1</clus>
</clustering>
</event>
<event>
 6    0  0.3584505E+002  0.8051459E+02  0.7546771E-02  0.1327597E+00
          3   -1    0    0  505    0 -0.00000000000E+00  0.00000000000E+00  0.78902338129E+03  0.78902338129E+03  0.00000000000E+00 0. -1.
         21   -1    0    0  503  502  0.00000000000E+00 -0.00000000000E+00 -0.67686558119E+02  0.67686558119E+02  0.00000000000E+00 0.  1.
         21    1    1    2  503  504  0.15647055567E+02  0.78110299835E+02 -0.17613120749E+02  0.81585974963E+02  0.00000000000E+00 0.  1.
         21    1    1    2  504  501 -0.47622814070E+02  0.47255215470E+02  0.13034698245E+03  0.14659919387E+03  0.00000000000E+00 0. -1.
         21    1    1    2  505  502  0.14330569694E+02 -0.90584210441E+02  0.22541770576E+03  0.24335982922E+03  0.00000000000E+00 0. -1.
          3    1    1    2  501    0  0.17645188810E+02 -0.34781304864E+02  0.38318525571E+03  0.38516494136E+03  0.00000000000E+00 0. -1.
<scales pt_clust_3="80.51459" pt_clust_4="54.58718" pt_clust_5="14000.00000" pt_clust_6="39.00118"></scales>
<clustering>
<clus scale="   39.001">  1  6  2 -1</clus>
<clus scale="   54.587">  1  4  2 -1</clus>
<clus scale="   80.515">  2  3  1 -1</clus>
<clus scale="   80.515">  2  3  1 -1</clus>
</clustering>
</event>
<event>
 6    0  0.3584505E+002  0.9471556E+02  0.7546771E-02  0.1291818E+00
          2   -1    0    0  504    0 -0.00000000000E+00  0.00000000000E+00  0.21975064290E+04  0.21975064290E+04  0.00000000000E+00 0.  1.
         21   -1    0    0  505  502  0.00000000000E+00 -0.00000000000E+00 -0.33642282925E+03  0.33642282925E+03  0.00000000000E+00 0.  1.
         21    1    1    2  503  501  0.49654673958E+02 -0.11428802090E+03  0.29671774524E+03  0.32182100415E+03  0.00000000000E+00 0. -1.
         21    1    1    2  504  502  0.21286542327E+02  0.11349793805E+03 -0.15974444678E+03  0.19711211810E+03  0.00000000000E+00 0.  1.
         21    1    1    2  505  503  0.14586953836E+02 -0.39459543762E+02 -0.14117874933E+03  0.14731352307E+03  0.00000000000E+00 0.  1.
          2    1    1    2  501    0 -0.85528170122E+02  0.40249626619E+02  0.18652890506E+04  0.18676826130E+04  0.00000000000E+00 0.  1.
<scales pt_clust_3="14000.00000" pt_clust_4="84.38478" pt_clust_5="42.06940" pt_clust_6="94.71556"></scales>
<clustering>
<clus scale="   42.069">  2  5  1 -1</clus>
<clus scale="   84.385">  2  4  1 -1</clus>
<clus scale="   94.716">  1  6  2 -1</clus>
<clus scale="   42.069">  2  3  1 -1</clus>
</clustering>
</event>
<event>
 6    0  0.3584505E+002  0.1355009E+03  0.7546771E-02  0.1219514E+00
          3   -1    0    0  504    0 -0.00000000000E+00  0.00000000000E+00  0.66740583835E+03  0.66740583835E+03  0.00000000000E+00 0. -1.
         21   -1    0    0  505  502  0.00000000000E+00 -0.00000000000E+00 -0.19695306384E+03  0.19695306384E+03  0.00000000000E+00 0. -1.
         21    1    1    2  503  501  0.27562954106E+02  0.91943548101E+02  0.11876796132E+03  0.15270612664E+03  0.00000000000E+00 0. -1.
         21    1    1    2  504  502 -0.34674500707E+02 -0.15003207563E+03 -0.92974294116E+02  0.17987819235E+03  0.00000000000E+00 0. -1.
         21    1    1    2  505  503 -0.27684627575E+02  0.15522098051E+02 -0.35993066992E+02  0.47988279854E+02  0.00000000000E+00 0. -1.
          3    1    1    2  501    0  0.34796174177E+02  0.42566429481E+02  0.48065217429E+03  0.48378630335E+03  0.00000000000E+00 0. -1.
<scales pt_clust_3="14000.00000" pt_clust_4="135.50093" pt_clust_5="31.73916" pt_clust_6="54.92411"></scales>
<clustering>
<clus scale="   31.739">  2  5  1 -1</clus>
<clus scale="   54.924">  1  6  2 -1</clus>
<clus scale="  135.501">  2  4  1 -1</clus>
<clus scale="   31.739">  2  3  1 -1</clus>
</clustering>
</event>
<event>
 6    0  0.3584505E+002  0.8440345E+02  0.7546771E-02  0.1317000E+00
         -1   -1    0    0    0  501 -0.00000000000E+00  0.00000000000E+00  0.17286905150E+03  0.17286905150E+03  0.00000000000E+00 0. -1.
         21   -1    0    0  503  502  0.00000000000E+00 -0.00000000000E+00 -0.88845681679E+03  0.88845681679E+03  0.00000000000E+00 0.  1.
         21    1    1    2  503  501 -0.84780929639E+02  0.10303950841E+03 -0.11463351029E+03  0.17591414953E+03  0.00000000000E+00 0.  1.
         21    1    1    2  504  502 -0.51664336592E+02 -0.20874737959E+02 -0.43562029886E+03  0.43916967466E+03  0.00000000000E+00 0.  1.
         21    1    1    2  505  504  0.62552169990E+02 -0.48314073138E+02 -0.28824676187E+03  0.29888663296E+03  0.00000000000E+00 0.  1.
         -1    1    1    2    0  505  0.73893096242E+02 -0.33850697311E+02  0.12291280573E+03  0.14735541114E+03  0.00000000000E+00 0. -1.
<scales pt_clust_3="84.40345" pt_clust_4="55.72215" pt_clust_5="68.32572" pt_clust_6="14000.00000"></scales>
<clustering>
<clus scale="   55.722">  2  4  1 -1</clus>
<clus scale="   68.326">  2  5  1 -1</clus>
<clus scale="   84.403">  2  3  1 -1</clus>
<clus scale="   55.722">  2  3  1 -1</clus>
</clustering>
</event>
<event>
 6    0  0.3584505E+002  0.1004751E+03  0.7546771E-02  0.1279300E+00
          1   -1    0    0  504    0 -0.00000000000E+00  0.00000000000E+00  0.31281496857E+04  0.31281496857E+04  0.00000000000E+00 0.  1.
         21   -1    0    0  501  502  0.00000000000E+00 -0.00000000000E+00 -0.77542034232E+02  0.77542034232E+02  0.00000000000E+00 0.  1.
         21    1    1    2  503  505 -0.64311919548E+02  0.24893569745E+02  0.12042105733E+03  0.13876939093E+03  0.00000000000E+00 0.  1.
         21    1    1    2  504  503 -0.42643779763E+02  0.13870119447E+02  0.41324225458E+03  0.41566817672E+03  0.00000000000E+00 0.  1.
         21    1    1    2  505  502  0.65651639349E+02 -0.96763039576E+02 -0.15370516903E+02  0.11793844313E+03  0.00000000000E+00 0.  1.
          1    1    1    2  501    0  0.41304059962E+02  0.57999350383E+02  0.25323148565E+04  0.25333157092E+04  0.00000000000E+00 0.  1.
<scales pt_clust_3="14000.00000" pt_clust_4="44.84275" pt_clust_5="100.47514" pt_clust_6="70.96088"></scales>
<clustering>
<clus scale="   44.843">  1  4  2 -1</clus>
<clus scale="   70.961">  1  6  2 -1</clus>
<clus scale="  100.475">  2  5  1 -1</clus>
<clus scale="  100.475">  2  3  1 -1</clus>
</clustering>
</event>
<event>
 6    0  0.3584505E+002  0.1036137E+03  0.7546771E-02  0.1272875E+00
          2   -1    0    0  503    0 -0.00000000000E+00  0.00000000000E+00  0.43580029922E+03  0.43580029922E+03  0.00000000000E+00 0. -1.
         21   -1    0    0  504  502  0.00000000000E+00 -0.00000000000E+00 -0.69097982982E+03  0.69097982982E+03  0.00000000000E+00 0. -1.
         21    1    1    2  503  502  0.42133344772E+02 -0.93154528449E+02 -0.42680172088E+03  0.43887662715E+03  0.00000000000E+00 0.  1.
         21    1    1    2  504  505 -0.68835326145E+02 -0.78348544848E+01 -0.21242058138E+03  0.22343274260E+03  0.00000000000E+00 0. -1.
         21    1    1    2  505  501  0.67942326278E+02  0.10017907844E+03  0.55176909139E+02  0.13302818784E+03  0.00000000000E+00 0. -1.
          2    1    1    2  501    0 -0.41240344906E+02  0.81030448994E+00  0.32886586252E+03  0.33144257146E+03  0.00000000000E+00 0. -1.
<scales pt_clust_3="14000.00000" pt_clust_4="71.41115" pt_clust_5="103.61368" pt_clust_6="41.24830"></scales>
<clustering>
<clus scale="   41.248">  1  6  2 -1</clus>
<clus scale="   71.411">  2  4  1 -1</clus>
<clus scale="  103.614">  1  5  2 -1</clus>
<clus scale="   71.411">  2  3  1 -1</clus>
</clustering>
</event>
<event>
 6    0  0.3584505E+002  0.1059975E+03  0.7546771E-02  0.1268167E+00
         21   -1    0    0  505  502  0.00000000000E+00  0.00000000000E+00  0.18109885771E+03  0.18109885771E+03  0.00000000000E+00 0.  1.
          2   -1    0    0  502    0 -0.00000000000E+00 -0.00000000000E+00 -0.11050957496E+04  0.11050957496E+04  0.00000000000E+00 0. -1.
         21    1    1    2  503  501  0.28057457723E+02  0.85502229858E+02 -0.12683320748E+03  0.15551371246E+03  0.00000000000E+00 0.  1.
         21    1    1    2  504  503 -0.29380137021E+01 -0.83540450420E+02  0.36745874166E+02  0.91312091472E+02  0.00000000000E+00 0.  1.
         21    1    1    2  505  504 -0.20950578406E+02 -0.41940931243E+02  0.96924286797E+02  0.10766747801E+03  0.00000000000E+00 0.  1.
          2    1    1    2  501    0 -0.41688656148E+01  0.39979151805E+02 -0.93083384533E+03  0.93170132534E+03  0.00000000000E+00 0. -1.
<scales pt_clust_3="105.99749" pt_clust_4="14000.00000" pt_clust_5="45.83971" pt_clust_6="40.19592"></scales>
<clustering>
<clus scale="   40.196">  2  6  1 -1</clus>
<clus scale="   45.840">  1  5  2 -1</clus>
<clus scale="  105.997">  2  3  1 -1</clus>
<clus scale="   45.840">  1  3  2 -1</clus>
</clustering>
</event>
<event>
 6    0  0.3584505E+002  0.1148767E+03  0.7546771E-02  0.1251796E+00
         21   -1    0    0  505  502  0.00000000000E+00  0.00000000000E+00  0.31806954089E+02  0.31806954089E+02  0.00000000000E+00 0. -1.
          2   -1    0    0  504    0 -0.00000000000E+00 -0.00000000000E+00 -0.37532270428E+04  0.37532270428E+04  0.00000000000E+00 0. -1.
         21    1    1    2  503  502  0.78644137197E+02  0.67446535590E+02 -0.19394819054E+03  0.21988596156E+03  0.00000000000E+00 0. -1.
         21    1    1    2  504  503  0.74347103570E+01  0.37977229513E+02 -0.12876041017E+03  0.13444994647E+03  0.00000000000E+00 0. -1.
         21    1    1    2  505  501 -0.51926477388E+02 -0.72088636459E+02 -0.10891139072E+03  0.14055184662E+03  0.00000000000E+00 0. -1.
          2    1    1    2  501    0 -0.34152370166E+02 -0.33335128644E+02 -0.32898000972E+04  0.32901462422E+04  0.00000000000E+00 0. -1.
<scales pt_clust_3="32.85154" pt_clust_4="32.85154" pt_clust_5="101.52488" pt_clust_6="47.72437"></scales>
<clustering>
<clus scale="   32.852">  3  4 -1 -1</clus>
<clus scale="   47.724">  2  6  1 -1</clus>
<clus scale="  101.525">  1  5  2 -1</clus>
<clus scale="  101.525">  1  3  2 -1</clus>
</clustering>
</event>
<event>
 6    0  0.3584505E+002  0.8527565E+02  0.7546771E-02  0.1314713E+00
         21   -1    0    0  505  502  0.00000000000E+00  0.00000000000E+00  0.27435830053E+03  0.27435830053E+03  0.00000000000E+00 0. -1.
          2   -1    0    0  504    0 -0.00000000000E+00 -0.00000000000E+00 -0.12945974089E+04  0.12945974089E+04  0.00000000000E+00 0. -1.
         21    1    1    2  503  502 -0.26197434629E+02  0.20178160227E+02  0.25034170235E+03  0.25251620080E+03  0.00000000000E+00 0. -1.
         21    1    1    2  504  503  0.82720229335E+02 -0.57440287508E+02 -0.32740961645E+03  0.34254792353E+03  0.00000000000E+00 0. -1.
         21    1    1    2  505  501 -0.70744502140E+02 -0.91257895770E+01 -0.71933616260E+02  0.10130404615E+03  0.00000000000E+00 0.  1.
          2    1    1    2  501    0  0.14221707434E+02  0.46387916858E+02 -0.87123757801E+03  0.87258753895E+03  0.00000000000E+00 0. -1.
<scales pt_clust_3="33.06756" pt_clust_4="14000.00000" pt_clust_5="85.27565" pt_clust_6="48.86938"></scales>
<clustering>
<clus scale="   33.068">  1  3  2 -1</clus>
<clus scale="   48.869">  2  6  1 -1</clus>
<clus scale="   85.276">  1  5  2 -1</clus>
<clus scale="   33.068">  1  3  2 -1</clus>
</clustering>
</event>
<event>
 6    0  0.3584505E+002  0.1733630E+03  0.7546771E-02  0.1174385E+00
         21   -1    0    0  505  502  0.00000000000E+00  0.00000000000E+00  0.38622819029E+03  0.38622819029E+03  0.00000000000E+00 0.  1.
          2   -1    0    0  503    0 -0.00000000000E+00 -0.00000000000E+00 -0.15371795152E+04  0.15371795152E+04  0.00000000000E+00 0.  1.
         21    1    1    2  503  502  0.55494211187E+02  0.53798857720E+02 -0.85508455646E+02  0.11526326628E+03  0.00000000000E+00 0.  1.
         21    1    1    2  504  501  0.18186826540E+02 -0.67953176520E+02  0.11169725589E+03  0.13200254479E+03  0.00000000000E+00 0. -1.
         21    1    1    2  505  504 -0.60344964635E+02 -0.81486267322E+02  0.23748432881E+03  0.25822535304E+03  0.00000000000E+00 0.  1.
          2    1    1    2  501    0 -0.13336073092E+02  0.95640586122E+02 -0.14146244539E+04  0.14179165413E+04  0.00000000000E+00 0.  1.
<scales pt_clust_3="77.29117" pt_clust_4="65.79821" pt_clust_5="65.79821" pt_clust_6="154.31838"></scales>
<clustering>
<clus scale="   65.798">  4  5 -1 -1</clus>
<clus scale="   77.291">  2  3  1 -1</clus>
<clus scale="  154.318">  2  6  1 -1</clus>
<clus scale="  173.363">  1  3  2 -1</clus>
</clustering>
</event>
<event>
 6    0  0.3584505E+002  0.5928788E+02  0.7546771E-02  0.1400845E+00
         21   -1    0    0  505  502  0.00000000000E+00  0.00000000000E+00  0.29704044084E+03  0.29704044084E+03  0.00000000000E+00 0.  1.
          1   -1    0    0  504    0 -0.00000000000E+00 -0.00000000000E+00 -0.35110075671E+03  0.35110075671E+03  0.00000000000E+00 0.  1.
         21    1    1    2  503  502 -0.30028906182E+02 -0.49282408436E+02  0.41601992164E+02  0.71142228948E+02  0.00000000000E+00 0.  1.
         21    1    1    2  504  503  0.37510449484E+02 -0.20899196984E+02 -0.43309314616E+02  0.60987760965E+02  0.00000000000E+00 0.  1.
         21    1    1    2  505  501  0.63562565113E+02  0.11809701125E+02  0.21960827667E+03  0.22892676538E+03  0.00000000000E+00 0.  1.
          1    1    1    2  501    0 -0.71044108415E+02  0.58371904295E+02 -0.27196127009E+03  0.28708444225E+03  0.00000000000E+00 0.  1.
<scales pt_clust_3="59.28788" pt_clust_4="42.93961" pt_clust_5="14000.00000" pt_clust_6="52.93199"></scales>
<clustering>
<clus scale="   42.940">  2  4  1 -1</clus>
<clus scale="   52.932">  2  6  1 -1</clus>
<clus scale="   59.288">  2  3  1 -1</clus>
<clus scale="   59.288">  1  3  2 -1</clus>
</clustering>
</event>
<event>
 6    0  0.3584505E+002  0.3248869E+03  0.7546771E-02  0.1073422E+00
          2   -1    0    0  502    0 -0.00000000000E+00  0.00000000000E+00  0.45813195895E+03  0.45813195895E+03  0.00000000000E+00 0. -1.
         21   -1    0    0  504  502  0.00000000000E+00 -0.00000000000E+00 -0.16485919034E+04  0.16485919034E+04  0.00000000000E+00 0. -1.
         21    1    1    2  503  501 -0.17112695695E+02  0.62501097412E+02  0.10831014958E+03  0.12621537162E+03  0.00000000000E+00 0. -1.
         21    1    1    2  504  505  0.28913446014E+03 -0.17580951328E+03 -0.11936614462E+04  0.12406995483E+04  0.00000000000E+00 0. -1.
         21    1    1    2  505  503 -0.24464337132E+03  0.16534404159E+03 -0.36720446400E+03  0.47119863073E+03  0.00000000000E+00 0. -1.
          2    1    1    2  501    0 -0.27378393122E+02 -0.52035625727E+02  0.26209581611E+03  0.26861031175E+03  0.00000000000E+00 0. -1.
<scales pt_clust_3="45.73652" pt_clust_4="14000.00000" pt_clust_5="324.88691" pt_clust_6="58.79866"></scales>
<clustering>
<clus scale="   58.799">  1  6  2 -1</clus>
<clus scale="   45.737">  1  3  2 -1</clus>
<clus scale="  324.887">  1  5  2 -1</clus>
<clus scale="  324.887">  2  3  1 -1</clus>
</clustering>
</event>
<event>
 6    0  0.3584505E+002  0.1380288E+03  0.7546771E-02  0.1216006E+00
         21   -1    0    0  503  502  0.00000000000E+00  0.00000000000E+00  0.45497952598E+03  0.45497952598E+03  0.00000000000E+00 0. -1.
          2   -1    0    0  505    0 -0.00000000000E+00 -0.00000000000E+00 -0.78120064703E+03  0.78120064703E+03  0.00000000000E+00 0.  1.
         21    1    1    2  503  501 -0.88268949694E+02 -0.74053821946E+02  0.13559088575E+03  0.17793331426E+03  0.00000000000E+00 0. -1.
         21    1    1    2  504  502 -0.90584967305E+01 -0.38954350894E+02  0.16886333396E+03  0.17353479010E+03  0.00000000000E+00 0. -1.
         21    1    1    2  505  504  0.69234602937E+02  0.15133633535E+03  0.71356135281E+02  0.18107405856E+03  0.00000000000E+00 0.  1.
          2    1    1    2  501    0  0.28092843488E+02 -0.38328162512E+02 -0.70203147604E+03  0.70363801009E+03  0.00000000000E+00 0.  1.
<scales pt_clust_3="138.02881" pt_clust_4="39.99372" pt_clust_5="14000.00000" pt_clust_6="47.59496"></scales>
<clustering>
<clus scale="   39.994">  1  4  2 -1</clus>
<clus scale="   47.595">  2  6  1 -1</clus>
<clus scale="  138.029">  1  3  2 -1</clus>
<clus scale="   39.994">  1  3  2 -1</clus>
</clustering>
</event>
<event>
 6    0  0.3584505E+002  0.7957290E+02  0.7546771E-02  0.1330268E+00
         -1   -1    0    0    0  501 -0.00000000000E+00  0.00000000000E+00  0.11090358467E+04  0.11090358467E+04  0.00000000000E+00 0. -1.
         21   -1    0    0  504  502  0.00000000000E+00 -0.00000000000E+00 -0.78022147185E+03  0.78022147185E+03  0.00000000000E+00 0.  1.
         21    1    1    2  503  502  0.51045487643E+01  0.35778238857E+02 -0.57953713138E+03  0.58066291895E+03  0.00000000000E+00 0.  1.
         21    1    1    2  504  501  0.11845880279E+02 -0.10040827111E+03 -0.12830721348E+03  0.16335509425E+03  0.00000000000E+00 0.  1.
         21    1    1    2  505  503 -0.95154038958E+02  0.50922725649E+02  0.24125740606E+01  0.10795015346E+03  0.00000000000E+00 0.  1.
         -1    1    1    2    0  505  0.78203609915E+02  0.13707306604E+02  0.10342461457E+04  0.10372891519E+04  0.00000000000E+00 0. -1.
<scales pt_clust_3="36.14054" pt_clust_4="75.94839" pt_clust_5="79.57290" pt_clust_6="14000.00000"></scales>
<clustering>
<clus scale="   36.141">  2  3  1 -1</clus>
<clus scale="   75.948">  2  4  1 -1</clus>
<clus scale="   79.573">  2  5  1 -1</clus>
<clus scale="   36.141">  2  3  1 -1</clus>
</clustering>
</event>
<event>
 6    0  0.3584505E+002  0.9293960E+02  0.7546771E-02  0.1295885E+00
         21   -1    0    0  504  502  0.00000000000E+00  0.00000000000E+00  0.99006324698E+02  0.99006324698E+02  0.00000000000E+00 0. -1.
          2   -1    0    0  503    0 -0.00000000000E+00 -0.00000000000E+00 -0.96124149162E+03  0.96124149162E+03  0.00000000000E+00 0.  1.
         21    1    1    2  503  505 -0.57551508341E+02  0.47163153442E+01  0.33001900999E+02  0.66509737726E+02  0.00000000000E+00 0. -1.
         21    1    1    2  504  501  0.54108041886E+02  0.53083592880E+02 -0.59842043574E+01  0.76035246640E+02  0.00000000000E+00 0. -1.
         21    1    1    2  505  502 -0.37233294096E+02  0.29621925334E+02 -0.37690203319E+02  0.60698666180E+02  0.00000000000E+00 0.  1.
          2    1    1    2  501    0  0.40676760552E+02 -0.87421833558E+02 -0.85156266024E+03  0.85700416577E+03  0.00000000000E+00 0.  1.
<scales pt_clust_3="92.93960" pt_clust_4="75.85689" pt_clust_5="47.57916" pt_clust_6="14000.00000"></scales>
<clustering>
<clus scale="   47.579">  1  5  2 -1</clus>
<clus scale="   75.857">  1  4  2 -1</clus>
<clus scale="   92.940">  1  3  2 -1</clus>
<clus scale="   47.579">  1  3  2 -1</clus>
</clustering>
</event>
<event>
 6    0  0.3584505E+002  0.8843947E+02  0.7546771E-02  0.1306675E+00
          2   -1    0    0  505    0 -0.00000000000E+00  0.00000000000E+00  0.53192456480E+03  0.53192456480E+03  0.00000000000E+00 0. -1.
         21   -1    0    0  503  502  0.00000000000E+00 -0.00000000000E+00 -0.49360901924E+02  0.49360901924E+02  0.00000000000E+00 0.  1.
         21    1    1    2  503  501 -0.36405007247E+02  0.18997386821E+02  0.38735836470E+02  0.56450777547E+02  0.00000000000E+00 0. -1.
         21    1    1    2  504  502  0.46782520686E+02  0.25635047474E+02  0.11488410434E+02  0.54568704172E+02  0.00000000000E+00 0.  1.
         21    1    1    2  505  504  0.80742578198E+02 -0.88547373438E+01  0.13864449581E+03  0.16068623627E+03  0.00000000000E+00 0.  1.
          2    1    1    2  501    0 -0.91120091637E+02 -0.35777696951E+02  0.29369492016E+03  0.30957974874E+03  0.00000000000E+00 0. -1.
<scales pt_clust_3="41.06367" pt_clust_4="45.04634" pt_clust_5="88.43947" pt_clust_6="14000.00000"></scales>
<clustering>
<clus scale="   41.064">  2  3  1 -1</clus>
<clus scale="   45.046">  2  4  1 -1</clus>
<clus scale="   88.439">  2  5  1 -1</clus>
<clus scale="   41.064">  2  3  1 -1</clus>
</clustering>
</event>
<event>
 6    0  0.3584505E+002  0.9663539E+02  0.7546771E-02  0.1287535E+00
         21   -1    0    0  504  502  0.00000000000E+00  0.00000000000E+00  0.29974898418E+03  0.29974898418E+03  0.00000000000E+00 0. -1.
          1   -1    0    0  505    0 -0.00000000000E+00 -0.00000000000E+00 -0.39691650947E+03  0.39691650947E+03  0.00000000000E+00 0. -1.
         21    1    1    2  503  501 -0.86206849978E+01 -0.89134011496E+02 -0.48490919678E+02  0.10183593426E+03  0.00000000000E+00 0. -1.
         21    1    1    2  504  503  0.18614502856E+01  0.92627662773E+02  0.65162287210E+02  0.11326726174E+03  0.00000000000E+00 0. -1.
         21    1    1    2  505  502  0.43228031716E+02  0.48638006173E+01  0.18008613713E+03  0.18526558253E+03  0.00000000000E+00 0. -1.
          1    1    1    2  501    0 -0.36468797003E+02 -0.83574518940E+01 -0.29392502995E+03  0.29629671512E+03  0.00000000000E+00 0. -1.
<scales pt_clust_3="96.63539" pt_clust_4="14000.00000" pt_clust_5="42.55529" pt_clust_6="37.41417"></scales>
<clustering>
<clus scale="   37.414">  2  6  1 -1</clus>
<clus scale="   42.555">  1  5  2 -1</clus>
<clus scale="   96.635">  2  3  1 -1</clus>
<clus scale="   42.555">  1  3  2 -1</clus>
</clustering>
</event>
<event>
 6    0  0.3584505E+002  0.1184968E+03  0.7546771E-02  0.1245598E+00
         21   -1    0    0  503  502  0.00000000000E+00  0.00000000000E+00  0.91161832126E+03  0.91161832126E+03  0.00000000000E+00 0. -1.
          2   -1    0    0  504    0 -0.00000000000E+00 -0.00000000000E+00 -0.24556681858E+03  0.24556681858E+03  0.00000000000E+00 0. -1.
         21    1    1    2  503  505  0.43853823274E+02  0.10500098096E+03  0.68410621987E+03  0.69350535967E+03  0.00000000000E+00 0. -1.
         21    1    1    2  504  502  0.44359990816E+02 -0.19426510407E+02  0.18266661718E+03  0.18897695924E+03  0.00000000000E+00 0. -1.
         21    1    1    2  505  501 -0.26713934739E+02 -0.95842107205E+02 -0.49494047697E+02  0.11112607516E+03  0.00000000000E+00 0. -1.
          2    1    1    2  501    0 -0.61499879351E+02  0.10267636650E+02 -0.15122728667E+03  0.16357674577E+03  0.00000000000E+00 0. -1.
<scales pt_clust_3="14000.00000" pt_clust_4="48.42725" pt_clust_5="118.49681" pt_clust_6="61.95172"></scales>
<clustering>
<clus scale="   48.427">  1  4  2 -1</clus>
<clus scale="   61.952">  2  6  1 -1</clus>
<clus scale="  118.497">  2  5  1 -1</clus>
<clus scale="   48.427">  1  3  2 -1</clus>
</clustering>
</event>
<event>
 6    0  0.3584505E+002  0.7662723E+02  0.7546771E-02  0.1338905E+00
         21   -1    0    0  505  502  0.00000000000E+00  0.00000000000E+00  0.10802571466E+03  0.10802571466E+03  0.00000000000E+00 0. -1.
          1   -1    0    0  503    0 -0.00000000000E+00 -0.00000000000E+00 -0.60863841589E+03  0.60863841589E+03  0.00000000000E+00 0. -1.
         21    1    1    2  503  504 -0.41247959855E+02  0.58325843157E+02 -0.14478804474E+03  0.16145239569E+03  0.00000000000E+00 0. -1.
         21    1    1    2  504  502 -0.74966412443E+02 -0.51801771884E+02  0.26879995995E+02  0.95004845927E+02  0.00000000000E+00 0. -1.
         21    1    1    2  505  501  0.75505836346E+02 -0.37351742036E+02 -0.10934421437E+02  0.84946133094E+02  0.00000000000E+00 0. -1.
          1    1    1    2  501    0  0.40708535952E+02  0.30827670763E+02 -0.37177023104E+03  0.37526075584E+03  0.00000000000E+00 0. -1.
<scales pt_clust_3="79.77494" pt_clust_4="76.62723" pt_clust_5="14000.00000" pt_clust_6="51.06398"></scales>
<clustering>
<clus scale="   51.064">  2  6  1 -1</clus>
<clus scale="   79.775">  2  3  1 -1</clus>
<clus scale="   76.627">  1  4  2 -1</clus>
<clus scale="   76.627">  1  3  2 -1</clus>
</clustering>
</event>
<event>
 6    0  0.3584505E+002  0.9414121E+02  0.7546771E-02  0.1293122E+00
         21   -1    0    0  503  502  0.00000000000E+00  0.00000000000E+00  0.12849362530E+03  0.12849362530E+03  0.00000000000E+00 0.  1.
          1   -1    0    0  504    0 -0.00000000000E+00 -0.00000000000E+00 -0.92902743402E+03  0.92902743402E+03  0.00000000000E+00 0. -1.
         21    1    1    2  503  505 -0.33430993004E+02  0.44896042042E+02  0.54156183926E+02  0.77885673533E+02  0.00000000000E+00 0.  1.
         21    1    1    2  504  502 -0.10697002638E+02 -0.32964771498E+02  0.27082034473E+02  0.43983390235E+02  0.00000000000E+00 0.  1.
         21    1    1    2  505  501 -0.13031771441E+02 -0.88770150655E+02 -0.59128828950E+02  0.10745317644E+03  0.00000000000E+00 0.  1.
          1    1    1    2  501    0  0.57159767084E+02  0.76838880111E+02 -0.82264319818E+03  0.82819881911E+03  0.00000000000E+00 0. -1.
<scales pt_clust_3="46.31284" pt_clust_4="34.65692" pt_clust_5="14000.00000" pt_clust_6="94.14121"></scales>
<clustering>
<clus scale="   34.657">  1  4  2 -1</clus>
<clus scale="   46.313">  1  3  2 -1</clus>
<clus scale="   94.141">  2  6  1 -1</clus>
<clus scale="   34.657">  1  3  2 -1</clus>
</clustering>
</event>
<event>
 6    0  0.3584505E+002  0.1070500E+03  0.7546771E-02  0.1266132E+00
          2   -1    0    0  503    0 -0.00000000000E+00  0.00000000000E+00  0.73704656450E+03  0.73704656450E+03  0.00000000000E+00 0.  1.
         21   -1    0    0  504  502  0.00000000000E+00 -0.00000000000E+00 -0.17091246967E+03  0.17091246967E+03  0.00000000000E+00 0.  1.
         21    1    1    2  503  505 -0.81169350485E+02 -0.74702437732E+02  0.75733447863E+02  0.13380759615E+03  0.00000000000E+00 0. -1.
         21    1    1    2  504  501  0.28052103919E+02  0.10130968322E+03  0.94228993936E+01  0.10554318302E+03  0.00000000000E+00 0.  1.
         21    1    1    2  505  502  0.36356776170E+02  0.27745113270E+01 -0.89752577925E+02  0.96876407504E+02  0.00000000000E+00 0.  1.
          2    1    1    2  501    0  0.16760470396E+02 -0.29381756813E+02  0.57073032550E+03  0.57173184750E+03  0.00000000000E+00 0.  1.
<scales pt_clust_3="107.04996" pt_clust_4="14000.00000" pt_clust_5="36.77932" pt_clust_6="33.82604"></scales>
<clustering>
<clus scale="   33.826">  1  6  2 -1</clus>
<clus scale="   36.779">  2  5  1 -1</clus>
<clus scale="  107.050">  1  3  2 -1</clus>
<clus scale="   36.779">  2  3  1 -1</clus>
</clustering>
</event>
<event>
 6    0  0.3584505E+002  0.3169378E+03  0.7546771E-02  0.1077067E+00
          1   -1    0    0  505    0 -0.00000000000E+00  0.00000000000E+00  0.66809956954E+03  0.66809956954E+03  0.00000000000E+00 0. -1.
         21   -1    0    0  503  502  0.00000000000E+00 -0.00000000000E+00 -0.57189414088E+03  0.57189414088E+03  0.00000000000E+00 0.  1.
         21    1    1    2  503  501  0.35536083007E+02 -0.83932853110E+01 -0.25944037325E+02  0.44792337587E+02  0.00000000000E+00 0.  1.
         21    1    1    2  504  502 -0.26420835206E+02 -0.15399373370E+03 -0.22935558791E+03  0.27751777647E+03  0.00000000000E+00 0.  1.
         21    1    1    2  505  504 -0.31094088939E+02  0.44983938851E+03 -0.15267257013E+02  0.45117115040E+03  0.00000000000E+00 0.  1.
          1    1    1    2  501    0  0.21978841138E+02 -0.28745236950E+03  0.36677231091E+03  0.46651244596E+03  0.00000000000E+00 0. -1.
<scales pt_clust_3="36.51384" pt_clust_4="158.25201" pt_clust_5="316.93781" pt_clust_6="14000.00000"></scales>
<clustering>
<clus scale="   36.514">  2  3  1 -1</clus>
<clus scale="  158.252">  2  4  1 -1</clus>
<clus scale="  316.938">  2  5  1 -1</clus>
<clus scale="   36.514">  2  3  1 -1</clus>
</clustering>
</event>
<event>
 6    0  0.3584505E+002  0.7237546E+02  0.7546771E-02  0.1352197E+00
         -2   -1    0    0    0  501 -0.00000000000E+00  0.00000000000E+00  0.45895448411E+03  0.45895448411E+03  0.00000000000E+00 0. -1.
         21   -1    0    0  505  502  0.00000000000E+00 -0.00000000000E+00 -0.77700000050E+03  0.77700000050E+03  0.00000000000E+00 0.  1.
         21    1    1    2  503  502  0.73625808736E+02 -0.22621803634E+02 -0.56267692005E+03  0.56792413408E+03  0.00000000000E+00 0.  1.
         21    1    1    2  504  503  0.31182932688E+02  0.56867255912E+02  0.49709358288E+02  0.81714627744E+02  0.00000000000E+00 0. -1.
         21    1    1    2  505  501 -0.67354436473E+02 -0.33712860777E+02 -0.18750032509E+03  0.20206323021E+03  0.00000000000E+00 0. -1.
         -2    1    1    2    0  504 -0.37454304952E+02 -0.53259150135E+00  0.38242237047E+03  0.38425249257E+03  0.00000000000E+00 0. -1.
<scales pt_clust_3="72.37546" pt_clust_4="56.42095" pt_clust_5="14000.00000" pt_clust_6="37.45809"></scales>
<clustering>
<clus scale="   37.458">  1  6  2 -1</clus>
<clus scale="   56.421">  1  4  2 -1</clus>
<clus scale="   72.375">  2  3  1 -1</clus>
<clus scale="   72.375">  2  3  1 -1</clus>
</clustering>
</event>
<event>
 6    0  0.3584505E+002  0.1399561E+03  0.7546771E-02  0.1213388E+00
         21   -1    0    0  503  502  0.00000000000E+00  0.00000000000E+00  0.87228110125E+03  0.87228110125E+03  0.00000000000E+00 0. -1.
          2   -1    0    0  504    0 -0.00000000000E+00 -0.00000000000E+00 -0.15059487027E+03  0.15059487027E+03  0.00000000000E+00 0.  1.
         21    1    1    2  503  501 -0.23595867827E+02  0.31406947647E+02  0.44794685081E+03  0.44966603440E+03  0.00000000000E+00 0. -1.
         21    1    1    2  504  505 -0.69465171293E+02  0.72233242994E+02  0.19681911978E+03  0.22086379814E+03  0.00000000000E+00 0. -1.
         21    1    1    2  505  502 -0.47591816893E+02 -0.51587508499E+02  0.16437615909E+03  0.17873380694E+03  0.00000000000E+00 0. -1.
          2    1    1    2  501    0  0.14065285601E+03 -0.52052682143E+02 -0.87455898694E+02  0.17361233205E+03  0.00000000000E+00 0.  1.
<scales pt_clust_3="39.28309" pt_clust_4="139.95605" pt_clust_5="69.11322" pt_clust_6="14000.00000"></scales>
<clustering>
<clus scale="   39.283">  1  3  2 -1</clus>
<clus scale="   69.113">  1  5  2 -1</clus>
<clus scale="  139.956">  1  4  2 -1</clus>
<clus scale="   39.283">  1  3  2 -1</clus>
</clustering>
</event>
<event>
 6    0  0.3584505E+002  0.1740900E+03  0.7546771E-02  0.1173649E+00
         -2   -1    0    0    0  501 -0.00000000000E+00  0.00000000000E+00  0.13356086569E+04  0.13356086569E+04  0.00000000000E+00 0.  1.
         21   -1    0    0  505  502  0.00000000000E+00 -0.00000000000E+00 -0.96336254113E+02  0.96336254113E+02  0.00000000000E+00 0. -1.
         21    1    1    2  503  502  0.21786953453E+02  0.45210975026E+02 -0.15489716077E+02  0.52522708496E+02  0.00000000000E+00 0. -1.
         21    1    1    2  504  503  0.58263706354E+01  0.13907442696E+03  0.12388627900E+03  0.18634230049E+03  0.00000000000E+00 0. -1.
         21    1    1    2  505  501  0.70641967731E+02 -0.25435120615E+02  0.37612760522E+02  0.83975905590E+02  0.00000000000E+00 0. -1.
         -2    1    1    2    0  504 -0.98255291819E+02 -0.15885028137E+03  0.10932630794E+04  0.11091039965E+04  0.00000000000E+00 0.  1.
<scales pt_clust_3="50.18669" pt_clust_4="174.08999" pt_clust_5="79.21534" pt_clust_6="14000.00000"></scales>
<clustering>
<clus scale="   50.187">  2  3  1 -1</clus>
<clus scale="   79.215">  2  5  1 -1</clus>
<clus scale="  174.090">  2  4  1 -1</clus>
<clus scale="   50.187">  2  3  1 -1</clus>
</clustering>
</event>
<event>
 6    0  0.3584505E+002  0.9724429E+02  0.7546771E-02  0.1286200E+00
          2   -1    0    0  505    0 -0.00000000000E+00  0.00000000000E+00  0.70033650050E+03  0.70033650050E+03  0.00000000000E+00 0.  1.
         21   -1    0    0  503  502  0.00000000000E+00 -0.00000000000E+00 -0.73414275387E+03  0.73414275387E+03  0.00000000000E+00 0.  1.
         21    1    1    2  503  501  0.64604832784E+02  0.70414159959E+02  0.58963621612E+02  0.11228823187E+03  0.00000000000E+00 0.  1.
         21    1    1    2  504  502  0.58283625189E+02 -0.20030402756E+01 -0.67392171658E+03  0.67644029538E+03  0.00000000000E+00 0.  1.
         21    1    1    2  505  504 -0.75614580333E+02 -0.77272916211E+02  0.62512345264E+02  0.12488579442E+03  0.00000000000E+00 0.  1.
          2    1    1    2  501    0 -0.47273877640E+02  0.88617965276E+01  0.51863949634E+03  0.52086493270E+03  0.00000000000E+00 0.  1.
<scales pt_clust_3="14000.00000" pt_clust_4="57.98647" pt_clust_5="97.24429" pt_clust_6="48.09731"></scales>
<clustering>
<clus scale="   48.097">  1  6  2 -1</clus>
<clus scale="   57.986">  2  4  1 -1</clus>
<clus scale="   97.244">  2  5  1 -1</clus>
<clus scale="   57.986">  2  3  1 -1</clus>
</clustering>
</event>
<event>
 6    0  0.3584505E+002  0.7827709E+02  0.7546771E-02  0.1334013E+00
          2   -1    0    0  503    0 -0.00000000000E+00  0.00000000000E+00  0.76716650762E+03  0.76716650762E+03  0.00000000000E+00 0. -1.
         21   -1    0    0  504  502  0.00000000000E+00 -0.00000000000E+00 -0.22782496700E+03  0.22782496700E+03  0.00000000000E+00 0. -1.
         21    1    1    2  503  505 -0.94091364214E+02  0.21903954804E+02  0.11837377551E+03  0.15279174973E+03  0.00000000000E+00 0. -1.
         21    1    1    2  504  501  0.48427709941E+02 -0.35452151515E+02  0.41662286948E+02  0.73060552222E+02  0.00000000000E+00 0. -1.
         21    1    1    2  505  502 -0.20585728597E+02 -0.30389220619E+02 -0.19040427048E+03  0.19390993571E+03  0.00000000000E+00 0. -1.
          2    1    1    2  501    0  0.66249382870E+02  0.43937417331E+02  0.56970974863E+03  0.57522923696E+03  0.00000000000E+00 0. -1.
<scales pt_clust_3="14000.00000" pt_clust_4="62.72097" pt_clust_5="36.70527" pt_clust_6="78.27709"></scales>
<clustering>
<clus scale="   36.705">  2  5  1 -1</clus>
<clus scale="   62.721">  2  4  1 -1</clus>
<clus scale="   78.277">  1  6  2 -1</clus>
<clus scale="   36.705">  2  3  1 -1</clus>
</clustering>
</event>
<event>
 6    0  0.3584505E+002  0.7647756E+02  0.7546771E-02  0.1339356E+00
         -2   -1    0    0    0  501 -0.00000000000E+00  0.00000000000E+00  0.87451911515E+02  0.87451911515E+02  0.00000000000E+00 0. -1.
         21   -1    0    0  504  502  0.00000000000E+00 -0.00000000000E+00 -0.12595029186E+04  0.12595029186E+04  0.00000000000E+00 0. -1.
         21    1    1    2  503  501  0.81598253830E+01 -0.56081431680E+02 -0.83177572323E+02  0.10064898543E+03  0.00000000000E+00 0. -1.
         21    1    1    2  504  503 -0.47408947927E+02  0.98960328307E+01 -0.77560715953E+03  0.77711775538E+03  0.00000000000E+00 0. -1.
         21    1    1    2  505  502 -0.38457832486E+02  0.54928319075E+02 -0.36779421253E+03  0.37385653383E+03  0.00000000000E+00 0. -1.
         -2    1    1    2    0  505  0.77706955031E+02 -0.87429202266E+01  0.54527937334E+02  0.95331555448E+02  0.00000000000E+00 0. -1.
<scales pt_clust_3="54.20561" pt_clust_4="48.43077" pt_clust_5="14000.00000" pt_clust_6="76.47756"></scales>
<clustering>
<clus scale="   48.431">  2  4  1 -1</clus>
<clus scale="   54.206">  2  3  1 -1</clus>
<clus scale="   76.478">  1  6  2 -1</clus>
<clus scale="   48.431">  2  3  1 -1</clus>
</clustering>
</event>
<event>
 6    0  0.3584505E+002  0.1654380E+03  0.7546771E-02  0.1182691E+00
         21   -1    0    0  505  502  0.00000000000E+00  0.00000000000E+00  0.16449372293E+03  0.16449372293E+03  0.00000000000E+00 0. -1.
          4   -1    0    0  504    0 -0.00000000000E+00 -0.00000000000E+00 -0.11691675334E+04  0.11691675334E+04  0.00000000000E+00 0. -1.
         21    1    1    2  503  502  0.23237641375E+02 -0.33643469835E+02  0.28111483870E+02  0.49619820280E+02  0.00000000000E+00 0. -1.
         21    1    1    2  504  503  0.11922205505E+03 -0.37480616427E+02  0.75473527020E+01  0.12520246623E+03  0.00000000000E+00 0. -1.
         21    1    1    2  505  501 -0.14739197702E+03  0.22134352626E+02 -0.36040126860E+02  0.15334019434E+03  0.00000000000E+00 0. -1.
          4    1    1    2  501    0  0.49322805948E+01  0.48989733636E+02 -0.10042925201E+04  0.10054987754E+04  0.00000000000E+00 0. -1.
<scales pt_clust_3="35.89390" pt_clust_4="35.89390" pt_clust_5="153.07462" pt_clust_6="49.23740"></scales>
<clustering>
<clus scale="   35.894">  3  4 -1 -1</clus>
<clus scale="   49.237">  2  6  1 -1</clus>
<clus scale="  153.075">  2  5  1 -1</clus>
<clus scale="  165.438">  1  3  2 -1</clus>
</clustering>
</event>
<event>
 6    0  0.3584505E+002  0.7582770E+02  0.7546771E-02  0.1341327E+00
         21   -1    0    0  504  502  0.00000000000E+00  0.00000000000E+00  0.36067850771E+02  0.36067850771E+02  0.00000000000E+00 0.  1.
          2   -1    0    0  505    0 -0.00000000000E+00 -0.00000000000E+00 -0.10346305955E+04  0.10346305955E+04  0.00000000000E+00 0.  1.
         21    1    1    2  503  501 -0.31079471437E+02 -0.65973209039E+02 -0.17981732056E+03  0.19404295047E+03  0.00000000000E+00 0.  1.
         21    1    1    2  504  503  0.27828811813E+02 -0.68065407809E+02 -0.43563496998E+02  0.85469999285E+02  0.00000000000E+00 0.  1.
         21    1    1    2  505  502  0.15203231504E+02  0.54708988899E+02 -0.14185154711E+03  0.15279421826E+03  0.00000000000E+00 0. -1.
          2    1    1    2  501    0 -0.11952571880E+02  0.79329627949E+02 -0.63333038005E+03  0.63839127824E+03  0.00000000000E+00 0.  1.
<scales pt_clust_3="75.82770" pt_clust_4="48.97596" pt_clust_5="56.78214" pt_clust_6="14000.00000"></scales>
<clustering>
<clus scale="   56.782">  1  5  2 -1</clus>
<clus scale="   48.976">  1  4  2 -1</clus>
<clus scale="   75.828">  1  3  2 -1</clus>
<clus scale="   56.782">  1  3  2 -1</clus>
</clustering>
</event>
<event>
 6    0  0.3584505E+002  0.7284369E+02  0.7546771E-02  0.1350681E+00
         -2   -1    0    0    0  501 -0.00000000000E+00  0.00000000000E+00  0.36871013988E+03  0.36871013988E+03  0.00000000000E+00 0. -1.
         21   -1    0    0  501  502  0.00000000000E+00 -0.00000000000E+00 -0.45422384502E+03  0.45422384502E+03  0.00000000000E+00 0. -1.
         21    1    1    2  503  502  0.21191414222E+02  0.27903428676E+02 -0.17490775983E+03  0.17838273968E+03  0.00000000000E+00 0. -1.
         21    1    1    2  504  505 -0.10335980141E+03 -0.30825544805E+02 -0.17141947457E+03  0.20252925473E+03  0.00000000000E+00 0. -1.
         21    1    1    2  505  503  0.18427294912E+02 -0.30952790096E+02 -0.83122724877E+02  0.90592647624E+02  0.00000000000E+00 0. -1.
         -2    1    1    2    0  504  0.63741092278E+02  0.33874906224E+02  0.34393625414E+03  0.35142934287E+03  0.00000000000E+00 0. -1.
<scales pt_clust_3="35.03823" pt_clust_4="72.84369" pt_clust_5="33.49200" pt_clust_6="14000.00000"></scales>
<clustering>
<clus scale="   35.038">  2  3  1 -1</clus>
<clus scale="   33.492">  2  5  1 -1</clus>
<clus scale="   72.844">  2  4  1 -1</clus>
<clus scale="   35.038">  2  3  1 -1</clus>
</clustering>
</event>
<event>
 6    0  0.3584505E+002  0.1215419E+03  0.7546771E-02  0.1240575E+00
          1   -1    0    0  505    0 -0.00000000000E+00  0.00000000000E+00  0.79757068047E+03  0.79757068047E+03  0.00000000000E+00 0.  1.
         21   -1    0    0  503  502  0.00000000000E+00 -0.00000000000E+00 -0.33400562142E+04  0.33400562142E+04  0.00000000000E+00 0. -1.
         21    1    1    2  503  501  0.52427936151E+02 -0.74074829666E+01 -0.51220000019E+02  0.73668498661E+02  0.00000000000E+00 0.  1.
         21    1    1    2  504  502  0.67943126294E+02  0.25044851768E+02 -0.32500088682E+04  0.32508154602E+04  0.00000000000E+00 0. -1.
         21    1    1    2  505  504 -0.13711232790E+03  0.63870031141E+02  0.21387367787E+03  0.26195633496E+03  0.00000000000E+00 0.  1.
          1    1    1    2  501    0  0.16741265458E+02 -0.81507399942E+02  0.54486965662E+03  0.55118660082E+03  0.00000000000E+00 0.  1.
<scales pt_clust_3="52.94865" pt_clust_4="14000.00000" pt_clust_5="121.54191" pt_clust_6="83.22610"></scales>
<clustering>
<clus scale="   52.949">  2  3  1 -1</clus>
<clus scale="   83.226">  1  6  2 -1</clus>
<clus scale="  121.542">  1  5  2 -1</clus>
<clus scale="   52.949">  2  3  1 -1</clus>
</clustering>
</event>
<event>
 6    0  0.3584505E+002  0.1814831E+03  0.7546771E-02  0.1166375E+00
         21   -1    0    0  504  502  0.00000000000E+00  0.00000000000E+00  0.12298097726E+03  0.12298097726E+03  0.00000000000E+00 0.  1.
          2   -1    0    0  505    0 -0.00000000000E+00 -0.00000000000E+00 -0.14030762305E+04  0.14030762305E+04  0.00000000000E+00 0. -1.
         21    1    1    2  503  501  0.14646913782E+03  0.70388919743E+02 -0.23078895637E+03  0.28226113926E+03  0.00000000000E+00 0. -1.
         21    1    1    2  504  503  0.20238413627E+02  0.43416912087E+02 -0.28219222210E+02  0.55596278144E+02  0.00000000000E+00 0.  1.
         21    1    1    2  505  502 -0.61448498243E+01 -0.17055143037E+03 -0.18966635684E+02  0.17171279175E+03  0.00000000000E+00 0.  1.
          2    1    1    2  501    0 -0.16056270162E+03  0.56745598543E+02 -0.10021204389E+04  0.10164869986E+04  0.00000000000E+00 0. -1.
<scales pt_clust_3="43.15951" pt_clust_4="43.15951" pt_clust_5="163.14684" pt_clust_6="170.29517"></scales>
<clustering>
<clus scale="   43.160">  3  4 -1 -1</clus>
<clus scale="  170.295">  2  6  1 -1</clus>
<clus scale="  163.147">  1  5  2 -1</clus>
<clus scale="  163.147">  1  3  2 -1</clus>
</clustering>
</event>
<event>
 6    0  0.3584505E+002  0.7659502E+02  0.7546771E-02  0.1339002E+00
         -1   -1    0    0    0  501 -0.00000000000E+00  0.00000000000E+00  0.53530277594E+03  0.53530277594E+03  0.00000000000E+00 0.  1.
         21   -1    0    0  503  502  0.00000000000E+00 -0.00000000000E+00 -0.72029330202E+02  0.72029330202E+02  0.00000000000E+00 0.  1.
         21    1    1    2  503  504 -0.23687446505E+02 -0.25104232036E+02  0.52859412970E+01  0.34917886011E+02  0.00000000000E+00 0.  1.
         21    1    1    2  504  501  0.45556655821E+02 -0.16287464216E+01  0.28030776768E+03  0.28399032787E+03  0.00000000000E+00 0.  1.
         21    1    1    2  505  502  0.10076621519E+02  0.97724236702E+02  0.42624132029E+01  0.98334800079E+02  0.00000000000E+00 0.  1.
         -1    1    1    2    0  505 -0.31945830835E+02 -0.70991258244E+02  0.17341732356E+03  0.19008909218E+03  0.00000000000E+00 0.  1.
<scales pt_clust_3="34.51547" pt_clust_4="44.86055" pt_clust_5="14000.00000" pt_clust_6="76.59502"></scales>
<clustering>
<clus scale="   34.515">  2  3  1 -1</clus>
<clus scale="   44.861">  1  4  2 -1</clus>
<clus scale="   76.595">  1  6  2 -1</clus>
<clus scale="   34.515">  2  3  1 -1</clus>
</clustering>
</event>
<event>
 6    0  0.3584505E+002  0.6125627E+02  0.7546771E-02  0.1392634E+00
          1   -1    0    0  505    0 -0.00000000000E+00  0.00000000000E+00  0.16340291354E+04  0.16340291354E+04  0.00000000000E+00 0. -1.
         21   -1    0    0  504  502  0.00000000000E+00 -0.00000000000E+00 -0.32277711790E+02  0.32277711790E+02  0.00000000000E+00 0.  1.
         21    1    1    2  503  501  0.64988560204E+02  0.57921458916E+02  0.76161423427E+02  0.11566750096E+03  0.00000000000E+00 0.  1.
         21    1    1    2  504  503  0.21852294218E+02 -0.60152007471E+02  0.11844749808E+03  0.13463133575E+03  0.00000000000E+00 0.  1.
         21    1    1    2  505  502 -0.36650672801E+02  0.35695823313E+02  0.17335924546E+03  0.18075091039E+03  0.00000000000E+00 0.  1.
          1    1    1    2  501    0 -0.50190181622E+02 -0.33465274758E+02  0.12337832566E+04  0.12352571001E+04  0.00000000000E+00 0. -1.
<scales pt_clust_3="61.25627" pt_clust_4="51.34495" pt_clust_5="51.16115" pt_clust_6="14000.00000"></scales>
<clustering>
<clus scale="   51.161">  2  5  1 -1</clus>
<clus scale="   51.345">  2  4  1 -1</clus>
<clus scale="   61.256">  2  3  1 -1</clus>
<clus scale="   51.161">  2  3  1 -1</clus>
</clustering>
</event>
<event>
 6    0  0.3584505E+002  0.1053781E+03  0.7546771E-02  0.1269376E+00
         21   -1    0    0  505  502  0.00000000000E+00  0.00000000000E+00  0.16809345564E+03  0.16809345564E+03  0.00000000000E+00 0. -1.
          1   -1    0    0  504    0 -0.00000000000E+00 -0.00000000000E+00 -0.31169340241E+03  0.31169340241E+03  0.00000000000E+00 0. -1.
         21    1    1    2  503  502 -0.98319593374E+01 -0.31675440260E+02  0.25850135175E+02  0.42050332087E+02  0.00000000000E+00 0. -1.
         21    1    1    2  504  503 -0.80504202351E+02 -0.93404466004E+02 -0.88108414625E+02  0.15155333580E+03  0.00000000000E+00 0. -1.
         21    1    1    2  505  501 -0.91985727425E+01  0.98790180273E+02  0.56472025334E+02  0.11416305490E+03  0.00000000000E+00 0. -1.
          1    1    1    2  501    0  0.99534734431E+02  0.26289725990E+02 -0.13781369266E+03  0.17202013526E+03  0.00000000000E+00 0. -1.
<scales pt_clust_3="33.16626" pt_clust_4="105.37810" pt_clust_5="80.14763" pt_clust_6="14000.00000"></scales>
<clustering>
<clus scale="   33.166">  1  3  2 -1</clus>
<clus scale="   80.148">  1  5  2 -1</clus>
<clus scale="  105.378">  1  4  2 -1</clus>
<clus scale="   33.166">  1  3  2 -1</clus>
</clustering>
</event>
<event>
 6    0  0.3584505E+002  0.1088849E+03  0.7546771E-02  0.1262649E+00
         21   -1    0    0  505  502  0.00000000000E+00  0.00000000000E+00  0.16337207983E+03  0.16337207983E+03  0.00000000000E+00 0.  1.
          1   -1    0    0  504    0 -0.00000000000E+00 -0.00000000000E+00 -0.16454509459E+04  0.16454509459E+04  0.00000000000E+00 0.  1.
         21    1    1    2  503  502  0.14589917517E+03  0.97624742642E+02  0.53545602934E+02  0.18353280711E+03  0.00000000000E+00 0.  1.
         21    1    1    2  504  503  0.73200837668E+02 -0.54080100645E+01 -0.72330837563E+03  0.72702311893E+03  0.00000000000E+00 0.  1.
         21    1    1    2  505  501 -0.75816877272E+02 -0.27232654879E+02 -0.10593464290E+02  0.81252925220E+02  0.00000000000E+00 0.  1.
          1    1    1    2  501    0 -0.14328313556E+03 -0.64984077698E+02 -0.80172262908E+03  0.81701417446E+03  0.00000000000E+00 0.  1.
<scales pt_clust_3="14000.00000" pt_clust_4="73.40034" pt_clust_5="77.22722" pt_clust_6="108.88486"></scales>
<clustering>
<clus scale="   73.400">  2  4  1 -1</clus>
<clus scale="   77.227">  1  5  2 -1</clus>
<clus scale="  108.885">  2  6  1 -1</clus>
<clus scale="   77.227">  1  3  2 -1</clus>
</clustering>
</event>
<event>
 6    0  0.3584505E+002  0.1179266E+03  0.7546771E-02  0.1246557E+00
         21   -1    0    0  504  502  0.00000000000E+00  0.00000000000E+00  0.22101185667E+04  0.22101185667E+04  0.00000000000E+00 0. -1.
          2   -1    0    0  505    0 -0.00000000000E+00 -0.00000000000E+00 -0.45524110895E+03  0.45524110895E+03  0.00000000000E+00 0. -1.
         21    1    1    2  503  501  0.85915166255E+02 -0.82698405093E+02  0.12897339287E+03  0.17565471262E+03  0.00000000000E+00 0. -1.
         21    1    1    2  504  503  0.34231101599E+02  0.14637859865E+03  0.16665929578E+04  0.16733590617E+04  0.00000000000E+00 0. -1.
         21    1    1    2  505  502 -0.50335837327E+00 -0.55380694180E+02  0.37737626857E+03  0.38141856632E+03  0.00000000000E+00 0. -1.
          2    1    1    2  501    0 -0.11964290948E+03 -0.82994993784E+01 -0.41806516148E+03  0.43492733499E+03  0.00000000000E+00 0. -1.
<scales pt_clust_3="117.92663" pt_clust_4="101.63558" pt_clust_5="55.38298" pt_clust_6="14000.00000"></scales>
<clustering>
<clus scale="   55.383">  1  5  2 -1</clus>
<clus scale="  101.636">  1  4  2 -1</clus>
<clus scale="  117.927">  1  3  2 -1</clus>
<clus scale="   55.383">  1  3  2 -1</clus>
</clustering>
</event>
<event>
 6    0  0.3584505E+002  0.1076946E+03  0.7546771E-02  0.1264900E+00
         21   -1    0    0  501  502  0.00000000000E+00  0.00000000000E+00  0.84651003044E+02  0.84651003044E+02  0.00000000000E+00 0.  1.
          2   -1    0    0  505    0 -0.00000000000E+00 -0.00000000000E+00 -0.12030005934E+04  0.12030005934E+04  0.00000000000E+00 0.  1.
         21    1    1    2  503  504 -0.37124029943E+02 -0.77310182128E+02 -0.10318514518E+03  0.13417239673E+03  0.00000000000E+00 0. -1.
         21    1    1    2  504  502  0.11444291858E+03  0.11259731482E+02  0.13730887553E+02  0.11581235012E+03  0.00000000000E+00 0.  1.
         21    1    1    2  505  503 -0.14996327821E+02  0.26026003308E+02 -0.69526909463E+03  0.69591763640E+03  0.00000000000E+00 0.  1.
          2    1    1    2  501    0 -0.62322560819E+02  0.40024447337E+02 -0.33362623809E+03  0.34174921319E+03  0.00000000000E+00 0.  1.
<scales pt_clust_3="81.99771" pt_clust_4="107.69457" pt_clust_5="30.03736" pt_clust_6="14000.00000"></scales>
<clustering>
<clus scale="   30.037">  2  5  1 -1</clus>
<clus scale="   81.998">  2  3  1 -1</clus>
<clus scale="  107.695">  1  4  2 -1</clus>
<clus scale="  107.695">  1  3  2 -1</clus>
</clustering>
</event>
<event>
 6    0  0.3584505E+002  0.3382960E+03  0.7546771E-02  0.1067524E+00
         21   -1    0    0  504  502  0.00000000000E+00  0.00000000000E+00  0.54126514123E+03  0.54126514123E+03  0.00000000000E+00 0.  1.
         -1   -1    0    0    0  501 -0.00000000000E+00 -0.00000000000E+00 -0.51129563369E+03  0.51129563369E+03  0.00000000000E+00 0. -1.
         21    1    1    2  503  502  0.76574057044E+02  0.43199511995E+02  0.12131111521E+03  0.14982046163E+03  0.00000000000E+00 0. -1.
         21    1    1    2  504  501 -0.76611586826E+02  0.34606817503E+01  0.25321083562E+02  0.80761803019E+02  0.00000000000E+00 0. -1.
         21    1    1    2  505  503  0.24527707970E+03  0.16229607138E+03  0.21136938016E+03  0.36218486368E+03  0.00000000000E+00 0.  1.
         -1    1    1    2    0  505 -0.24523954992E+03 -0.20895626513E+03 -0.32803207139E+03  0.45979364659E+03  0.00000000000E+00 0. -1.
<scales pt_clust_3="41.12090" pt_clust_4="76.68971" pt_clust_5="41.12090" pt_clust_6="329.82971"></scales>
<clustering>
<clus scale="   41.121">  3  5 -1 -1</clus>
<clus scale="   76.690">  1  4  2 -1</clus>
<clus scale="  329.830">  2  6  1 -1</clus>
<clus scale="   76.690">  1  3  2 -1</clus>
</clustering>
</event>
<event>
 6    0  0.3584505E+002  0.1257574E+03  0.7546771E-02  0.1233890E+00
          2   -1    0    0  503    0 -0.00000000000E+00  0.00000000000E+00  0.42040072218E+03  0.42040072218E+03  0.00000000000E+00 0. -1.
         21   -1    0    0  504  502  0.00000000000E+00 -0.00000000000E+00 -0.14747533975E+03  0.14747533975E+03  0.00000000000E+00 0. -1.
         21    1    1    2  503  502  0.10926735155E+03 -0.95920953494E+02  0.32912841293E+02  0.14907527815E+03  0.00000000000E+00 0. -1.
         21    1    1    2  504  505 -0.35349552436E+01 -0.47262032947E+02 -0.42349877257E+02  0.63558695476E+02  0.00000000000E+00 0. -1.
         21    1    1    2  505  501 -0.91588016956E+02  0.50790656726E+02  0.78206687854E+02  0.13070708353E+03  0.00000000000E+00 0. -1.
          2    1    1    2  501    0 -0.14144379353E+02  0.92392329715E+02  0.20415573054E+03  0.22453500477E+03  0.00000000000E+00 0. -1.
<scales pt_clust_3="125.75744" pt_clust_4="47.39405" pt_clust_5="14000.00000" pt_clust_6="88.49755"></scales>
<clustering>
<clus scale="   47.394">  2  4  1 -1</clus>
<clus scale="   88.498">  1  6  2 -1</clus>
<clus scale="  125.757">  1  3  2 -1</clus>
<clus scale="   47.394">  2  3  1 -1</clus>
</clustering>
</event>
<event>
 6    0  0.3584505E+002  0.1239986E+03  0.7546771E-02  0.1236643E+00
         21   -1    0    0  504  502  0.00000000000E+00  0.00000000000E+00  0.15670601286E+03  0.15670601286E+03  0.00000000000E+00 0.  1.
          2   -1    0    0  503    0 -0.00000000000E+00 -0.00000000000E+00 -0.22495896727E+04  0.22495896727E+04  0.00000000000E+00 0. -1.
         21    1    1    2  503  502  0.77443907558E+02 -0.11702086321E+03  0.42005748836E+02  0.14647840857E+03  0.00000000000E+00 0.  1.
         21    1    1    2  504  505 -0.29113787170E+02  0.10638333396E+02  0.37697368846E+02  0.48804491173E+02  0.00000000000E+00 0.  1.
         21    1    1    2  505  501 -0.25191834587E+02  0.14615271177E+03 -0.27147532723E+03  0.30934462495E+03  0.00000000000E+00 0.  1.
          2    1    1    2  501    0 -0.23138285802E+02 -0.39770181960E+02 -0.19011114503E+04  0.19016681609E+04  0.00000000000E+00 0. -1.
<scales pt_clust_3="14000.00000" pt_clust_4="30.99656" pt_clust_5="123.99863" pt_clust_6="46.02481"></scales>
<clustering>
<clus scale="   30.997">  1  4  2 -1</clus>
<clus scale="   46.025">  2  6  1 -1</clus>
<clus scale="  123.999">  2  5  1 -1</clus>
<clus scale="   30.997">  1  3  2 -1</clus>
</clustering>
</event>
<event>
 6    0  0.3584505E+002  0.1575465E+03  0.7546771E-02  0.1191495E+00
         21   -1    0    0  503  502  0.00000000000E+00  0.00000000000E+00  0.39001998585E+03  0.39001998585E+03  0.00000000000E+00 0. -1.
          1   -1    0    0  505    0 -0.00000000000E+00 -0.00000000000E+00 -0.87554248149E+03  0.87554248149E+03  0.00000000000E+00 0. -1.
         21    1    1    2  503  504  0.39403233430E+02  0.30864031791E+02  0.78251199222E+02  0.92889468956E+02  0.00000000000E+00 0. -1.
         21    1    1    2  504  501  0.70392772429E+02 -0.62412893047E+02  0.50907074504E+02  0.10696748040E+03  0.00000000000E+00 0. -1.
         21    1    1    2  505  502  0.53938906247E+02  0.66204814625E+01  0.21391988167E+03  0.22071463965E+03  0.00000000000E+00 0. -1.
          1    1    1    2  501    0 -0.16373491211E+03  0.24928379793E+02 -0.82860065104E+03  0.84499087833E+03  0.00000000000E+00 0. -1.
<scales pt_clust_3="50.05201" pt_clust_4="157.54653" pt_clust_5="86.92282" pt_clust_6="14000.00000"></scales>
<clustering>
<clus scale="   50.052">  1  3  2 -1</clus>
<clus scale="   86.923">  1  5  2 -1</clus>
<clus scale="  157.547">  1  4  2 -1</clus>
<clus scale="   50.052">  1  3  2 -1</clus>
</clustering>
</event>
<event>
 6    0  0.3584505E+002  0.1415931E+03  0.7546771E-02  0.1211201E+00
         21   -1    0    0  504  502  0.00000000000E+00  0.00000000000E+00  0.12349358906E+04  0.12349358906E+04  0.00000000000E+00 0.  1.
          2   -1    0    0  502    0 -0.00000000000E+00 -0.00000000000E+00 -0.84061597225E+03  0.84061597225E+03  0.00000000000E+00 0.  1.
         21    1    1    2  503  505  0.55260050257E+02  0.69048330957E+02  0.91192063483E+02  0.12703282097E+03  0.00000000000E+00 0.  1.
         21    1    1    2  504  503  0.67544707741E+02 -0.17627663310E+02  0.11183922457E+04  0.11205687115E+04  0.00000000000E+00 0.  1.
         21    1    1    2  505  501 -0.32953140873E+02 -0.24038983532E+02 -0.12920768946E+03  0.13549320735E+03  0.00000000000E+00 0.  1.
          2    1    1    2  501    0 -0.89851617124E+02 -0.27381684115E+02 -0.68605670135E+03  0.69245712300E+03  0.00000000000E+00 0.  1.
<scales pt_clust_3="130.10759" pt_clust_4="69.80703" pt_clust_5="36.81207" pt_clust_6="36.81207"></scales>
<clustering>
<clus scale="   36.812">  5  6 -1 -1</clus>
<clus scale="   69.807">  1  4  2 -1</clus>
<clus scale="  130.108">  1  3  2 -1</clus>
<clus scale="   69.807">  1  3  2 -1</clus>
</clustering>
</event>
<event>
 6    0  0.3584505E+002  0.1202408E+03  0.7546771E-02  0.1242700E+00
          2   -1    0    0  503    0 -0.00000000000E+00  0.00000000000E+00  0.32956782868E+03  0.32956782868E+03  0.00000000000E+00 0.  1.
         21   -1    0    0  504  502  0.00000000000E+00 -0.00000000000E+00 -0.70509075009E+03  0.70509075009E+03  0.00000000000E+00 0. -1.
         21    1    1    2  503  505 -0.96873471835E+02  0.79813579218E+02 -0.27194984726E+03  0.29951860776E+03  0.00000000000E+00 0. -1.
         21    1    1    2  504  501  0.68611102697E+02 -0.61826808531E+01  0.15042358849E+03  0.16544777101E+03  0.00000000000E+00 0.  1.
         21    1    1    2  505  502  0.10419373180E+01 -0.32592145089E+02 -0.40733600496E+03  0.40863914949E+03  0.00000000000E+00 0. -1.
          2    1    1    2  501    0  0.27220431820E+02 -0.41038753276E+02  0.15333934232E+03  0.16105305052E+03  0.00000000000E+00 0.  1.
<scales pt_clust_3="107.42687" pt_clust_4="45.79878" pt_clust_5="32.60880" pt_clust_6="45.79878"></scales>
<clustering>
<clus scale="   32.609">  2  5  1 -1</clus>
<clus scale="   45.799">  4  6 -1 -1</clus>
<clus scale="  107.427">  2  3  1 -1</clus>
<clus scale="   32.609">  2  3  1 -1</clus>
</clustering>
</event>
<event>
 6    0  0.3584505E+002  0.8601613E+02  0.7546771E-02  0.1312796E+00
         21   -1    0    0  505  502  0.00000000000E+00  0.00000000000E+00  0.20259047885E+03  0.20259047885E+03  0.00000000000E+00 0.  1.
         -1   -1    0    0    0  501 -0.00000000000E+00 -0.00000000000E+00 -0.10433427492E+04  0.10433427492E+04  0.00000000000E+00 0.  1.
         21    1    1    2  503  502  0.74759952479E+02 -0.97770640363E+01 -0.48370322577E+02  0.89578622350E+02  0.00000000000E+00 0. -1.
         21    1    1    2  504  501 -0.32999324132E+02  0.51951704362E+02 -0.51773098864E+02  0.80426293868E+02  0.00000000000E+00 0. -1.
         21    1    1    2  505  504 -0.66666012133E+02 -0.64395006969E+02  0.15451461164E+03  0.18018279415E+03  0.00000000000E+00 0.  1.
         -1    1    1    2    0  503  0.24905383786E+02  0.22220366644E+02 -0.89512346053E+03  0.89574551767E+03  0.00000000000E+00 0.  1.
<scales pt_clust_3="14000.00000" pt_clust_4="65.63256" pt_clust_5="86.01613" pt_clust_6="33.37698"></scales>
<clustering>
<clus scale="   33.377">  2  6  1 -1</clus>
<clus scale="   65.633">  2  4  1 -1</clus>
<clus scale="   86.016">  1  5  2 -1</clus>
<clus scale="   86.016">  1  3  2 -1</clus>
</clustering>
</event>
<event>
 6    0  0.3584505E+002  0.6891276E+02  0.7546771E-02  0.1363830E+00
          2   -1    0    0  503    0 -0.00000000000E+00  0.00000000000E+00  0.46086064611E+03  0.46086064611E+03  0.00000000000E+00 0. -1.
         21   -1    0    0  504  502  0.00000000000E+00 -0.00000000000E+00 -0.62168884995E+02  0.62168884995E+02  0.00000000000E+00 0. -1.
         21    1    1    2  503  505  0.64761645811E+02 -0.15801444850E+02  0.18141622711E+03  0.19327597855E+03  0.00000000000E+00 0. -1.
         21    1    1    2  504  501 -0.59842557770E+02  0.39262699527E+01  0.39176597047E+02  0.71633463356E+02  0.00000000000E+00 0. -1.
         21    1    1    2  505  502  0.56668450911E+02 -0.29298635734E+02 -0.15313237113E+01  0.63812759985E+02  0.00000000000E+00 0. -1.
          2    1    1    2  501    0 -0.61587538952E+02  0.41173810632E+02  0.17963026067E+03  0.19430732921E+03  0.00000000000E+00 0. -1.
<scales pt_clust_3="68.91276" pt_clust_4="59.97122" pt_clust_5="30.02771" pt_clust_6="14000.00000"></scales>
<clustering>
<clus scale="   59.971">  2  4  1 -1</clus>
<clus scale="   30.028">  2  5  1 -1</clus>
<clus scale="   68.913">  1  3  2 -1</clus>
<clus scale="   59.971">  2  3  1 -1</clus>
</clustering>
</event>
<event>
 6    0  0.3584505E+002  0.9167819E+02  0.7546771E-02  0.1298838E+00
          1   -1    0    0  504    0 -0.00000000000E+00  0.00000000000E+00  0.87720127780E+03  0.87720127780E+03  0.00000000000E+00 0.  1.
         21   -1    0    0  503  502  0.00000000000E+00 -0.00000000000E+00 -0.25972390441E+03  0.25972390441E+03  0.00000000000E+00 0.  1.
         21    1    1    2  503  501 -0.89222010339E+02 -0.37529901531E+02  0.14538962617E+02  0.97879732692E+02  0.00000000000E+00 0.  1.
         21    1    1    2  504  505  0.76159907853E+02  0.53026651007E+02  0.17800079588E+02  0.94493386618E+02  0.00000000000E+00 0.  1.
         21    1    1    2  505  502 -0.21259136802E+01 -0.47848751143E+02 -0.17608879799E+03  0.18248640297E+03  0.00000000000E+00 0.  1.
          1    1    1    2  501    0  0.15188016166E+02  0.32352001667E+02  0.76122712917E+03  0.76206565992E+03  0.00000000000E+00 0.  1.
<scales pt_clust_3="14000.00000" pt_clust_4="91.67819" pt_clust_5="46.98414" pt_clust_6="35.73972"></scales>
<clustering>
<clus scale="   35.740">  1  6  2 -1</clus>
<clus scale="   46.984">  2  5  1 -1</clus>
<clus scale="   91.678">  2  4  1 -1</clus>
<clus scale="   46.984">  2  3  1 -1</clus>
</clustering>
</event>
<event>
 6    0  0.3584505E+002  0.1318855E+03  0.7546771E-02  0.1224684E+00
         21   -1    0    0  503  502  0.00000000000E+00  0.00000000000E+00  0.21624156723E+03  0.21624156723E+03  0.00000000000E+00 0.  1.
          2   -1    0    0  504    0 -0.00000000000E+00 -0.00000000000E+00 -0.26813043256E+04  0.26813043256E+04  0.00000000000E+00 0. -1.
         21    1    1    2  503  501 -0.58861759174E+02 -0.12050090081E+03 -0.23088964380E+03  0.26701161287E+03  0.00000000000E+00 0. -1.
         21    1    1    2  504  505 -0.10519073983E+03  0.12617630882E+03 -0.89042371716E+03  0.90545013597E+03  0.00000000000E+00 0. -1.
         21    1    1    2  505  502  0.12915930513E+03 -0.26947844254E+02  0.16753254533E+03  0.21324977411E+03  0.00000000000E+00 0.  1.
          2    1    1    2  501    0  0.34893193877E+02  0.21272436249E+02 -0.15112819427E+04  0.15118343699E+04  0.00000000000E+00 0. -1.
<scales pt_clust_3="126.86805" pt_clust_4="131.88553" pt_clust_5="14000.00000" pt_clust_6="40.86626"></scales>
<clustering>
<clus scale="   40.866">  2  6  1 -1</clus>
<clus scale="  126.868">  2  3  1 -1</clus>
<clus scale="  131.886">  2  4  1 -1</clus>
<clus scale="  131.886">  1  3  2 -1</clus>
</clustering>
</event>
<event>
 6    0  0.3584505E+002  0.1254503E+03  0.7546771E-02  0.1234367E+00
         21   -1    0    0  505  502  0.00000000000E+00  0.00000000000E+00  0.52917393532E+03  0.52917393532E+03  0.00000000000E+00 0.  1.
         -1   -1    0    0    0  501 -0.00000000000E+00 -0.00000000000E+00 -0.16805782515E+04  0.16805782515E+04  0.00000000000E+00 0. -1.
         21    1    1    2  503  502  0.61962871172E+02 -0.63291624302E+01  0.14048621065E+03  0.15367443211E+03  0.00000000000E+00 0. -1.
         21    1    1    2  504  503 -0.10797299559E+02 -0.15329065298E+03  0.34542729089E+03  0.37806695077E+03  0.00000000000E+00 0.  1.
         21    1    1    2  505  501 -0.50568553438E+01  0.43045182992E+02 -0.82411294753E+01  0.44117749034E+02  0.00000000000E+00 0.  1.
         -1    1    1    2    0  504 -0.46108716268E+02  0.11657463242E+03 -0.16290766882E+04  0.16338930549E+04  0.00000000000E+00 0. -1.
<scales pt_clust_3="60.81022" pt_clust_4="14000.00000" pt_clust_5="43.34120" pt_clust_6="125.45025"></scales>
<clustering>
<clus scale="   43.341">  1  5  2 -1</clus>
<clus scale="   60.810">  1  3  2 -1</clus>
<clus scale="  125.450">  2  6  1 -1</clus>
<clus scale="   43.341">  1  3  2 -1</clus>
</clustering>
</event>
<event>
 6    0  0.3584505E+002  0.1584343E+03  0.7546771E-02  0.1190476E+00
          4   -1    0    0  505    0 -0.00000000000E+00  0.00000000000E+00  0.36700718029E+03  0.36700718029E+03  0.00000000000E+00 0.  1.
         21   -1    0    0  503  502  0.00000000000E+00 -0.00000000000E+00 -0.17098695561E+04  0.17098695561E+04  0.00000000000E+00 0. -1.
         21    1    1    2  503  501  0.67784985277E+02  0.71071132503E+02 -0.14204505852E+04  0.14238419066E+04  0.00000000000E+00 0. -1.
         21    1    1    2  504  502  0.30552366373E+02 -0.44523920707E+01 -0.16895538994E+03  0.17175329597E+03  0.00000000000E+00 0.  1.
         21    1    1    2  505  504 -0.29418780701E+02 -0.17147553597E+03  0.29847613143E+03  0.34548129490E+03  0.00000000000E+00 0.  1.
          4    1    1    2  501    0 -0.68918570949E+02  0.10485679554E+03 -0.51932532114E+02  0.13580023889E+03  0.00000000000E+00 0.  1.
<scales pt_clust_3="117.05108" pt_clust_4="30.87509" pt_clust_5="14000.00000" pt_clust_6="158.43433"></scales>
<clustering>
<clus scale="   30.875">  2  4  1 -1</clus>
<clus scale="  117.051">  2  3  1 -1</clus>
<clus scale="  158.434">  2  6  1 -1</clus>
<clus scale="   30.875">  2  3  1 -1</clus>
</clustering>
</event>
<event>
 6    0  0.3584505E+002  0.1323445E+03  0.7546771E-02  0.1224018E+00
          2   -1    0    0  503    0 -0.00000000000E+00  0.00000000000E+00  0.85045379915E+03  0.85045379915E+03  0.00000000000E+00 0. -1.
         21   -1    0    0  505  502  0.00000000000E+00 -0.00000000000E+00 -0.11739472962E+04  0.11739472962E+04  0.00000000000E+00 0.  1.
         21    1    1    2  503  502 -0.10137005342E+03  0.92666245439E+02 -0.43007204839E+02  0.14391852015E+03  0.00000000000E+00 0. -1.
         21    1    1    2  504  501  0.91770873318E+02 -0.84194402318E+02 -0.10167627754E+03  0.16077517217E+03  0.00000000000E+00 0.  1.
         21    1    1    2  505  504  0.42730193920E+02 -0.40841862827E+02 -0.94764084759E+03  0.94948254499E+03  0.00000000000E+00 0.  1.
          2    1    1    2  501    0 -0.33131013822E+02  0.32370019706E+02  0.76883083293E+03  0.77022485802E+03  0.00000000000E+00 0. -1.
<scales pt_clust_3="132.34448" pt_clust_4="14000.00000" pt_clust_5="58.58242" pt_clust_6="46.31935"></scales>
<clustering>
<clus scale="   46.319">  1  6  2 -1</clus>
<clus scale="   58.582">  2  5  1 -1</clus>
<clus scale="  132.344">  2  3  1 -1</clus>
<clus scale="   58.582">  2  3  1 -1</clus>
</clustering>
</event>
<event>
 6    0  0.3584505E+002  0.1631041E+03  0.7546771E-02  0.1185236E+00
          4   -1    0    0  505    0 -0.00000000000E+00  0.00000000000E+00  0.57646392497E+03  0.57646392497E+03  0.00000000000E+00 0. -1.
         21   -1    0    0  504  502  0.00000000000E+00 -0.00000000000E+00 -0.19158775559E+03  0.19158775559E+03  0.00000000000E+00 0.  1.
         21    1    1    2  503  502 -0.59210525670E+02 -0.56685366562E+02  0.41290676706E+02  0.91782553436E+02  0.00000000000E+00 0.  1.
         21    1    1    2  504  501  0.22494016338E+02 -0.29633852146E+02 -0.45262270998E+02  0.58590264890E+02  0.00000000000E+00 0.  1.
         21    1    1    2  505  503  0.19314259710E+03  0.51814109085E+02  0.31026820759E+01  0.19999597834E+03  0.00000000000E+00 0.  1.
          4    1    1    2  501    0 -0.15642608777E+03  0.34505109623E+02  0.38574508160E+03  0.41768288390E+03  0.00000000000E+00 0. -1.
<scales pt_clust_3="83.00681" pt_clust_4="37.20411" pt_clust_5="14000.00000" pt_clust_6="163.10406"></scales>
<clustering>
<clus scale="   37.204">  2  4  1 -1</clus>
<clus scale="   83.007">  2  3  1 -1</clus>
<clus scale="  163.104">  1  6  2 -1</clus>
<clus scale="   37.204">  2  3  1 -1</clus>
</clustering>
</event>
<event>
 6    0  0.3584505E+002  0.1317818E+03  0.7546771E-02  0.1224836E+00
          1   -1    0    0  505    0 -0.00000000000E+00  0.00000000000E+00  0.46524922935E+03  0.46524922935E+03  0.00000000000E+00 0. -1.
         21   -1    0    0  504  502  0.00000000000E+00 -0.00000000000E+00 -0.16771739942E+03  0.16771739942E+03  0.00000000000E+00 0. -1.
         21    1    1    2  503  501 -0.97727566777E+02 -0.30018713124E+02  0.15203893486E+03  0.18321473237E+03  0.00000000000E+00 0. -1.
         21    1    1    2  504  503 -0.10266989540E+02  0.33226263727E+02 -0.16364883618E+02  0.38434425862E+02  0.00000000000E+00 0. -1.
         21    1    1    2  505  502  0.14249064441E+03  0.14937676141E+02 -0.81518859630E+02  0.16483944427E+03  0.00000000000E+00 0. -1.
          1    1    1    2  501    0 -0.34496088091E+02 -0.18145226744E+02  0.24337663832E+03  0.24647802626E+03  0.00000000000E+00 0. -1.
<scales pt_clust_3="14000.00000" pt_clust_4="34.77637" pt_clust_5="131.78183" pt_clust_6="38.90860"></scales>
<clustering>
<clus scale="   34.776">  2  4  1 -1</clus>
<clus scale="   38.909">  1  6  2 -1</clus>
<clus scale="  131.782">  2  5  1 -1</clus>
<clus scale="   34.776">  2  3  1 -1</clus>
</clustering>
</event>
<event>
 6    0  0.3584505E+002  0.1689677E+03  0.7546771E-02  0.1178929E+00
         21   -1    0    0  505  502  0.00000000000E+00  0.00000000000E+00  0.37643679786E+02  0.37643679786E+02  0.00000000000E+00 0. -1.
          2   -1    0    0  504    0 -0.00000000000E+00 -0.00000000000E+00 -0.30754026850E+04  0.30754026850E+04  0.00000000000E+00 0. -1.
         21    1    1    2  503  502  0.16262248765E+03  0.15911508771E+01 -0.38558089413E+03  0.41847488715E+03  0.00000000000E+00 0. -1.
         21    1    1    2  504  503 -0.41423864515E+02  0.49736525473E+02 -0.91596466252E+03  0.91824883419E+03  0.00000000000E+00 0. -1.
         21    1    1    2  505  501  0.14765090586E+02  0.31637929015E+02 -0.21717324662E+01  0.34981178858E+02  0.00000000000E+00 0. -1.
          2    1    1    2  501    0 -0.13596371373E+03 -0.82965605365E+02 -0.17340417161E+04  0.17413414645E+04  0.00000000000E+00 0. -1.
<scales pt_clust_3="168.96766" pt_clust_4="65.54873" pt_clust_5="34.91370" pt_clust_6="14000.00000"></scales>
<clustering>
<clus scale="   34.914">  1  5  2 -1</clus>
<clus scale="   65.549">  2  4  1 -1</clus>
<clus scale="  168.968">  1  3  2 -1</clus>
<clus scale="   34.914">  1  3  2 -1</clus>
</clustering>
</event>
<event>
 6    0  0.3584505E+002  0.8369588E+02  0.7546771E-02  0.1318879E+00
          2   -1    0    0  504    0 -0.00000000000E+00  0.00000000000E+00  0.12518788756E+04  0.12518788756E+04  0.00000000000E+00 0. -1.
         21   -1    0    0  503  502  0.00000000000E+00 -0.00000000000E+00 -0.35987476440E+03  0.35987476440E+03  0.00000000000E+00 0. -1.
         21    1    1    2  503  501  0.51009666235E+02  0.56490961134E+02 -0.90952130434E+02  0.11859808080E+03  0.00000000000E+00 0. -1.
         21    1    1    2  504  505 -0.27066704348E+02 -0.68660448930E+02  0.16980420271E+03  0.18514948282E+03  0.00000000000E+00 0. -1.
         21    1    1    2  505  502 -0.90650760146E+02 -0.24395111207E+02 -0.23709720471E+03  0.25500542396E+03  0.00000000000E+00 0. -1.
          2    1    1    2  501    0  0.66707798258E+02  0.36564599003E+02  0.10502492436E+04  0.10530006524E+04  0.00000000000E+00 0. -1.
<scales pt_clust_3="14000.00000" pt_clust_4="73.80287" pt_clust_5="83.69588" pt_clust_6="50.55753"></scales>
<clustering>
<clus scale="   73.803">  1  4  2 -1</clus>
<clus scale="   50.558">  1  6  2 -1</clus>
<clus scale="   83.696">  2  5  1 -1</clus>
<clus scale="   83.696">  2  3  1 -1</clus>
</clustering>
</event>
<event>
 6    0  0.3584505E+002  0.1399625E+03  0.7546771E-02  0.1213379E+00
         21   -1    0    0  505  502  0.00000000000E+00  0.00000000000E+00  0.33599844962E+03  0.33599844962E+03  0.00000000000E+00 0. -1.
          2   -1    0    0  504    0 -0.00000000000E+00 -0.00000000000E+00 -0.65834706645E+03  0.65834706645E+03  0.00000000000E+00 0.  1.
         21    1    1    2  503  502  0.12835151068E+02  0.29940813983E+02 -0.19723736480E+01  0.32635620152E+02  0.00000000000E+00 0.  1.
         21    1    1    2  504  503  0.73421210292E+02 -0.10576579229E+03 -0.26086402777E+03  0.29090740438E+03  0.00000000000E+00 0.  1.
         21    1    1    2  505  501 -0.61243361437E+02  0.10473798333E+03  0.29252855918E+03  0.31669188876E+03  0.00000000000E+00 0. -1.
          2    1    1    2  501    0 -0.25012999923E+02 -0.28913005027E+02 -0.35204077459E+03  0.35411060278E+03  0.00000000000E+00 0.  1.
<scales pt_clust_3="32.57596" pt_clust_4="14000.00000" pt_clust_5="139.96253" pt_clust_6="38.13087"></scales>
<clustering>
<clus scale="   32.576">  1  3  2 -1</clus>
<clus scale="   38.131">  2  6  1 -1</clus>
<clus scale="  139.963">  1  5  2 -1</clus>
<clus scale="   32.576">  1  3  2 -1</clus>
</clustering>
</event>
<event>
 6    0  0.3584505E+002  0.1501753E+03  0.7546771E-02  0.1200258E+00
         21   -1    0    0  504  502  0.00000000000E+00  0.00000000000E+00  0.46324881782E+03  0.46324881782E+03  0.00000000000E+00 0. -1.
         -2   -1    0    0    0  501 -0.00000000000E+00 -0.00000000000E+00 -0.10330347111E+04  0.10330347111E+04  0.00000000000E+00 0.  1.
         21    1    1    2  503  502  0.18552924332E+03 -0.17275130863E+02  0.36820224202E+03  0.41266502311E+03  0.00000000000E+00 0. -1.
         21    1    1    2  504  505 -0.33146019365E+02  0.75229596509E+02  0.33278869532E+02  0.88688409321E+02  0.00000000000E+00 0. -1.
         21    1    1    2  505  501 -0.79452071890E+02 -0.46407973494E+02 -0.20016303494E+03  0.22029882498E+03  0.00000000000E+00 0. -1.
         -2    1    1    2    0  503 -0.72931152061E+02 -0.11546492153E+02 -0.77110396992E+03  0.77463127154E+03  0.00000000000E+00 0.  1.
<scales pt_clust_3="14000.00000" pt_clust_4="84.55663" pt_clust_5="150.17532" pt_clust_6="73.83952"></scales>
<clustering>
<clus scale="   73.840">  2  6  1 -1</clus>
<clus scale="   84.557">  1  4  2 -1</clus>
<clus scale="  150.175">  2  5  1 -1</clus>
<clus scale="   84.557">  1  3  2 -1</clus>
</clustering>
</event>
<event>
 6    0  0.3584505E+002  0.1849071E+03  0.7546771E-02  0.1163137E+00
         21   -1    0    0  503  502  0.00000000000E+00  0.00000000000E+00  0.88317455876E+03  0.88317455876E+03  0.00000000000E+00 0.  1.
          2   -1    0    0  505    0 -0.00000000000E+00 -0.00000000000E+00 -0.21069682073E+04  0.21069682073E+04  0.00000000000E+00 0. -1.
         21    1    1    2  503  501  0.19920537833E+03  0.17678994390E+02  0.84411535062E+02  0.21707288373E+03  0.00000000000E+00 0. -1.
         21    1    1    2  504  502  0.17945105275E+02 -0.40328477418E+02  0.64906909530E+03  0.65056829262E+03  0.00000000000E+00 0.  1.
         21    1    1    2  505  504 -0.15213514307E+03  0.91760700948E+02 -0.15423542467E+02  0.17833399468E+03  0.00000000000E+00 0. -1.
          2    1    1    2  501    0 -0.65015340538E+02 -0.69111217919E+02 -0.19418507364E+04  0.19441675950E+04  0.00000000000E+00 0. -1.
<scales pt_clust_3="184.90711" pt_clust_4="44.14083" pt_clust_5="14000.00000" pt_clust_6="94.97100"></scales>
<clustering>
<clus scale="   44.141">  1  4  2 -1</clus>
<clus scale="   94.971">  2  6  1 -1</clus>
<clus scale="  184.907">  1  3  2 -1</clus>
<clus scale="   44.141">  1  3  2 -1</clus>
</clustering>
</event>
<event>
 6    0  0.3584505E+002  0.8891458E+02  0.7546771E-02  0.1305502E+00
          2   -1    0    0  504    0 -0.00000000000E+00  0.00000000000E+00  0.15409081535E+04  0.15409081535E+04  0.00000000000E+00 0.  1.
         21   -1    0    0  503  502  0.00000000000E+00 -0.00000000000E+00 -0.23887491000E+03  0.23887491000E+03  0.00000000000E+00 0. -1.
         21    1    1    2  503  501  0.19478449336E+02  0.31329097311E+02 -0.22091088752E+03  0.22396995904E+03  0.00000000000E+00 0. -1.
         21    1    1    2  504  505 -0.31795262242E+02  0.58007645329E+02  0.28849558213E+03  0.29598230780E+03  0.00000000000E+00 0.  1.
         21    1    1    2  505  502 -0.35767197131E+02 -0.12995732688E+03  0.38239661073E+03  0.40545698551E+03  0.00000000000E+00 0.  1.
          2    1    1    2  501    0  0.48084010036E+02  0.40620584235E+02  0.85205193812E+03  0.85437381112E+03  0.00000000000E+00 0.  1.
<scales pt_clust_3="36.89068" pt_clust_4="88.91458" pt_clust_5="14000.00000" pt_clust_6="65.42945"></scales>
<clustering>
<clus scale="   36.891">  2  3  1 -1</clus>
<clus scale="   65.429">  1  6  2 -1</clus>
<clus scale="   88.915">  1  4  2 -1</clus>
<clus scale="   36.891">  2  3  1 -1</clus>
</clustering>
</event>
<event>
 6    0  0.3584505E+002  0.1932846E+03  0.7546771E-02  0.1155532E+00
          3   -1    0    0  504    0 -0.00000000000E+00  0.00000000000E+00  0.21103139920E+03  0.21103139920E+03  0.00000000000E+00 0. -1.
         21   -1    0    0  503  502  0.00000000000E+00 -0.00000000000E+00 -0.17970016976E+04  0.17970016976E+04  0.00000000000E+00 0. -1.
         21    1    1    2  503  501 -0.18334049681E+03  0.38959029390E+02 -0.26117475152E+03  0.32147129666E+03  0.00000000000E+00 0. -1.
         21    1    1    2  504  505 -0.23563367689E+02  0.54105747043E+02 -0.12614615903E+03  0.13926779096E+03  0.00000000000E+00 0.  1.
         21    1    1    2  505  502  0.16438073607E+03 -0.10891832231E+03 -0.13627964886E+04  0.13769889240E+04  0.00000000000E+00 0. -1.
          3    1    1    2  501    0  0.42523128435E+02  0.15853545880E+02  0.16414710076E+03  0.17030508523E+03  0.00000000000E+00 0. -1.
<scales pt_clust_3="14000.00000" pt_clust_4="59.03950" pt_clust_5="193.28462" pt_clust_6="45.38228"></scales>
<clustering>
<clus scale="   45.382">  1  6  2 -1</clus>
<clus scale="   59.040">  1  4  2 -1</clus>
<clus scale="  193.285">  2  5  1 -1</clus>
<clus scale="  193.285">  2  3  1 -1</clus>
</clustering>
</event>
<event>
 6    0  0.3584505E+002  0.5603536E+02  0.7546771E-02  0.1415265E+00
         21   -1    0    0  504  502  0.00000000000E+00  0.00000000000E+00  0.89997531149E+03  0.89997531149E+03  0.00000000000E+00 0. -1.
          1   -1    0    0  503    0 -0.00000000000E+00 -0.00000000000E+00 -0.19688880771E+04  0.19688880771E+04  0.00000000000E+00 0. -1.
         21    1    1    2  503  502  0.46345183626E+02 -0.41149755515E+01 -0.38172812173E+02  0.60182826938E+02  0.00000000000E+00 0.  1.
         21    1    1    2  504  505  0.70266317792E+01  0.55547998685E+02  0.88406447724E+03  0.88583573738E+03  0.00000000000E+00 0. -1.
         21    1    1    2  505  501 -0.41107717637E+02 -0.10770918892E+03 -0.11060818376E+04  0.11120738039E+04  0.00000000000E+00 0. -1.
          1    1    1    2  501    0 -0.12264097768E+02  0.56276165786E+02 -0.80872259304E+03  0.81077102034E+03  0.00000000000E+00 0. -1.
<scales pt_clust_3="46.52751" pt_clust_4="56.03536" pt_clust_5="14000.00000" pt_clust_6="55.02477"></scales>
<clustering>
<clus scale="   46.528">  2  3  1 -1</clus>
<clus scale="   55.025">  2  6  1 -1</clus>
<clus scale="   56.035">  1  4  2 -1</clus>
<clus scale="   56.035">  1  3  2 -1</clus>
</clustering>
</event>
<event>
 6    0  0.3584505E+002  0.1459685E+03  0.7546771E-02  0.1205516E+00
         21   -1    0    0  504  502  0.00000000000E+00  0.00000000000E+00  0.47463738409E+03  0.47463738409E+03  0.00000000000E+00 0. -1.
          2   -1    0    0  505    0 -0.00000000000E+00 -0.00000000000E+00 -0.50221156985E+03  0.50221156985E+03  0.00000000000E+00 0.  1.
         21    1    1    2  503  502 -0.47176111718E+02  0.14469423946E+03  0.38374015862E+03  0.41281777794E+03  0.00000000000E+00 0. -1.
         21    1    1    2  504  501 -0.35891808985E+02 -0.19850477614E+02  0.29186031351E+02  0.50339724272E+02  0.00000000000E+00 0. -1.
         21    1    1    2  505  503  0.11862751952E+03  0.12681597489E+02 -0.16358322066E+03  0.20246674143E+03  0.00000000000E+00 0.  1.
          2    1    1    2  501    0 -0.35559598816E+02 -0.13752535934E+03 -0.27691715507E+03  0.31122471030E+03  0.00000000000E+00 0.  1.
<scales pt_clust_3="145.96852" pt_clust_4="41.01540" pt_clust_5="117.61575" pt_clust_6="14000.00000"></scales>
<clustering>
<clus scale="   41.015">  1  4  2 -1</clus>
<clus scale="  117.616">  2  5  1 -1</clus>
<clus scale="  145.969">  1  3  2 -1</clus>
<clus scale="   41.015">  1  3  2 -1</clus>
</clustering>
</event>
<event>
 6    0  0.3584505E+002  0.2567309E+03  0.7546771E-02  0.1109123E+00
         21   -1    0    0  503  502  0.00000000000E+00  0.00000000000E+00  0.89440250865E+03  0.89440250865E+03  0.00000000000E+00 0. -1.
          2   -1    0    0  502    0 -0.00000000000E+00 -0.00000000000E+00 -0.17251491614E+04  0.17251491614E+04  0.00000000000E+00 0.  1.
         21    1    1    2  503  504  0.20570091968E+03 -0.15110098545E+00  0.68347747401E+03  0.71376070827E+03  0.00000000000E+00 0. -1.
         21    1    1    2  504  505  0.39146014292E+02  0.34135715913E+02  0.15595442815E+03  0.16437591428E+03  0.00000000000E+00 0.  1.
         21    1    1    2  505  501 -0.21176901838E+03 -0.93998830904E+02 -0.35171194704E+03  0.42116883912E+03  0.00000000000E+00 0. -1.
          2    1    1    2  501    0 -0.33077915593E+02  0.60014215976E+02 -0.13184666079E+04  0.13202462084E+04  0.00000000000E+00 0.  1.
<scales pt_clust_3="36.83311" pt_clust_4="36.83311" pt_clust_5="246.04410" pt_clust_6="68.52631"></scales>
<clustering>
<clus scale="   36.833">  3  4 -1 -1</clus>
<clus scale="   68.526">  2  6  1 -1</clus>
<clus scale="  246.044">  2  5  1 -1</clus>
<clus scale="  256.731">  1  3  2 -1</clus>
</clustering>
</event>
<event>
 6    0  0.3584505E+002  0.7046646E+02  0.7546771E-02  0.1358514E+00
         21   -1    0    0  503  502  0.00000000000E+00  0.00000000000E+00  0.29909390741E+03  0.29909390741E+03  0.00000000000E+00 0.  1.
         -2   -1    0    0    0  501 -0.00000000000E+00 -0.00000000000E+00 -0.12651903262E+03  0.12651903262E+03  0.00000000000E+00 0.  1.
         21    1    1    2  503  504  0.37968260228E+02 -0.29487411350E+02  0.11140359682E+03  0.12133366226E+03  0.00000000000E+00 0.  1.
         21    1    1    2  504  501  0.81217385295E+02 -0.53725754075E+02 -0.87984832895E+01  0.97775935860E+02  0.00000000000E+00 0.  1.
         21    1    1    2  505  502 -0.69758445237E+02  0.48858400007E+02  0.10628912196E+03  0.13620117980E+03  0.00000000000E+00 0.  1.
         -2    1    1    2    0  505 -0.49427200286E+02  0.34354765418E+02 -0.36319360697E+02  0.70302162104E+02  0.00000000000E+00 0.  1.
<scales pt_clust_3="48.07386" pt_clust_4="70.46646" pt_clust_5="53.33000" pt_clust_6="14000.00000"></scales>
<clustering>
<clus scale="   48.074">  1  3  2 -1</clus>
<clus scale="   53.330">  1  5  2 -1</clus>
<clus scale="   70.466">  1  4  2 -1</clus>
<clus scale="   48.074">  1  3  2 -1</clus>
</clustering>
</event>
<event>
 6    0  0.3584505E+002  0.1162902E+03  0.7546771E-02  0.1249346E+00
         21   -1    0    0  503  502  0.00000000000E+00  0.00000000000E+00  0.60312273675E+03  0.60312273675E+03  0.00000000000E+00 0. -1.
          2   -1    0    0  504    0 -0.00000000000E+00 -0.00000000000E+00 -0.10646581143E+04  0.10646581143E+04  0.00000000000E+00 0. -1.
         21    1    1    2  503  505  0.81872303062E+01 -0.28949027753E+02  0.38632498597E+03  0.38749460865E+03  0.00000000000E+00 0. -1.
         21    1    1    2  504  502 -0.45512729734E+02  0.22202702229E+02 -0.54158604759E+02  0.74145283218E+02  0.00000000000E+00 0. -1.
         21    1    1    2  505  501  0.10853444322E+03  0.40880866729E+02  0.18820153198E+03  0.22106738174E+03  0.00000000000E+00 0. -1.
          2    1    1    2  501    0 -0.71208943795E+02 -0.34134541205E+02 -0.98190329074E+03  0.98507357743E+03  0.00000000000E+00 0. -1.
<scales pt_clust_3="30.08450" pt_clust_4="49.72365" pt_clust_5="116.29018" pt_clust_6="14000.00000"></scales>
<clustering>
<clus scale="   30.084">  1  3  2 -1</clus>
<clus scale="   49.724">  2  4  1 -1</clus>
<clus scale="  116.290">  1  5  2 -1</clus>
<clus scale="   30.084">  1  3  2 -1</clus>
</clustering>
</event>
<event>
 6    0  0.3584505E+002  0.7567830E+02  0.7546771E-02  0.1341783E+00
          1   -1    0    0  504    0 -0.00000000000E+00  0.00000000000E+00  0.26139451002E+04  0.26139451002E+04  0.00000000000E+00 0. -1.
         21   -1    0    0  503  502  0.00000000000E+00 -0.00000000000E+00 -0.19183249534E+03  0.19183249534E+03  0.00000000000E+00 0. -1.
         21    1    1    2  503  501  0.56810324268E+02 -0.49894418336E+02 -0.17777891944E+03  0.19318957043E+03  0.00000000000E+00 0. -1.
         21    1    1    2  504  505 -0.42116886364E+02 -0.38932893460E+02  0.22056342041E+03  0.22789871595E+03  0.00000000000E+00 0. -1.
         21    1    1    2  505  502  0.56388277295E+02  0.33075613619E+02  0.74340220853E+03  0.74627104840E+03  0.00000000000E+00 0.  1.
          1    1    1    2  501    0 -0.71081715199E+02  0.55751698177E+02  0.16359258954E+04  0.16384182608E+04  0.00000000000E+00 0. -1.
<scales pt_clust_3="75.67830" pt_clust_4="57.35505" pt_clust_5="48.06289" pt_clust_6="14000.00000"></scales>
<clustering>
<clus scale="   57.355">  1  4  2 -1</clus>
<clus scale="   48.063">  1  5  2 -1</clus>
<clus scale="   75.678">  2  3  1 -1</clus>
<clus scale="   75.678">  2  3  1 -1</clus>
</clustering>
</event>
<event>
 6    0  0.3584505E+002  0.6622271E+02  0.7546771E-02  0.1373430E+00
          1   -1    0    0  504    0 -0.00000000000E+00  0.00000000000E+00  0.51606300635E+03  0.51606300635E+03  0.00000000000E+00 0.  1.
         21   -1    0    0  501  502  0.00000000000E+00 -0.00000000000E+00 -0.58000341685E+03  0.58000341685E+03  0.00000000000E+00 0.  1.
         21    1    1    2  503  505 -0.11950251807E+03 -0.13754722208E+02 -0.16241334857E+03  0.20210922790E+03  0.00000000000E+00 0.  1.
         21    1    1    2  504  503  0.32569367965E+02  0.55786258688E+02  0.19647433726E+03  0.20682126484E+03  0.00000000000E+00 0.  1.
         21    1    1    2  505  502  0.54906611458E+02  0.42916082314E+01 -0.38791405305E+03  0.39180411744E+03  0.00000000000E+00 0.  1.
          1    1    1    2  501    0  0.32026538649E+02 -0.46323144711E+02  0.28991265387E+03  0.29533181303E+03  0.00000000000E+00 0.  1.
<scales pt_clust_3="66.22271" pt_clust_4="14000.00000" pt_clust_5="55.07408" pt_clust_6="56.71508"></scales>
<clustering>
<clus scale="   55.074">  2  5  1 -1</clus>
<clus scale="   56.715">  1  6  2 -1</clus>
<clus scale="   66.223">  2  3  1 -1</clus>
<clus scale="   55.074">  2  3  1 -1</clus>
</clustering>
</event>
<event>
 6    0  0.3584505E+002  0.6609877E+02  0.7546771E-02  0.1373885E+00
         21   -1    0    0  504  502  0.00000000000E+00  0.00000000000E+00  0.30041517653E+03  0.30041517653E+03  0.00000000000E+00 0.  1.
          1   -1    0    0  505    0 -0.00000000000E+00 -0.00000000000E+00 -0.25259919623E+04  0.25259919623E+04  0.00000000000E+00 0.  1.
         21    1    1    2  503  502 -0.47259924838E+02  0.24685468736E+02 -0.23230247836E+02  0.58159412626E+02  0.00000000000E+00 0. -1.
         21    1    1    2  504  501  0.11269774912E+03 -0.25599890508E+02  0.26915711651E+03  0.29291925580E+03  0.00000000000E+00 0.  1.
         21    1    1    2  505  503 -0.79420388003E+02 -0.42171435719E+02 -0.18445282323E+04  0.18467188275E+04  0.00000000000E+00 0.  1.
          1    1    1    2  501    0  0.13982563719E+02  0.43085857492E+02 -0.62697542218E+03  0.62860964296E+03  0.00000000000E+00 0.  1.
<scales pt_clust_3="53.48912" pt_clust_4="14000.00000" pt_clust_5="66.09877" pt_clust_6="45.29794"></scales>
<clustering>
<clus scale="   45.298">  2  6  1 -1</clus>
<clus scale="   53.489">  1  3  2 -1</clus>
<clus scale="   66.099">  2  5  1 -1</clus>
<clus scale="   53.489">  1  3  2 -1</clus>
</clustering>
</event>
<event>
 6    0  0.3584505E+002  0.1070351E+03  0.7546771E-02  0.1266161E+00
         21   -1    0    0  504  502  0.00000000000E+00  0.00000000000E+00  0.15035698302E+03  0.15035698302E+03  0.00000000000E+00 0.  1.
          2   -1    0    0  505    0 -0.00000000000E+00 -0.00000000000E+00 -0.58449648208E+03  0.58449648208E+03  0.00000000000E+00 0.  1.
         21    1    1    2  503  502 -0.10219494486E+03  0.73554721222E+02  0.71754358439E+02  0.14492339950E+03  0.00000000000E+00 0.  1.
         21    1    1    2  504  501 -0.20946865066E+01 -0.41774215479E+02 -0.50367289096E+01  0.42128866927E+02  0.00000000000E+00 0.  1.
         21    1    1    2  505  503  0.71906508046E+02 -0.25730676084E+02 -0.40839151020E+02  0.86605137533E+02  0.00000000000E+00 0.  1.
          2    1    1    2  501    0  0.32383123318E+02 -0.60498296595E+01 -0.46001797758E+03  0.46119606114E+03  0.00000000000E+00 0.  1.
<scales pt_clust_3="14000.00000" pt_clust_4="43.11830" pt_clust_5="107.03507" pt_clust_6="32.94339"></scales>
<clustering>
<clus scale="   32.943">  2  6  1 -1</clus>
<clus scale="   43.118">  2  4  1 -1</clus>
<clus scale="  107.035">  2  5  1 -1</clus>
<clus scale="  107.035">  1  3  2 -1</clus>
</clustering>
</event>
<event>
 6    0  0.3584505E+002  0.1569813E+03  0.7546771E-02  0.1192148E+00
         21   -1    0    0  503  502  0.00000000000E+00  0.00000000000E+00  0.16859567514E+04  0.16859567514E+04  0.00000000000E+00 0. -1.
         -1   -1    0    0    0  501 -0.00000000000E+00 -0.00000000000E+00 -0.10523303180E+04  0.10523303180E+04  0.00000000000E+00 0. -1.
         21    1    1    2  503  505  0.16183379675E+03  0.43722596422E+02  0.88588682601E+02  0.18960431929E+03  0.00000000000E+00 0.  1.
         21    1    1    2  504  502 -0.16496379936E+01 -0.58543938358E+02  0.15301234797E+04  0.15312439313E+04  0.00000000000E+00 0. -1.
         21    1    1    2  505  501 -0.12971946678E+03 -0.65001365546E+02 -0.38744936934E+03  0.41372615507E+03  0.00000000000E+00 0.  1.
         -1    1    1    2    0  504 -0.30464691979E+02  0.79822707482E+02 -0.59763635953E+03  0.60371266370E+03  0.00000000000E+00 0. -1.
<scales pt_clust_3="156.98132" pt_clust_4="58.56718" pt_clust_5="14000.00000" pt_clust_6="84.38109"></scales>
<clustering>
<clus scale="   58.567">  1  4  2 -1</clus>
<clus scale="   84.381">  2  6  1 -1</clus>
<clus scale="  156.981">  1  3  2 -1</clus>
<clus scale="   58.567">  1  3  2 -1</clus>
</clustering>
</event>
<event>
 6    0  0.3584505E+002  0.8274832E+02  0.7546771E-02  0.1321428E+00
         21   -1    0    0  505  502  0.00000000000E+00  0.00000000000E+00  0.39550540895E+03  0.39550540895E+03  0.00000000000E+00 0.  1.
          1   -1    0    0  503    0 -0.00000000000E+00 -0.00000000000E+00 -0.24520656074E+04  0.24520656074E+04  0.00000000000E+00 0.  1.
         21    1    1    2  503  504  0.84249590433E+02  0.10923107390E+01 -0.11342534729E+04  0.11373786210E+04  0.00000000000E+00 0.  1.
         21    1    1    2  504  502  0.15747448409E+02  0.67026904199E+02  0.52230475215E+01  0.69049751942E+02  0.00000000000E+00 0.  1.
         21    1    1    2  505  501 -0.73920062789E+02 -0.66426465393E+01  0.35206689455E+03  0.35980466738E+03  0.00000000000E+00 0.  1.
          1    1    1    2  501    0 -0.26076976054E+02 -0.61476568398E+02 -0.12795966676E+04  0.12813379760E+04  0.00000000000E+00 0.  1.
<scales pt_clust_3="82.74832" pt_clust_4="67.06000" pt_clust_5="14000.00000" pt_clust_6="66.77857"></scales>
<clustering>
<clus scale="   66.779">  2  6  1 -1</clus>
<clus scale="   67.060">  1  4  2 -1</clus>
<clus scale="   82.748">  2  3  1 -1</clus>
<clus scale="   67.060">  1  3  2 -1</clus>
</clustering>
</event>
<event>
 6    0  0.3584505E+002  0.8571505E+02  0.7546771E-02  0.1313573E+00
         21   -1    0    0  503  502  0.00000000000E+00  0.00000000000E+00  0.35982392821E+03  0.35982392821E+03  0.00000000000E+00 0. -1.
          3   -1    0    0  504    0 -0.00000000000E+00 -0.00000000000E+00 -0.67746438306E+03  0.67746438306E+03  0.00000000000E+00 0. -1.
         21    1    1    2  503  501  0.59494321208E+02 -0.84882371698E+01  0.43704354039E+02  0.74308108496E+02  0.00000000000E+00 0. -1.
         21    1    1    2  504  505  0.66233210644E+02 -0.81869625206E+01 -0.11957865850E+03  0.13694130172E+03  0.00000000000E+00 0. -1.
         21    1    1    2  505  502 -0.35210080113E+02  0.60270325219E+02  0.28313342393E+03  0.29161069526E+03  0.00000000000E+00 0. -1.
          3    1    1    2  501    0 -0.90517451739E+02 -0.43595125529E+02 -0.52489957431E+03  0.53442820580E+03  0.00000000000E+00 0. -1.
<scales pt_clust_3="60.09679" pt_clust_4="85.71505" pt_clust_5="56.46647" pt_clust_6="14000.00000"></scales>
<clustering>
<clus scale="   60.097">  1  3  2 -1</clus>
<clus scale="   56.466">  1  5  2 -1</clus>
<clus scale="   85.715">  1  4  2 -1</clus>
<clus scale="   60.097">  1  3  2 -1</clus>
</clustering>
</event>
<event>
 6    0  0.3584505E+002  0.1201648E+03  0.7546771E-02  0.1242825E+00
          2   -1    0    0  505    0 -0.00000000000E+00  0.00000000000E+00  0.16635138716E+04  0.16635138716E+04  0.00000000000E+00 0.  1.
         21   -1    0    0  503  502  0.00000000000E+00 -0.00000000000E+00 -0.48506614176E+03  0.48506614176E+03  0.00000000000E+00 0.  1.
         21    1    1    2  503  501  0.18243590233E+02  0.31937887560E+02 -0.11058170540E+02  0.38407556315E+02  0.00000000000E+00 0. -1.
         21    1    1    2  504  502  0.92857453261E+02  0.36707026860E+02 -0.43317679653E+03  0.44453576852E+03  0.00000000000E+00 0.  1.
         21    1    1    2  505  504 -0.88528055014E+02 -0.13980661991E+02  0.75116567952E+02  0.11694090052E+03  0.00000000000E+00 0.  1.
          2    1    1    2  501    0 -0.22572988480E+02 -0.54664252429E+02  0.15475661289E+04  0.15486957880E+04  0.00000000000E+00 0.  1.
<scales pt_clust_3="36.78121" pt_clust_4="120.16479" pt_clust_5="14000.00000" pt_clust_6="59.09676"></scales>
<clustering>
<clus scale="   36.781">  2  3  1 -1</clus>
<clus scale="   59.097">  1  6  2 -1</clus>
<clus scale="  120.165">  2  4  1 -1</clus>
<clus scale="   36.781">  2  3  1 -1</clus>
</clustering>
</event>
<event>
 6    0  0.3584505E+002  0.1250534E+03  0.7546771E-02  0.1234986E+00
         21   -1    0    0  505  502  0.00000000000E+00  0.00000000000E+00  0.45939805980E+02  0.45939805980E+02  0.00000000000E+00 0. -1.
          2   -1    0    0  504    0 -0.00000000000E+00 -0.00000000000E+00 -0.25457856878E+04  0.25457856878E+04  0.00000000000E+00 0. -1.
         21    1    1    2  503  502 -0.18612130289E+02  0.28418255226E+02  0.11766802265E+02  0.35950886770E+02  0.00000000000E+00 0. -1.
         21    1    1    2  504  503  0.40140161598E+02  0.73880888894E+01 -0.36925889206E+02  0.55039419729E+02  0.00000000000E+00 0. -1.
         21    1    1    2  505  501 -0.85698042519E+02  0.74738932407E+02 -0.27832776408E+03  0.30065995205E+03  0.00000000000E+00 0. -1.
          2    1    1    2  501    0  0.64170011211E+02 -0.11054527652E+03 -0.21963590308E+04  0.22000752352E+04  0.00000000000E+00 0. -1.
<scales pt_clust_3="33.97070" pt_clust_4="37.67402" pt_clust_5="14000.00000" pt_clust_6="125.05337"></scales>
<clustering>
<clus scale="   33.971">  1  3  2 -1</clus>
<clus scale="   37.674">  1  4  2 -1</clus>
<clus scale="  125.053">  2  6  1 -1</clus>
<clus scale="   33.971">  1  3  2 -1</clus>
</clustering>
</event>
<event>
 6    0  0.3584505E+002  0.1180819E+03  0.7546771E-02  0.1246295E+00
         21   -1    0    0  501  502  0.00000000000E+00  0.00000000000E+00  0.24641583557E+03  0.24641583557E+03  0.00000000000E+00 0.  1.
          2   -1    0    0  504    0 -0.00000000000E+00 -0.00000000000E+00 -0.14532071215E+04  0.14532071215E+04  0.00000000000E+00 0.  1.
         21    1    1    2  503  505 -0.33868314751E+02 -0.40157507871E+02  0.16160869811E+03  0.16993251450E+03  0.00000000000E+00 0.  1.
         21    1    1    2  504  503  0.15334238518E+01 -0.87558783124E+02  0.14971909543E+02  0.88842838576E+02  0.00000000000E+00 0. -1.
         21    1    1    2  505  502 -0.36877024182E+02  0.29160474386E+02  0.49853606473E+01  0.47276865376E+02  0.00000000000E+00 0. -1.
          2    1    1    2  501    0  0.69211915081E+02  0.98555816609E+02 -0.13883572542E+04  0.13935707386E+04  0.00000000000E+00 0.  1.
<scales pt_clust_3="64.25474" pt_clust_4="118.08190" pt_clust_5="47.01328" pt_clust_6="14000.00000"></scales>
<clustering>
<clus scale="   47.013">  1  5  2 -1</clus>
<clus scale="   64.255">  1  3  2 -1</clus>
<clus scale="  118.082">  1  4  2 -1</clus>
<clus scale="   47.013">  1  3  2 -1</clus>
</clustering>
</event>
<event>
 6    0  0.3584505E+002  0.7381135E+02  0.7546771E-02  0.1347592E+00
         21   -1    0    0  504  502  0.00000000000E+00  0.00000000000E+00  0.11643222445E+04  0.11643222445E+04  0.00000000000E+00 0.  1.
          2   -1    0    0  503    0 -0.00000000000E+00 -0.00000000000E+00 -0.37072062687E+03  0.37072062687E+03  0.00000000000E+00 0.  1.
         21    1    1    2  503  502 -0.86223425688E+02  0.22857092713E+02  0.10609240082E+04  0.10646674021E+04  0.00000000000E+00 0.  1.
         21    1    1    2  504  505  0.31430582876E+02 -0.63270714248E+01  0.51739925292E+02  0.60868162795E+02  0.00000000000E+00 0.  1.
         21    1    1    2  505  501  0.19934971173E+02 -0.82562378246E+02 -0.32597349383E+01  0.84997501429E+02  0.00000000000E+00 0. -1.
          2    1    1    2  501    0  0.34857871638E+02  0.66032356957E+02 -0.31580258100E+03  0.32450980501E+03  0.00000000000E+00 0.  1.
<scales pt_clust_3="58.53481" pt_clust_4="32.06109" pt_clust_5="14000.00000" pt_clust_6="73.81135"></scales>
<clustering>
<clus scale="   32.061">  1  4  2 -1</clus>
<clus scale="   58.535">  1  3  2 -1</clus>
<clus scale="   73.811">  2  6  1 -1</clus>
<clus scale="   32.061">  1  3  2 -1</clus>
</clustering>
</event>
<event>
 6    0  0.3584505E+002  0.2292518E+03  0.7546771E-02  0.1127167E+00
          2   -1    0    0  505    0 -0.00000000000E+00  0.00000000000E+00  0.10939213792E+04  0.10939213792E+04  0.00000000000E+00 0.  1.
         21   -1    0    0  503  502  0.00000000000E+00 -0.00000000000E+00 -0.42049164699E+03  0.42049164699E+03  0.00000000000E+00 0. -1.
         21    1    1    2  503  501 -0.89267547165E+02 -0.18426383465E+03 -0.12213110739E+03  0.23840692760E+03  0.00000000000E+00 0. -1.
         21    1    1    2  504  502  0.32247887570E+02  0.41662364374E+02 -0.13054958278E+02  0.54278087601E+02  0.00000000000E+00 0. -1.
         21    1    1    2  505  504  0.19919376979E+01  0.18315251866E+03 -0.16451520417E+03  0.24619923906E+03  0.00000000000E+00 0. -1.
          2    1    1    2  501    0  0.55027721897E+02 -0.40551048387E+02  0.97313100201E+03  0.97552877188E+03  0.00000000000E+00 0.  1.
<scales pt_clust_3="213.34249" pt_clust_4="45.00403" pt_clust_5="45.00403" pt_clust_6="68.35523"></scales>
<clustering>
<clus scale="   45.004">  4  5 -1 -1</clus>
<clus scale="   68.355">  1  6  2 -1</clus>
<clus scale="  213.342">  1  3  2 -1</clus>
<clus scale="  229.252">  2  3  1 -1</clus>
</clustering>
</event>
<event>
 6    0  0.3584505E+002  0.8520988E+02  0.7546771E-02  0.1314885E+00
          2   -1    0    0  502    0 -0.00000000000E+00  0.00000000000E+00  0.15965313586E+03  0.15965313586E+03  0.00000000000E+00 0. -1.
         21   -1    0    0  504  502  0.00000000000E+00 -0.00000000000E+00 -0.42932681561E+03  0.42932681561E+03  0.00000000000E+00 0. -1.
         21    1    1    2  503  505  0.27313188929E+02  0.62327738980E+02 -0.88252017451E+02  0.11144135642E+03  0.00000000000E+00 0. -1.
         21    1    1    2  504  503 -0.32452548811E+02  0.39209662643E+02 -0.27712662103E+03  0.28176183144E+03  0.00000000000E+00 0. -1.
         21    1    1    2  505  501 -0.32193215807E+02 -0.85730896157E+02 -0.28519839545E+00  0.91576585643E+02  0.00000000000E+00 0. -1.
          2    1    1    2  501    0  0.37332575690E+02 -0.15806505466E+02  0.95990157129E+02  0.10420017797E+03  0.00000000000E+00 0. -1.
<scales pt_clust_3="85.20988" pt_clust_4="49.50282" pt_clust_5="14000.00000" pt_clust_6="40.54093"></scales>
<clustering>
<clus scale="   40.541">  1  6  2 -1</clus>
<clus scale="   49.503">  2  4  1 -1</clus>
<clus scale="   85.210">  2  3  1 -1</clus>
<clus scale="   49.503">  2  3  1 -1</clus>
</clustering>
</event>
<event>
 6    0  0.3584505E+002  0.1532973E+03  0.7546771E-02  0.1196479E+00
         21   -1    0    0  505  502  0.00000000000E+00  0.00000000000E+00  0.69929613424E+02  0.69929613424E+02  0.00000000000E+00 0. -1.
          2   -1    0    0  504    0 -0.00000000000E+00 -0.00000000000E+00 -0.21966783261E+04  0.21966783261E+04  0.00000000000E+00 0. -1.
         21    1    1    2  503  502 -0.82142807261E+01 -0.37114707727E+02  0.21373171514E+02  0.43609498943E+02  0.00000000000E+00 0. -1.
         21    1    1    2  504  503  0.13413529116E+03 -0.19304048688E+02 -0.72129905547E+03  0.73391910320E+03  0.00000000000E+00 0. -1.
         21    1    1    2  505  501 -0.66480970319E+02  0.17714054680E+03 -0.30294927477E+03  0.35717888490E+03  0.00000000000E+00 0. -1.
          2    1    1    2  501    0 -0.59440040117E+02 -0.12072179038E+03 -0.11238735539E+04  0.11319004525E+04  0.00000000000E+00 0. -1.
<scales pt_clust_3="38.01284" pt_clust_4="135.18901" pt_clust_5="14000.00000" pt_clust_6="153.29731"></scales>
<clustering>
<clus scale="   38.013">  1  3  2 -1</clus>
<clus scale="  135.189">  2  4  1 -1</clus>
<clus scale="  153.297">  2  6  1 -1</clus>
<clus scale="   38.013">  1  3  2 -1</clus>
</clustering>
</event>
<event>
 6    0  0.3584505E+002  0.8054876E+02  0.7546771E-02  0.1327501E+00
          2   -1    0    0  504    0 -0.00000000000E+00  0.00000000000E+00  0.81060561310E+02  0.81060561310E+02  0.00000000000E+00 0.  1.
         21   -1    0    0  503  502  0.00000000000E+00 -0.00000000000E+00 -0.79179401947E+03  0.79179401947E+03  0.00000000000E+00 0. -1.
         21    1    1    2  503  505  0.68452243351E+01  0.29424267696E+02 -0.50534790521E+03  0.50625008634E+03  0.00000000000E+00 0. -1.
         21    1    1    2  504  502 -0.49495735687E+01 -0.10151896162E+03 -0.18844023589E+03  0.21410352718E+03  0.00000000000E+00 0. -1.
         21    1    1    2  505  501 -0.40399684111E+02  0.69501810422E+02 -0.55705912627E+02  0.97804830299E+02  0.00000000000E+00 0. -1.
          2    1    1    2  501    0  0.38504033344E+02  0.25928835063E+01  0.38760595571E+02  0.54696136954E+02  0.00000000000E+00 0.  1.
<scales pt_clust_3="30.21001" pt_clust_4="80.54876" pt_clust_5="14000.00000" pt_clust_6="38.84494"></scales>
<clustering>
<clus scale="   30.210">  2  3  1 -1</clus>
<clus scale="   38.845">  1  6  2 -1</clus>
<clus scale="   80.549">  2  4  1 -1</clus>
<clus scale="   30.210">  2  3  1 -1</clus>
</clustering>
</event>
<event>
 6    0  0.3584505E+002  0.1187878E+03  0.7546771E-02  0.1245110E+00
         21   -1    0    0  504  502  0.00000000000E+00  0.00000000000E+00  0.17524990660E+03  0.17524990660E+03  0.00000000000E+00 0. -1.
          3   -1    0    0  502    0 -0.00000000000E+00 -0.00000000000E+00 -0.12931471103E+04  0.12931471103E+04  0.00000000000E+00 0. -1.
         21    1    1    2  503  505 -0.11013092108E+03 -0.53711633540E+02  0.42147684735E+02  0.12957695275E+03  0.00000000000E+00 0. -1.
         21    1    1    2  504  503 -0.57371969710E+01  0.80110845463E+02  0.57160343763E+02  0.98579753950E+02  0.00000000000E+00 0. -1.
         21    1    1    2  505  501  0.12564042242E+03 -0.65233652593E+02 -0.44451650830E+03  0.46651459927E+03  0.00000000000E+00 0. -1.
          3    1    1    2  501    0 -0.97723043614E+01  0.38834440671E+02 -0.77268872391E+03  0.77372571094E+03  0.00000000000E+00 0. -1.
<scales pt_clust_3="118.78779" pt_clust_4="81.88716" pt_clust_5="14000.00000" pt_clust_6="40.04512"></scales>
<clustering>
<clus scale="   40.045">  2  6  1 -1</clus>
<clus scale="   81.887">  1  4  2 -1</clus>
<clus scale="  118.788">  1  3  2 -1</clus>
<clus scale="   81.887">  1  3  2 -1</clus>
</clustering>
</event>
<event>
 6    0  0.3584505E+002  0.8577232E+02  0.7546771E-02  0.1313425E+00
          1   -1    0    0  503    0 -0.00000000000E+00  0.00000000000E+00  0.19749383514E+03  0.19749383514E+03  0.00000000000E+00 0. -1.
         21   -1    0    0  505  502  0.00000000000E+00 -0.00000000000E+00 -0.25983817625E+03  0.25983817625E+03  0.00000000000E+00 0. -1.
         21    1    1    2  503  504  0.13854617621E+02 -0.11091903280E+03  0.12259532365E+02  0.11245122676E+03  0.00000000000E+00 0. -1.
         21    1    1    2  504  502 -0.45773394722E+02  0.69067948150E+02 -0.14493697983E+03  0.16695003219E+03  0.00000000000E+00 0. -1.
         21    1    1    2  505  501  0.29214491428E+02  0.72091411199E+02 -0.21915559418E+02  0.80814292193E+02  0.00000000000E+00 0. -1.
          1    1    1    2  501    0  0.27042856732E+01 -0.30240326550E+02  0.92248665781E+02  0.97116460238E+02  0.00000000000E+00 0. -1.
<scales pt_clust_3="14000.00000" pt_clust_4="85.77232" pt_clust_5="70.16144" pt_clust_6="30.36100"></scales>
<clustering>
<clus scale="   30.361">  1  6  2 -1</clus>
<clus scale="   70.161">  1  5  2 -1</clus>
<clus scale="   85.772">  2  4  1 -1</clus>
<clus scale="   85.772">  2  3  1 -1</clus>
</clustering>
</event>
<event>
 6    0  0.3584505E+002  0.8336400E+02  0.7546771E-02  0.1319767E+00
         21   -1    0    0  505  502  0.00000000000E+00  0.00000000000E+00  0.64358317157E+02  0.64358317157E+02  0.00000000000E+00 0. -1.
          2   -1    0    0  504    0 -0.00000000000E+00 -0.00000000000E+00 -0.64293842850E+03  0.64293842850E+03  0.00000000000E+00 0. -1.
         21    1    1    2  503  501 -0.12229169291E+03 -0.45213893627E+02 -0.12560555223E+03  0.18104228534E+03  0.00000000000E+00 0. -1.
         21    1    1    2  504  502  0.40768425033E+02  0.51937405630E+02 -0.56781765633E+02  0.87084599624E+02  0.00000000000E+00 0. -1.
         21    1    1    2  505  503  0.14235366585E+02 -0.44233281179E+02 -0.12917998531E+02  0.48229695330E+02  0.00000000000E+00 0. -1.
          2    1    1    2  501    0  0.67287901297E+02  0.37509769175E+02 -0.38327479496E+03  0.39094016536E+03  0.00000000000E+00 0. -1.
<scales pt_clust_3="14000.00000" pt_clust_4="58.92997" pt_clust_5="46.46750" pt_clust_6="83.36400"></scales>
<clustering>
<clus scale="   46.468">  1  5  2 -1</clus>
<clus scale="   58.930">  1  4  2 -1</clus>
<clus scale="   83.364">  2  6  1 -1</clus>
<clus scale="   46.468">  1  3  2 -1</clus>
</clustering>
</event>
<event>
 6    0  0.3584505E+002  0.1353150E+03  0.7546771E-02  0.1219776E+00
         21   -1    0    0  505  502  0.00000000000E+00  0.00000000000E+00  0.21935621595E+04  0.21935621595E+04  0.00000000000E+00 0.  1.
          1   -1    0    0  504    0 -0.00000000000E+00 -0.00000000000E+00 -0.36225248156E+04  0.36225248156E+04  0.00000000000E+00 0. -1.
         21    1    1    2  503  501 -0.17545179397E+03  0.63938771402E+02  0.14278071807E+04  0.14399669592E+04  0.00000000000E+00 0.  1.
         21    1    1    2  504  502  0.10116561222E+03  0.13358434861E+02 -0.15740469440E+03  0.18758775732E+03  0.00000000000E+00 0.  1.
         21    1    1    2  505  503  0.41188227597E+02 -0.43039196420E+02  0.74322696913E+03  0.74561060224E+03  0.00000000000E+00 0.  1.
          1    1    1    2  501    0  0.33097954152E+02 -0.34258009843E+02 -0.34425921114E+04  0.34429216563E+04  0.00000000000E+00 0. -1.
<scales pt_clust_3="135.31504" pt_clust_4="14000.00000" pt_clust_5="59.88797" pt_clust_6="47.63492"></scales>
<clustering>
<clus scale="   47.635">  2  6  1 -1</clus>
<clus scale="   59.888">  1  5  2 -1</clus>
<clus scale="  135.315">  1  3  2 -1</clus>
<clus scale="   59.888">  1  3  2 -1</clus>
</clustering>
</event>
<event>
 6    0  0.3584505E+002  0.1019268E+03  0.7546771E-02  0.1276296E+00
         -3   -1    0    0    0  501 -0.00000000000E+00  0.00000000000E+00  0.26392464122E+02  0.26392464122E+02  0.00000000000E+00 0.  1.
         21   -1    0    0  504  502  0.00000000000E+00 -0.00000000000E+00 -0.20368825004E+04  0.20368825004E+04  0.00000000000E+00 0.  1.
         21    1    1    2  503  502 -0.14077259170E+02 -0.96332738905E+02 -0.57915916276E+03  0.58728485560E+03  0.00000000000E+00 0.  1.
         21    1    1    2  504  505 -0.28442002416E+02  0.10329904256E+03 -0.13845660614E+04  0.13887054469E+04  0.00000000000E+00 0.  1.
         21    1    1    2  505  501  0.35406890590E+02  0.22297245989E+02 -0.36326577155E+02  0.55411508622E+02  0.00000000000E+00 0.  1.
         -3    1    1    2    0  503  0.71123709968E+01 -0.29263549648E+02 -0.10438234888E+02  0.31873153386E+02  0.00000000000E+00 0.  1.
<scales pt_clust_3="14000.00000" pt_clust_4="101.92682" pt_clust_5="39.98871" pt_clust_6="30.11546"></scales>
<clustering>
<clus scale="   30.115">  1  6  2 -1</clus>
<clus scale="   39.989">  1  5  2 -1</clus>
<clus scale="  101.927">  2  4  1 -1</clus>
<clus scale="  101.927">  2  3  1 -1</clus>
</clustering>
</event>
<event>
 6    0  0.3584505E+002  0.8412371E+02  0.7546771E-02  0.1317740E+00
          1   -1    0    0  505    0 -0.00000000000E+00  0.00000000000E+00  0.30999602560E+04  0.30999602560E+04  0.00000000000E+00 0. -1.
         21   -1    0    0  503  502  0.00000000000E+00 -0.00000000000E+00 -0.13698535630E+03  0.13698535630E+03  0.00000000000E+00 0.  1.
         21    1    1    2  503  504  0.69397891959E+02  0.94648898763E+01 -0.93802398652E+02  0.11706639800E+03  0.00000000000E+00 0.  1.
         21    1    1    2  504  501 -0.10329496050E+03 -0.30956301868E+02  0.90643022724E+02  0.14086979470E+03  0.00000000000E+00 0.  1.
         21    1    1    2  505  502 -0.17801117565E+02  0.43231573968E+02  0.82475809589E+02  0.94805632437E+02  0.00000000000E+00 0. -1.
          1    1    1    2  501    0  0.51698186107E+02 -0.21740161976E+02  0.28836584661E+04  0.28842037872E+04  0.00000000000E+00 0. -1.
<scales pt_clust_3="14000.00000" pt_clust_4="84.12371" pt_clust_5="46.75306" pt_clust_6="56.01422"></scales>
<clustering>
<clus scale="   46.753">  2  5  1 -1</clus>
<clus scale="   56.014">  1  6  2 -1</clus>
<clus scale="   84.124">  1  4  2 -1</clus>
<clus scale="   46.753">  2  3  1 -1</clus>
</clustering>
</event>
<event>
 6    0  0.3584505E+002  0.1622677E+03  0.7546771E-02  0.1186160E+00
          1   -1    0    0  504    0 -0.00000000000E+00  0.00000000000E+00  0.19841046824E+03  0.19841046824E+03  0.00000000000E+00 0. -1.
         21   -1    0    0  505  502  0.00000000000E+00 -0.00000000000E+00 -0.17788487171E+04  0.17788487171E+04  0.00000000000E+00 0. -1.
         21    1    1    2  503  501  0.51023304960E+02 -0.13791041670E+03  0.37330609991E+02  0.15171102506E+03  0.00000000000E+00 0. -1.
         21    1    1    2  504  502 -0.10246902946E+03  0.14012614716E+03 -0.29281302373E+03  0.34040373967E+03  0.00000000000E+00 0.  1.
         21    1    1    2  505  503  0.72542795492E+02  0.25403605941E+02 -0.14001755229E+04  0.14022836001E+04  0.00000000000E+00 0. -1.
          1    1    1    2  501    0 -0.21097070988E+02 -0.27619336405E+02  0.75219687741E+02  0.82860820485E+02  0.00000000000E+00 0. -1.
<scales pt_clust_3="14000.00000" pt_clust_4="162.26770" pt_clust_5="76.60598" pt_clust_6="34.75506"></scales>
<clustering>
<clus scale="   34.755">  1  6  2 -1</clus>
<clus scale="   76.606">  2  5  1 -1</clus>
<clus scale="  162.268">  2  4  1 -1</clus>
<clus scale="   76.606">  2  3  1 -1</clus>
</clustering>
</event>
<event>
 6    0  0.3584505E+002  0.9153256E+02  0.7546771E-02  0.1299182E+00
         21   -1    0    0  505  502  0.00000000000E+00  0.00000000000E+00  0.23580970860E+03  0.23580970860E+03  0.00000000000E+00 0.  1.
          2   -1    0    0  504    0 -0.00000000000E+00 -0.00000000000E+00 -0.22522101284E+04  0.22522101284E+04  0.00000000000E+00 0.  1.
         21    1    1    2  503  502 -0.71227734233E+02 -0.58044118577E+02  0.22218776737E+03  0.24043692269E+03  0.00000000000E+00 0.  1.
         21    1    1    2  504  503  0.28748893655E+02  0.95985108740E+01 -0.10365757096E+03  0.10799778847E+03  0.00000000000E+00 0. -1.
         21    1    1    2  505  501  0.59288115935E+02 -0.16812246262E+02 -0.14596757800E+04  0.14609760829E+04  0.00000000000E+00 0.  1.
          2    1    1    2  501    0 -0.16809275357E+02  0.65257853965E+02 -0.67525483627E+03  0.67860904293E+03  0.00000000000E+00 0.  1.
<scales pt_clust_3="91.53256" pt_clust_4="30.30891" pt_clust_5="14000.00000" pt_clust_6="68.72258"></scales>
<clustering>
<clus scale="   30.309">  2  4  1 -1</clus>
<clus scale="   68.723">  2  6  1 -1</clus>
<clus scale="   91.533">  1  3  2 -1</clus>
<clus scale="   91.533">  1  3  2 -1</clus>
</clustering>
</event>
<event>
 6    0  0.3584505E+002  0.1094971E+03  0.7546771E-02  0.1261504E+00
          1   -1    0    0  502    0 -0.00000000000E+00  0.00000000000E+00  0.50530775244E+03  0.50530775244E+03  0.00000000000E+00 0. -1.
         21   -1    0    0  503  502  0.00000000000E+00 -0.00000000000E+00 -0.15622200309E+03  0.15622200309E+03  0.00000000000E+00 0.  1.
         21    1    1    2  503  505 -0.69376683913E+02  0.24592541275E+02 -0.15263409939E+02  0.75172395466E+02  0.00000000000E+00 0.  1.
         21    1    1    2  504  501  0.41134306617E+02  0.28251382677E+01  0.11282258483E+03  0.12012055709E+03  0.00000000000E+00 0. -1.
         21    1    1    2  505  504 -0.19207896319E+02 -0.73400252597E+02 -0.90379703074E+02  0.11800436895E+03  0.00000000000E+00 0.  1.
          1    1    1    2  501    0  0.47450273615E+02  0.45982573055E+02  0.34190627753E+03  0.34823243402E+03  0.00000000000E+00 0. -1.
<scales pt_clust_3="73.60650" pt_clust_4="38.26739" pt_clust_5="98.19801" pt_clust_6="38.26739"></scales>
<clustering>
<clus scale="   38.267">  4  6 -1 -1</clus>
<clus scale="   73.607">  2  3  1 -1</clus>
<clus scale="   98.198">  2  5  1 -1</clus>
<clus scale="   73.607">  2  3  1 -1</clus>
</clustering>
</event>
<event>
 6    0  0.3584505E+002  0.1237561E+03  0.7546771E-02  0.1237026E+00
         21   -1    0    0  505  502  0.00000000000E+00  0.00000000000E+00  0.41955662679E+03  0.41955662679E+03  0.00000000000E+00 0.  1.
          1   -1    0    0  504    0 -0.00000000000E+00 -0.00000000000E+00 -0.55377513153E+03  0.55377513153E+03  0.00000000000E+00 0. -1.
         21    1    1    2  503  502  0.76687232913E+02 -0.78262355956E+02  0.22909618502E+03  0.25395076303E+03  0.00000000000E+00 0.  1.
         21    1    1    2  504  503  0.58504011905E+02 -0.35475360434E+02 -0.73720384993E+01  0.68815460171E+02  0.00000000000E+00 0. -1.
         21    1    1    2  505  501 -0.18506851298E+03  0.13499307639E+03  0.55392093715E+02  0.23567301333E+03  0.00000000000E+00 0. -1.
          1    1    1    2  501    0  0.49877268159E+02 -0.21255359995E+02 -0.41133474498E+03  0.41489252178E+03  0.00000000000E+00 0. -1.
<scales pt_clust_3="14000.00000" pt_clust_4="82.98035" pt_clust_5="123.75607" pt_clust_6="54.21745"></scales>
<clustering>
<clus scale="   54.217">  2  6  1 -1</clus>
<clus scale="   82.980">  2  4  1 -1</clus>
<clus scale="  123.756">  2  5  1 -1</clus>
<clus scale="  123.756">  1  3  2 -1</clus>
</clustering>
</event>
<event>
 6    0  0.3584505E+002  0.8976517E+02  0.7546771E-02  0.1303421E+00
         21   -1    0    0  505  502  0.00000000000E+00  0.00000000000E+00  0.28266844117E+03  0.28266844117E+03  0.00000000000E+00 0.  1.
          2   -1    0    0  503    0 -0.00000000000E+00 -0.00000000000E+00 -0.76182081922E+03  0.76182081922E+03  0.00000000000E+00 0. -1.
         21    1    1    2  503  502 -0.53023894162E+02  0.59359342835E+02  0.13365724667E+03  0.15556132077E+03  0.00000000000E+00 0.  1.
         21    1    1    2  504  501  0.71137881897E+02  0.44924064399E+02 -0.56969019020E+02  0.10160826212E+03  0.00000000000E+00 0.  1.
         21    1    1    2  505  504  0.36328727271E+02 -0.13552196158E+03  0.71066452204E+02  0.15727815844E+03  0.00000000000E+00 0.  1.
          2    1    1    2  501    0 -0.54442715005E+02  0.31238554343E+02 -0.62690705790E+03  0.63004151906E+03  0.00000000000E+00 0. -1.
<scales pt_clust_3="14000.00000" pt_clust_4="74.39678" pt_clust_5="89.76517" pt_clust_6="62.76828"></scales>
<clustering>
<clus scale="   62.768">  2  6  1 -1</clus>
<clus scale="   74.397">  2  4  1 -1</clus>
<clus scale="   89.765">  2  5  1 -1</clus>
<clus scale="   89.765">  1  3  2 -1</clus>
</clustering>
</event>
<event>
 6    0  0.3584505E+002  0.3274770E+03  0.7546771E-02  0.1072259E+00
          2   -1    0    0  504    0 -0.00000000000E+00  0.00000000000E+00  0.12603750956E+04  0.12603750956E+04  0.00000000000E+00 0. -1.
         21   -1    0    0  503  502  0.00000000000E+00 -0.00000000000E+00 -0.96132532004E+03  0.96132532004E+03  0.00000000000E+00 0. -1.
         21    1    1    2  503  505 -0.71354581775E+02  0.53904268528E+02 -0.45936259022E+03  0.46798625599E+03  0.00000000000E+00 0. -1.
         21    1    1    2  504  502  0.33965673667E+02 -0.39361098380E+03 -0.37673320656E+03  0.54590400482E+03  0.00000000000E+00 0. -1.
         21    1    1    2  505  501 -0.83293953799E+02  0.20296421273E+03  0.48017225095E+03  0.52791831278E+03  0.00000000000E+00 0. -1.
          2    1    1    2  501    0  0.12068286191E+03  0.13674250255E+03  0.65497332138E+03  0.67989184205E+03  0.00000000000E+00 0. -1.
<scales pt_clust_3="89.42677" pt_clust_4="327.47702" pt_clust_5="14000.00000" pt_clust_6="182.22452"></scales>
<clustering>
<clus scale="   89.427">  2  3  1 -1</clus>
<clus scale="  182.225">  1  6  2 -1</clus>
<clus scale="  327.477">  2  4  1 -1</clus>
<clus scale="   89.427">  2  3  1 -1</clus>
</clustering>
</event>
<event>
 6    0  0.3584505E+002  0.2179054E+03  0.7546771E-02  0.1135454E+00
          2   -1    0    0  503    0 -0.00000000000E+00  0.00000000000E+00  0.17867425895E+04  0.17867425895E+04  0.00000000000E+00 0. -1.
         21   -1    0    0  505  502  0.00000000000E+00 -0.00000000000E+00 -0.41697952616E+03  0.41697952616E+03  0.00000000000E+00 0.  1.
         21    1    1    2  503  502  0.18278038769E+02  0.16854545655E+03 -0.41859974940E+02  0.17462507015E+03  0.00000000000E+00 0. -1.
         21    1    1    2  504  501  0.85152481622E+01  0.10650247399E+03  0.91280364988E+03  0.91903524941E+03  0.00000000000E+00 0. -1.
         21    1    1    2  505  504 -0.50442868132E+02 -0.25299631220E+03 -0.25077086521E+03  0.35977443457E+03  0.00000000000E+00 0.  1.
          2    1    1    2  501    0  0.23649581200E+02 -0.22051618332E+02  0.74959025360E+03  0.75028736152E+03  0.00000000000E+00 0. -1.
<scales pt_clust_3="217.90536" pt_clust_4="91.85648" pt_clust_5="14000.00000" pt_clust_6="32.33538"></scales>
<clustering>
<clus scale="   32.335">  1  6  2 -1</clus>
<clus scale="   91.856">  1  4  2 -1</clus>
<clus scale="  217.905">  1  3  2 -1</clus>
<clus scale="  217.905">  2  3  1 -1</clus>
</clustering>
</event>
<event>
 6    0  0.3584505E+002  0.2954844E+03  0.7546771E-02  0.1087520E+00
         21   -1    0    0  505  502  0.00000000000E+00  0.00000000000E+00  0.62108383927E+03  0.62108383927E+03  0.00000000000E+00 0.  1.
          2   -1    0    0  503    0 -0.00000000000E+00 -0.00000000000E+00 -0.36824934643E+04  0.36824934643E+04  0.00000000000E+00 0.  1.
         21    1    1    2  503  504  0.13191860701E+02 -0.53469612746E+02  0.47963148338E+02  0.73030735135E+02  0.00000000000E+00 0.  1.
         21    1    1    2  504  502  0.11896006104E+03 -0.19615897414E+03  0.52627370692E+03  0.57410265097E+03  0.00000000000E+00 0.  1.
         21    1    1    2  505  501 -0.94199431582E+02  0.17192232139E+03 -0.98135100904E+03  0.10007400364E+04  0.00000000000E+00 0.  1.
          2    1    1    2  501    0 -0.37952490164E+02  0.77706265495E+02 -0.26542954713E+04  0.26557038811E+04  0.00000000000E+00 0.  1.
<scales pt_clust_3="47.13585" pt_clust_4="47.13585" pt_clust_5="279.38496" pt_clust_6="86.47922"></scales>
<clustering>
<clus scale="   47.136">  3  4 -1 -1</clus>
<clus scale="   86.479">  2  6  1 -1</clus>
<clus scale="  279.385">  2  5  1 -1</clus>
<clus scale="  295.484">  1  3  2 -1</clus>
</clustering>
</event>
<event>
 6    0  0.3584505E+002  0.1115606E+03  0.7546771E-02  0.1257707E+00
         21   -1    0    0  503  502  0.00000000000E+00  0.00000000000E+00  0.57993504350E+02  0.57993504350E+02  0.00000000000E+00 0. -1.
          1   -1    0    0  504    0 -0.00000000000E+00 -0.00000000000E+00 -0.10457961357E+04  0.10457961357E+04  0.00000000000E+00 0.  1.
         21    1    1    2  503  505 -0.15803347716E+02 -0.27778386694E+02 -0.92756590469E+01  0.33277956925E+02  0.00000000000E+00 0. -1.
         21    1    1    2  504  502 -0.26647301063E+02  0.13963800937E+03 -0.87711355012E+02  0.16703931906E+03  0.00000000000E+00 0. -1.
         21    1    1    2  505  501  0.45237388270E+02 -0.67194072307E+02 -0.29320660197E+03  0.30419003286E+03  0.00000000000E+00 0. -1.
          1    1    1    2  501    0 -0.27867394921E+01 -0.44665550365E+02 -0.59760901531E+03  0.59928233120E+03  0.00000000000E+00 0.  1.
<scales pt_clust_3="31.95911" pt_clust_4="14000.00000" pt_clust_5="111.56058" pt_clust_6="45.27536"></scales>
<clustering>
<clus scale="   31.959">  1  3  2 -1</clus>
<clus scale="   45.275">  2  6  1 -1</clus>
<clus scale="  111.561">  2  5  1 -1</clus>
<clus scale="   31.959">  1  3  2 -1</clus>
</clustering>
</event>
<event>
 6    0  0.3584505E+002  0.2062691E+03  0.7546771E-02  0.1144555E+00
         21   -1    0    0  503  502  0.00000000000E+00  0.00000000000E+00  0.35362038164E+03  0.35362038164E+03  0.00000000000E+00 0.  1.
          3   -1    0    0  505    0 -0.00000000000E+00 -0.00000000000E+00 -0.43495251284E+03  0.43495251284E+03  0.00000000000E+00 0.  1.
         21    1    1    2  503  501  0.92899866471E+02 -0.18998630527E+03  0.12677696458E+03  0.24657165313E+03  0.00000000000E+00 0.  1.
         21    1    1    2  504  502 -0.47892448282E+02  0.41224187257E+01  0.58961658652E+02  0.76073373328E+02  0.00000000000E+00 0.  1.
         21    1    1    2  505  504 -0.11203978315E+03  0.19478864475E+03 -0.39036088124E+02  0.22807749847E+03  0.00000000000E+00 0.  1.
          3    1    1    2  501    0  0.67032364956E+02 -0.89247582088E+01 -0.22803466631E+03  0.23785036956E+03  0.00000000000E+00 0.  1.
<scales pt_clust_3="14000.00000" pt_clust_4="48.06954" pt_clust_5="206.26915" pt_clust_6="66.80019"></scales>
<clustering>
<clus scale="   48.070">  1  4  2 -1</clus>
<clus scale="   66.800">  2  6  1 -1</clus>
<clus scale="  206.269">  2  5  1 -1</clus>
<clus scale="   48.070">  1  3  2 -1</clus>
</clustering>
</event>
<event>
 6    0  0.3584505E+002  0.1254637E+03  0.7546771E-02  0.1234346E+00
         21   -1    0    0  501  502  0.00000000000E+00  0.00000000000E+00  0.12191705539E+03  0.12191705539E+03  0.00000000000E+00 0. -1.
          1   -1    0    0  505    0 -0.00000000000E+00 -0.00000000000E+00 -0.64375034468E+03  0.64375034468E+03  0.00000000000E+00 0.  1.
         21    1    1    2  503  504 -0.25909118577E+02 -0.12551291244E+03  0.41784199139E+02  0.13479871257E+03  0.00000000000E+00 0. -1.
         21    1    1    2  504  502 -0.45520088819E+02  0.90834930807E+01 -0.97972119486E+01  0.47440211789E+02  0.00000000000E+00 0. -1.
         21    1    1    2  505  503  0.47577993817E+02  0.48440033384E+02 -0.83500824943E+02  0.10762197776E+03  0.00000000000E+00 0.  1.
          1    1    1    2  501    0  0.23851213578E+02  0.67989385971E+02 -0.47031945154E+03  0.47580649795E+03  0.00000000000E+00 0.  1.
<scales pt_clust_3="125.46375" pt_clust_4="46.41754" pt_clust_5="65.08315" pt_clust_6="14000.00000"></scales>
<clustering>
<clus scale="   46.418">  1  4  2 -1</clus>
<clus scale="   65.083">  2  5  1 -1</clus>
<clus scale="  125.464">  1  3  2 -1</clus>
<clus scale="   46.418">  1  3  2 -1</clus>
</clustering>
</event>
<event>
 6    0  0.3584505E+002  0.2328603E+03  0.7546771E-02  0.1124643E+00
         21   -1    0    0  501  502  0.00000000000E+00  0.00000000000E+00  0.21154232154E+03  0.21154232154E+03  0.00000000000E+00 0.  1.
          2   -1    0    0  504    0 -0.00000000000E+00 -0.00000000000E+00 -0.55102910328E+03  0.55102910328E+03  0.00000000000E+00 0.  1.
         21    1    1    2  503  505 -0.20500193248E+03 -0.69878087506E+02 -0.84147117358E+02  0.23235635734E+03  0.00000000000E+00 0.  1.
         21    1    1    2  504  503 -0.15677338569E+02 -0.31608246056E+02 -0.10180576321E+03  0.10774633908E+03  0.00000000000E+00 0. -1.
         21    1    1    2  505  502  0.20990891361E+03  0.13045365474E+03  0.18354525970E+02  0.24782412447E+03  0.00000000000E+00 0.  1.
          2    1    1    2  501    0  0.10770357448E+02 -0.28967321177E+02 -0.17188842714E+03  0.17464460393E+03  0.00000000000E+00 0.  1.
<scales pt_clust_3="232.86034" pt_clust_4="41.62421" pt_clust_5="14000.00000" pt_clust_6="30.90479"></scales>
<clustering>
<clus scale="   30.905">  2  6  1 -1</clus>
<clus scale="   41.624">  2  4  1 -1</clus>
<clus scale="  232.860">  2  3  1 -1</clus>
<clus scale="  232.860">  1  3  2 -1</clus>
</clustering>
</event>
<event>
 6    0  0.3584505E+002  0.1442442E+03  0.7546771E-02  0.1207729E+00
         21   -1    0    0  505  502  0.00000000000E+00  0.00000000000E+00  0.15994378683E+03  0.15994378683E+03  0.00000000000E+00 0.  1.
          2   -1    0    0  504    0 -0.00000000000E+00 -0.00000000000E+00 -0.40579286401E+03  0.40579286401E+03  0.00000000000E+00 0.  1.
         21    1    1    2  503  502 -0.34877292302E+02  0.68293215721E+01  0.89160527078E+02  0.95982627284E+02  0.00000000000E+00 0.  1.
         21    1    1    2  504  503 -0.12171398702E+03 -0.37938320659E+02 -0.25216026751E+03  0.28255691696E+03  0.00000000000E+00 0.  1.
         21    1    1    2  505  501  0.11023188264E+03  0.11438951867E+00 -0.41547485760E+02  0.11780184467E+03  0.00000000000E+00 0.  1.
          2    1    1    2  501    0  0.46359396684E+02  0.30994609569E+02 -0.41301850989E+02  0.69395261930E+02  0.00000000000E+00 0.  1.
<scales pt_clust_3="35.53963" pt_clust_4="134.59663" pt_clust_5="38.83493" pt_clust_6="38.83493"></scales>
<clustering>
<clus scale="   35.540">  1  3  2 -1</clus>
<clus scale="   38.835">  5  6 -1 -1</clus>
<clus scale="  134.597">  2  4  1 -1</clus>
<clus scale="   35.540">  1  3  2 -1</clus>
</clustering>
</event>
<event>
 6    0  0.3584505E+002  0.1484760E+03  0.7546771E-02  0.1202358E+00
         21   -1    0    0  505  502  0.00000000000E+00  0.00000000000E+00  0.64444683933E+02  0.64444683933E+02  0.00000000000E+00 0.  1.
          2   -1    0    0  503    0 -0.00000000000E+00 -0.00000000000E+00 -0.20187043043E+04  0.20187043043E+04  0.00000000000E+00 0.  1.
         21    1    1    2  503  504 -0.77557458128E+02  0.45774110623E+02 -0.24255222612E+03  0.25873154216E+03  0.00000000000E+00 0.  1.
         21    1    1    2  504  502  0.25551306310E+02 -0.20490020244E+02 -0.22723845519E+02  0.39863308178E+02  0.00000000000E+00 0.  1.
         21    1    1    2  505  501  0.10534601233E+03  0.11360131861E+03 -0.91036326334E+02  0.17969600612E+03  0.00000000000E+00 0.  1.
          2    1    1    2  501    0 -0.53339860512E+02 -0.13888540899E+03 -0.15979472224E+04  0.16048581318E+04  0.00000000000E+00 0.  1.
<scales pt_clust_3="85.36688" pt_clust_4="32.75225" pt_clust_5="14000.00000" pt_clust_6="148.47596"></scales>
<clustering>
<clus scale="   32.752">  1  4  2 -1</clus>
<clus scale="   85.367">  1  3  2 -1</clus>
<clus scale="  148.476">  2  6  1 -1</clus>
<clus scale="   32.752">  1  3  2 -1</clus>
</clustering>
</event>
<event>
 6    0  0.3584505E+002  0.1349858E+03  0.7546771E-02  0.1220240E+00
         21   -1    0    0  503  502  0.00000000000E+00  0.00000000000E+00  0.40234864238E+03  0.40234864238E+03  0.00000000000E+00 0. -1.
          2   -1    0    0  505    0 -0.00000000000E+00 -0.00000000000E+00 -0.89528504260E+03  0.89528504260E+03  0.00000000000E+00 0.  1.
         21    1    1    2  503  501 -0.68257921213E+02 -0.14099382117E+03 -0.42878006877E+02  0.16240974383E+03  0.00000000000E+00 0.  1.
         21    1    1    2  504  502  0.31267760427E+02 -0.20216370134E+02  0.29423554303E+03  0.29658207843E+03  0.00000000000E+00 0. -1.
         21    1    1    2  505  504  0.61001696362E+02  0.10250981705E+03 -0.31965963063E+02  0.12349612280E+03  0.00000000000E+00 0. -1.
          2    1    1    2  501    0 -0.24011535577E+02  0.58700374250E+02 -0.71232797331E+03  0.71514573993E+03  0.00000000000E+00 0.  1.
<scales pt_clust_3="134.98580" pt_clust_4="37.23405" pt_clust_5="14000.00000" pt_clust_6="63.01966"></scales>
<clustering>
<clus scale="   37.234">  1  4  2 -1</clus>
<clus scale="   63.020">  2  6  1 -1</clus>
<clus scale="  134.986">  2  3  1 -1</clus>
<clus scale="   37.234">  1  3  2 -1</clus>
</clustering>
</event>
<event>
 6    0  0.3584505E+002  0.1613053E+03  0.7546771E-02  0.1187231E+00
         21   -1    0    0  503  502  0.00000000000E+00  0.00000000000E+00  0.10525825952E+04  0.10525825952E+04  0.00000000000E+00 0.  1.
         -4   -1    0    0    0  501 -0.00000000000E+00 -0.00000000000E+00 -0.21013357302E+03  0.21013357302E+03  0.00000000000E+00 0. -1.
         21    1    1    2  503  501  0.32163759808E+02  0.61626094127E+01  0.51100088297E+03  0.51204920427E+03  0.00000000000E+00 0.  1.
         21    1    1    2  504  505  0.19307959802E+02 -0.57773751582E+02 -0.40440135345E+02  0.73116401924E+02  0.00000000000E+00 0.  1.
         21    1    1    2  505  502 -0.10292423361E+03  0.13296560371E+03  0.49413153185E+03  0.52195710591E+03  0.00000000000E+00 0.  1.
         -4    1    1    2    0  504  0.51452514004E+02 -0.81354461539E+02 -0.12224325734E+03  0.15559345608E+03  0.00000000000E+00 0. -1.
<scales pt_clust_3="32.74882" pt_clust_4="30.58903" pt_clust_5="156.65505" pt_clust_6="30.58903"></scales>
<clustering>
<clus scale="   30.589">  4  6 -1 -1</clus>
<clus scale="   32.749">  1  3  2 -1</clus>
<clus scale="  156.655">  1  5  2 -1</clus>
<clus scale="   32.749">  1  3  2 -1</clus>
</clustering>
</event>
<event>
 6    0  0.3584505E+002  0.8924201E+02  0.7546771E-02  0.1304698E+00
         21   -1    0    0  501  502  0.00000000000E+00  0.00000000000E+00  0.22061641278E+02  0.22061641278E+02  0.00000000000E+00 0. -1.
          2   -1    0    0  505    0 -0.00000000000E+00 -0.00000000000E+00 -0.28719858523E+04  0.28719858523E+04  0.00000000000E+00 0. -1.
         21    1    1    2  503  502 -0.26034307482E+02 -0.20810109887E+02 -0.22800385273E+02  0.40381968850E+02  0.00000000000E+00 0. -1.
         21    1    1    2  504  503  0.33983245826E+02 -0.73271497235E+02 -0.14294009419E+03  0.16418113117E+03  0.00000000000E+00 0. -1.
         21    1    1    2  505  504  0.54576840683E+02  0.28532301901E+02 -0.56123300029E+03  0.56460181049E+03  0.00000000000E+00 0. -1.
          2    1    1    2  501    0 -0.62525779026E+02  0.65549305221E+02 -0.21229507313E+04  0.21248825831E+04  0.00000000000E+00 0. -1.
<scales pt_clust_3="33.32935" pt_clust_4="89.24201" pt_clust_5="57.43870" pt_clust_6="14000.00000"></scales>
<clustering>
<clus scale="   33.329">  1  3  2 -1</clus>
<clus scale="   57.439">  2  5  1 -1</clus>
<clus scale="   89.242">  1  4  2 -1</clus>
<clus scale="   33.329">  1  3  2 -1</clus>
</clustering>
</event>
<event>
 6    0  0.3584505E+002  0.6786459E+02  0.7546771E-02  0.1367509E+00
          1   -1    0    0  502    0 -0.00000000000E+00  0.00000000000E+00  0.10706792285E+04  0.10706792285E+04  0.00000000000E+00 0.  1.
         21   -1    0    0  505  502  0.00000000000E+00 -0.00000000000E+00 -0.12376140603E+03  0.12376140603E+03  0.00000000000E+00 0.  1.
         21    1    1    2  503  504  0.78880106945E+02  0.18574591073E+02 -0.35037240339E+02  0.88287569430E+02  0.00000000000E+00 0.  1.
         21    1    1    2  504  501 -0.79827869855E+02  0.66833280224E+02  0.39932127830E+02  0.11150673067E+03  0.00000000000E+00 0.  1.
         21    1    1    2  505  503 -0.24663374859E+02 -0.23446189307E+02 -0.13620326335E+02  0.36654046733E+02  0.00000000000E+00 0.  1.
          1    1    1    2  501    0  0.25611137768E+02 -0.61961681990E+02  0.95564326132E+03  0.95799228771E+03  0.00000000000E+00 0.  1.
<scales pt_clust_3="63.58060" pt_clust_4="14000.00000" pt_clust_5="34.02949" pt_clust_6="67.86459"></scales>
<clustering>
<clus scale="   34.029">  2  5  1 -1</clus>
<clus scale="   63.581">  2  3  1 -1</clus>
<clus scale="   67.865">  1  6  2 -1</clus>
<clus scale="   34.029">  2  3  1 -1</clus>
</clustering>
</event>
<event>
 6    0  0.3584505E+002  0.1038889E+03  0.7546771E-02  0.1272324E+00
          2   -1    0    0  505    0 -0.00000000000E+00  0.00000000000E+00  0.13133131023E+04  0.13133131023E+04  0.00000000000E+00 0. -1.
         21   -1    0    0  504  502  0.00000000000E+00 -0.00000000000E+00 -0.23197044746E+04  0.23197044746E+04  0.00000000000E+00 0. -1.
         21    1    1    2  503  502  0.19309942085E+02  0.11966485397E+03  0.10362472069E+02  0.12165497099E+03  0.00000000000E+00 0.  1.
         21    1    1    2  504  501 -0.33530399474E+02 -0.98030343525E+02 -0.22445927896E+04  0.22469826495E+04  0.00000000000E+00 0. -1.
         21    1    1    2  505  503 -0.24888149349E+02 -0.33969656163E+02  0.68049350718E+01  0.42657527579E+02  0.00000000000E+00 0.  1.
          2    1    1    2  501    0  0.39108606738E+02  0.12335145717E+02  0.12210340102E+04  0.12217224288E+04  0.00000000000E+00 0. -1.
<scales pt_clust_3="14000.00000" pt_clust_4="103.88894" pt_clust_5="33.85169" pt_clust_6="41.00779"></scales>
<clustering>
<clus scale="   41.008">  1  6  2 -1</clus>
<clus scale="   33.852">  1  5  2 -1</clus>
<clus scale="  103.889">  2  4  1 -1</clus>
<clus scale="  103.889">  2  3  1 -1</clus>
</clustering>
</event>
<event>
 6    0  0.3584505E+002  0.8475245E+02  0.7546771E-02  0.1316081E+00
         21   -1    0    0  503  502  0.00000000000E+00  0.00000000000E+00  0.35210477686E+03  0.35210477686E+03  0.00000000000E+00 0.  1.
          2   -1    0    0  504    0 -0.00000000000E+00 -0.00000000000E+00 -0.18313476334E+04  0.18313476334E+04  0.00000000000E+00 0. -1.
         21    1    1    2  503  505 -0.23142473022E+02 -0.20578232379E+02  0.27519837678E+03  0.27693534315E+03  0.00000000000E+00 0.  1.
         21    1    1    2  504  502 -0.41650590710E+02 -0.10584998789E+03  0.17580525748E+02  0.11510024556E+03  0.00000000000E+00 0.  1.
         21    1    1    2  505  501  0.97996538123E+01  0.62423762416E+02 -0.10704946124E+03  0.12430746752E+03  0.00000000000E+00 0. -1.
          2    1    1    2  501    0  0.54993409919E+02  0.64004457856E+02 -0.16649722978E+04  0.16671093540E+04  0.00000000000E+00 0. -1.
<scales pt_clust_3="30.96833" pt_clust_4="84.75245" pt_clust_5="60.51515" pt_clust_6="14000.00000"></scales>
<clustering>
<clus scale="   30.968">  1  3  2 -1</clus>
<clus scale="   60.515">  1  5  2 -1</clus>
<clus scale="   84.752">  1  4  2 -1</clus>
<clus scale="   30.968">  1  3  2 -1</clus>
</clustering>
</event>
<event>
 6    0  0.3584505E+002  0.1584868E+03  0.7546771E-02  0.1190416E+00
          2   -1    0    0  504    0 -0.00000000000E+00  0.00000000000E+00  0.21498034184E+04  0.21498034184E+04  0.00000000000E+00 0.  1.
         21   -1    0    0  505  502  0.00000000000E+00 -0.00000000000E+00 -0.42277761771E+03  0.42277761771E+03  0.00000000000E+00 0. -1.
         21    1    1    2  503  502  0.14692179192E+03 -0.81182701406E+02 -0.37857590820E+03  0.41412119267E+03  0.00000000000E+00 0. -1.
         21    1    1    2  504  503 -0.91228006557E+02  0.36271114171E+02  0.94916006318E+02  0.13655471855E+03  0.00000000000E+00 0.  1.
         21    1    1    2  505  501 -0.11711516272E+02  0.51345328123E+02  0.12430609872E+03  0.13500188337E+03  0.00000000000E+00 0.  1.
          2    1    1    2  501    0 -0.43982269090E+02 -0.64337408884E+01  0.18863796039E+04  0.18869032415E+04  0.00000000000E+00 0.  1.
<scales pt_clust_3="158.48684" pt_clust_4="14000.00000" pt_clust_5="58.61015" pt_clust_6="44.45034"></scales>
<clustering>
<clus scale="   44.450">  1  6  2 -1</clus>
<clus scale="   58.610">  1  5  2 -1</clus>
<clus scale="  158.487">  2  3  1 -1</clus>
<clus scale="  158.487">  2  3  1 -1</clus>
</clustering>
</event>
<event>
 6    0  0.3584505E+002  0.6211379E+02  0.7546771E-02  0.1389169E+00
          2   -1    0    0  505    0 -0.00000000000E+00  0.00000000000E+00  0.38128787254E+04  0.38128787254E+04  0.00000000000E+00 0.  1.
         21   -1    0    0  504  502  0.00000000000E+00 -0.00000000000E+00 -0.39512483739E+03  0.39512483739E+03  0.00000000000E+00 0. -1.
         21    1    1    2  503  502 -0.26316687870E+02  0.43368985757E+02 -0.37936392006E+03  0.38274067046E+03  0.00000000000E+00 0. -1.
         21    1    1    2  504  501  0.62481803315E+02 -0.56218047737E+02  0.24117997078E+03  0.25540599629E+03  0.00000000000E+00 0.  1.
         21    1    1    2  505  503 -0.50387134207E+01  0.66907160556E+02  0.16199197127E+03  0.17533783255E+03  0.00000000000E+00 0.  1.
          2    1    1    2  501    0 -0.31126402024E+02 -0.54058098576E+02  0.33939458660E+04  0.33945190635E+04  0.00000000000E+00 0.  1.
<scales pt_clust_3="50.72905" pt_clust_4="59.95794" pt_clust_5="62.11379" pt_clust_6="14000.00000"></scales>
<clustering>
<clus scale="   50.729">  2  3  1 -1</clus>
<clus scale="   59.958">  2  4  1 -1</clus>
<clus scale="   62.114">  2  5  1 -1</clus>
<clus scale="   50.729">  2  3  1 -1</clus>
</clustering>
</event>
<event>
 6    0  0.3584505E+002  0.1286964E+03  0.7546771E-02  0.1229403E+00
         21   -1    0    0  504  502  0.00000000000E+00  0.00000000000E+00  0.42508048651E+03  0.42508048651E+03  0.00000000000E+00 0. -1.
         -2   -1    0    0    0  501 -0.00000000000E+00 -0.00000000000E+00 -0.89062050004E+03  0.89062050004E+03  0.00000000000E+00 0. -1.
         21    1    1    2  503  501  0.10920281069E+03 -0.99376910851E+02 -0.10745492759E+03  0.18261321348E+03  0.00000000000E+00 0. -1.
         21    1    1    2  504  503  0.26789590371E+02 -0.21348820217E+02  0.30835540679E+02  0.46089964697E+02  0.00000000000E+00 0.  1.
         21    1    1    2  505  502 -0.13052593168E+03  0.87034584145E+02  0.33098536477E+03  0.36628315464E+03  0.00000000000E+00 0. -1.
         -2    1    1    2    0  505 -0.54664693730E+01  0.33691146923E+02 -0.71990599139E+03  0.72071465373E+03  0.00000000000E+00 0. -1.
<scales pt_clust_3="128.69641" pt_clust_4="33.13986" pt_clust_5="14000.00000" pt_clust_6="34.13174"></scales>
<clustering>
<clus scale="   34.132">  2  6  1 -1</clus>
<clus scale="   33.140">  1  4  2 -1</clus>
<clus scale="  128.696">  2  3  1 -1</clus>
<clus scale="   33.140">  1  3  2 -1</clus>
</clustering>
</event>
<event>
 6    0  0.3584505E+002  0.1614749E+03  0.7546771E-02  0.1187042E+00
         21   -1    0    0  503  502  0.00000000000E+00  0.00000000000E+00  0.33251395825E+03  0.33251395825E+03  0.00000000000E+00 0. -1.
          1   -1    0    0  502    0 -0.00000000000E+00 -0.00000000000E+00 -0.97553502639E+03  0.97553502639E+03  0.00000000000E+00 0.  1.
         21    1    1    2  503  505 -0.35005330481E+02  0.10300693157E+02  0.17644207976E+03  0.18017570578E+03  0.00000000000E+00 0. -1.
         21    1    1    2  504  501  0.74760493178E+02  0.21265173751E+03 -0.34363304782E+02  0.22801475725E+03  0.00000000000E+00 0.  1.
         21    1    1    2  505  504 -0.44756415849E+02 -0.65522934484E+02  0.18077158002E+02  0.81382893439E+02  0.00000000000E+00 0.  1.
          1    1    1    2  501    0  0.50012531515E+01 -0.15742949618E+03 -0.80317700112E+03  0.81847562818E+03  0.00000000000E+00 0.  1.
<scales pt_clust_3="36.48942" pt_clust_4="14000.00000" pt_clust_5="83.72606" pt_clust_6="161.47486"></scales>
<clustering>
<clus scale="   36.489">  1  3  2 -1</clus>
<clus scale="   83.726">  1  5  2 -1</clus>
<clus scale="  161.475">  2  6  1 -1</clus>
<clus scale="   36.489">  1  3  2 -1</clus>
</clustering>
</event>
<event>
 6    0  0.3584505E+002  0.1147072E+03  0.7546771E-02  0.1252093E+00
          2   -1    0    0  505    0 -0.00000000000E+00  0.00000000000E+00  0.18565640102E+04  0.18565640102E+04  0.00000000000E+00 0.  1.
         21   -1    0    0  503  502  0.00000000000E+00 -0.00000000000E+00 -0.18429370910E+03  0.18429370910E+03  0.00000000000E+00 0.  1.
         21    1    1    2  503  504  0.15951945097E+02 -0.45388161145E+02 -0.15475089097E+03  0.16205674309E+03  0.00000000000E+00 0.  1.
         21    1    1    2  504  501  0.47902792653E+02 -0.84202222211E+02  0.10755774851E+03  0.14475275829E+03  0.00000000000E+00 0.  1.
         21    1    1    2  505  502 -0.43707141651E+02  0.96962470028E+02  0.39614347449E+03  0.41017275288E+03  0.00000000000E+00 0.  1.
          2    1    1    2  501    0 -0.20147596099E+02  0.32627913328E+02  0.13233199691E+04  0.13238754651E+04  0.00000000000E+00 0.  1.
<scales pt_clust_3="47.85303" pt_clust_4="114.70718" pt_clust_5="14000.00000" pt_clust_6="38.34718"></scales>
<clustering>
<clus scale="   38.347">  1  6  2 -1</clus>
<clus scale="   47.853">  2  3  1 -1</clus>
<clus scale="  114.707">  2  4  1 -1</clus>
<clus scale="   47.853">  2  3  1 -1</clus>
</clustering>
</event>
<event>
 6    0  0.3584505E+002  0.7907131E+02  0.7546771E-02  0.1331708E+00
         21   -1    0    0  503  502  0.00000000000E+00  0.00000000000E+00  0.10811069769E+03  0.10811069769E+03  0.00000000000E+00 0.  1.
          1   -1    0    0  504    0 -0.00000000000E+00 -0.00000000000E+00 -0.10922578802E+04  0.10922578802E+04  0.00000000000E+00 0.  1.
         21    1    1    2  503  501 -0.36183996491E+02  0.86705092661E+01  0.54714733779E+02  0.66167676592E+02  0.00000000000E+00 0.  1.
         21    1    1    2  504  505 -0.16627449131E+02  0.52912333447E+02 -0.17369019232E+03  0.18233066117E+03  0.00000000000E+00 0.  1.
         21    1    1    2  505  502  0.11137982849E+03 -0.50548735911E+01 -0.33774396747E+02  0.11649775885E+03  0.00000000000E+00 0.  1.
          1    1    1    2  501    0 -0.58568382871E+02 -0.56527969122E+02 -0.83139732724E+03  0.83537248130E+03  0.00000000000E+00 0.  1.
<scales pt_clust_3="37.20832" pt_clust_4="57.26927" pt_clust_5="14000.00000" pt_clust_6="79.07131"></scales>
<clustering>
<clus scale="   37.208">  1  3  2 -1</clus>
<clus scale="   57.269">  2  4  1 -1</clus>
<clus scale="   79.071">  2  6  1 -1</clus>
<clus scale="   37.208">  1  3  2 -1</clus>
</clustering>
</event>
<event>
 6    0  0.3584505E+002  0.9012486E+02  0.7546771E-02  0.1302550E+00
         21   -1    0    0  505  502  0.00000000000E+00  0.00000000000E+00  0.19508346920E+02  0.19508346920E+02  0.00000000000E+00 0. -1.
          2   -1    0    0  504    0 -0.00000000000E+00 -0.00000000000E+00 -0.33204002887E+04  0.33204002887E+04  0.00000000000E+00 0. -1.
         21    1    1    2  503  502  0.34383099276E+02  0.20879577030E+02 -0.12705440627E+02  0.42185097775E+02  0.00000000000E+00 0. -1.
         21    1    1    2  504  503 -0.11492188607E+03  0.23746527082E+02 -0.13165788177E+04  0.13217982904E+04  0.00000000000E+00 0. -1.
         21    1    1    2  505  501  0.50426610410E+02 -0.58528996141E+02 -0.77130668303E+03  0.77516610201E+03  0.00000000000E+00 0. -1.
          2    1    1    2  501    0  0.30112176387E+02  0.13902892029E+02 -0.12003010004E+04  0.12007591454E+04  0.00000000000E+00 0. -1.
<scales pt_clust_3="40.65297" pt_clust_4="90.12486" pt_clust_5="14000.00000" pt_clust_6="33.16675"></scales>
<clustering>
<clus scale="   33.167">  2  6  1 -1</clus>
<clus scale="   40.653">  1  3  2 -1</clus>
<clus scale="   90.125">  2  4  1 -1</clus>
<clus scale="   40.653">  1  3  2 -1</clus>
</clustering>
</event>
<event>
 6    0  0.3584505E+002  0.9361096E+02  0.7546771E-02  0.1294336E+00
          1   -1    0    0  504    0 -0.00000000000E+00  0.00000000000E+00  0.82200578552E+03  0.82200578552E+03  0.00000000000E+00 0.  1.
         21   -1    0    0  503  502  0.00000000000E+00 -0.00000000000E+00 -0.72087352963E+02  0.72087352963E+02  0.00000000000E+00 0. -1.
         21    1    1    2  503  501  0.51301427172E+02 -0.92020260902E+02  0.48166228466E+02  0.11584278316E+03  0.00000000000E+00 0. -1.
         21    1    1    2  504  505 -0.72095141734E+02  0.48080864399E+02  0.73649610898E+02  0.11372662032E+03  0.00000000000E+00 0. -1.
         21    1    1    2  505  502  0.46393918474E+02  0.69549509578E+01  0.14254931473E+02  0.49030297628E+02  0.00000000000E+00 0. -1.
          1    1    1    2  501    0 -0.25600203912E+02  0.36984445545E+02  0.61384766172E+03  0.61549343737E+03  0.00000000000E+00 0.  1.
<scales pt_clust_3="93.61096" pt_clust_4="14000.00000" pt_clust_5="44.31572" pt_clust_6="44.98021"></scales>
<clustering>
<clus scale="   44.980">  1  6  2 -1</clus>
<clus scale="   44.316">  2  5  1 -1</clus>
<clus scale="   93.611">  1  3  2 -1</clus>
<clus scale="   44.316">  2  3  1 -1</clus>
</clustering>
</event>
<event>
 6    0  0.3584505E+002  0.1538601E+03  0.7546771E-02  0.1195808E+00
         -1   -1    0    0    0  501 -0.00000000000E+00  0.00000000000E+00  0.71790218833E+03  0.71790218833E+03  0.00000000000E+00 0.  1.
         21   -1    0    0  505  502  0.00000000000E+00 -0.00000000000E+00 -0.28107368800E+03  0.28107368800E+03  0.00000000000E+00 0.  1.
         21    1    1    2  503  502  0.24223608064E+02 -0.42506639431E+02 -0.78408126966E+02  0.92419867765E+02  0.00000000000E+00 0.  1.
         21    1    1    2  504  501 -0.20422535367E+02 -0.12188672699E+03  0.32512030422E+03  0.34781700129E+03  0.00000000000E+00 0.  1.
         21    1    1    2  505  504  0.15575075456E+02  0.19248183198E+03 -0.13258100805E+03  0.23424252883E+03  0.00000000000E+00 0.  1.
         -1    1    1    2    0  503 -0.19376148153E+02 -0.28088465560E+02  0.32269733112E+03  0.32449647845E+03  0.00000000000E+00 0.  1.
<scales pt_clust_3="49.19058" pt_clust_4="153.86011" pt_clust_5="14000.00000" pt_clust_6="34.12326"></scales>
<clustering>
<clus scale="   34.123">  1  6  2 -1</clus>
<clus scale="   49.191">  2  3  1 -1</clus>
<clus scale="  153.860">  1  4  2 -1</clus>
<clus scale="   49.191">  2  3  1 -1</clus>
</clustering>
</event>
<event>
 6    0  0.3584505E+002  0.6912635E+02  0.7546771E-02  0.1363089E+00
         21   -1    0    0  505  502  0.00000000000E+00  0.00000000000E+00  0.49248998159E+02  0.49248998159E+02  0.00000000000E+00 0. -1.
          2   -1    0    0  504    0 -0.00000000000E+00 -0.00000000000E+00 -0.10901806826E+04  0.10901806826E+04  0.00000000000E+00 0.  1.
         21    1    1    2  503  502  0.26900024323E+02 -0.42161969388E+02  0.10942226347E+02  0.51195461602E+02  0.00000000000E+00 0. -1.
         21    1    1    2  504  503  0.50852381116E+02  0.83065455818E+02 -0.18216140719E+03  0.20656382279E+03  0.00000000000E+00 0.  1.
         21    1    1    2  505  501 -0.11034902871E+02 -0.34952062606E+02 -0.68733138560E+02  0.77895186617E+02  0.00000000000E+00 0.  1.
          2    1    1    2  501    0 -0.66717502568E+02 -0.59514238237E+01 -0.80097936504E+03  0.80377520976E+03  0.00000000000E+00 0.  1.
<scales pt_clust_3="14000.00000" pt_clust_4="69.12635" pt_clust_5="36.65264" pt_clust_6="67.43190"></scales>
<clustering>
<clus scale="   36.653">  1  5  2 -1</clus>
<clus scale="   67.432">  2  6  1 -1</clus>
<clus scale="   69.126">  2  4  1 -1</clus>
<clus scale="   36.653">  1  3  2 -1</clus>
</clustering>
</event>
<event>
 6    0  0.3584505E+002  0.1256478E+03  0.7546771E-02  0.1234060E+00
         21   -1    0    0  503  502  0.00000000000E+00  0.00000000000E+00  0.84600218257E+02  0.84600218257E+02  0.00000000000E+00 0.  1.
          1   -1    0    0  504    0 -0.00000000000E+00 -0.00000000000E+00 -0.11289717029E+04  0.11289717029E+04  0.00000000000E+00 0.  1.
         21    1    1    2  503  505  0.13578218428E+02 -0.11972701630E+03 -0.12972860220E+02  0.12119084763E+03  0.00000000000E+00 0.  1.
         21    1    1    2  504  502  0.71854124857E+02 -0.42317953081E+02 -0.22780708375E+03  0.24258996645E+03  0.00000000000E+00 0.  1.
         21    1    1    2  505  501 -0.45547211586E+02  0.13920691522E+03 -0.21942289300E+03  0.26381720888E+03  0.00000000000E+00 0.  1.
          1    1    1    2  501    0 -0.39885131698E+02  0.22838054158E+02 -0.58416864771E+03  0.58597389824E+03  0.00000000000E+00 0.  1.
<scales pt_clust_3="14000.00000" pt_clust_4="63.51672" pt_clust_5="125.64784" pt_clust_6="45.96086"></scales>
<clustering>
<clus scale="   45.961">  2  6  1 -1</clus>
<clus scale="   63.517">  2  4  1 -1</clus>
<clus scale="  125.648">  2  5  1 -1</clus>
<clus scale="  125.648">  1  3  2 -1</clus>
</clustering>
</event>
<event>
 6    0  0.3584505E+002  0.9279599E+02  0.7546771E-02  0.1296219E+00
         -4   -1    0    0    0  501 -0.00000000000E+00  0.00000000000E+00  0.39057731401E+03  0.39057731401E+03  0.00000000000E+00 0. -1.
         21   -1    0    0  504  502  0.00000000000E+00 -0.00000000000E+00 -0.12016057853E+04  0.12016057853E+04  0.00000000000E+00 0.  1.
         21    1    1    2  503  501  0.11665349233E+03  0.18367222259E+01  0.12134115718E+02  0.11729726163E+03  0.00000000000E+00 0. -1.
         21    1    1    2  504  503 -0.92878788998E+02 -0.77778410202E+02 -0.95326725772E+03  0.96093413675E+03  0.00000000000E+00 0.  1.
         21    1    1    2  505  502  0.56502827033E+01  0.58570893710E+02 -0.18647221724E+03  0.19553609152E+03  0.00000000000E+00 0. -1.
         -4    1    1    2    0  505 -0.29424986036E+02  0.17370794266E+02  0.31657688798E+03  0.31841560939E+03  0.00000000000E+00 0. -1.
<scales pt_clust_3="14000.00000" pt_clust_4="92.79599" pt_clust_5="59.77065" pt_clust_6="34.16979"></scales>
<clustering>
<clus scale="   34.170">  1  6  2 -1</clus>
<clus scale="   59.771">  2  5  1 -1</clus>
<clus scale="   92.796">  2  4  1 -1</clus>
<clus scale="   59.771">  2  3  1 -1</clus>
</clustering>
</event>
<event>
 6    0  0.3584505E+002  0.1576837E+03  0.7546771E-02  0.1191337E+00
         21   -1    0    0  504  502  0.00000000000E+00  0.00000000000E+00  0.12166876048E+03  0.12166876048E+03  0.00000000000E+00 0.  1.
          2   -1    0    0  502    0 -0.00000000000E+00 -0.00000000000E+00 -0.10252039208E+04  0.10252039208E+04  0.00000000000E+00 0.  1.
         21    1    1    2  503  505 -0.74216556095E+02 -0.90250024391E+02  0.21847704242E+02  0.11887172196E+03  0.00000000000E+00 0.  1.
         21    1    1    2  504  503 -0.35571315002E+02 -0.16802295095E+02  0.35029562154E+02  0.52675476230E+02  0.00000000000E+00 0.  1.
         21    1    1    2  505  501  0.70394548715E+02  0.87400259573E+02 -0.48201232934E+03  0.49490411546E+03  0.00000000000E+00 0.  1.
          2    1    1    2  501    0  0.39393322382E+02  0.19652059913E+02 -0.47840009741E+03  0.48042136766E+03  0.00000000000E+00 0.  1.
<scales pt_clust_3="30.03748" pt_clust_4="30.03748" pt_clust_5="148.94397" pt_clust_6="44.02315"></scales>
<clustering>
<clus scale="   30.037">  3  4 -1 -1</clus>
<clus scale="   44.023">  2  6  1 -1</clus>
<clus scale="  148.944">  2  5  1 -1</clus>
<clus scale="  157.684">  1  3  2 -1</clus>
</clustering>
</event>
<event>
 6    0  0.1120242E+003  0.1315365E+03  0.7546771E-02  0.1225193E+00
          1   -1    0    0  505    0 -0.00000000000E+00  0.00000000000E+00  0.28121013096E+04  0.28121013096E+04  0.00000000000E+00 0.  1.
         21   -1    0    0  503  502  0.00000000000E+00 -0.00000000000E+00 -0.47916443177E+03  0.47916443177E+03  0.00000000000E+00 0. -1.
         21    1    1    2  503  504 -0.44919243242E+02  0.61555224154E+02 -0.34851924738E+03  0.35675264516E+03  0.00000000000E+00 0. -1.
         21    1    1    2  504  501 -0.92022905893E+01  0.99527651726E+02 -0.90389742431E+02  0.13476179409E+03  0.00000000000E+00 0.  1.
         21    1    1    2  505  502  0.69437638847E+01 -0.37767706818E+02  0.17427461022E+02  0.42170273094E+02  0.00000000000E+00 0. -1.
          1    1    1    2  501    0  0.47177769947E+02 -0.12331516906E+03  0.27544184066E+04  0.27575810290E+04  0.00000000000E+00 0.  1.
<scales pt_clust_3="51.61947" pt_clust_4="131.53652" pt_clust_5="38.40072" pt_clust_6="14000.00000"></scales>
<clustering>
<clus scale="   38.401">  2  5  1 -1</clus>
<clus scale="   51.619">  2  3  1 -1</clus>
<clus scale="  131.537">  2  4  1 -1</clus>
<clus scale="   38.401">  2  3  1 -1</clus>
</clustering>
</event>
<event>
 6    0  0.3584505E+002  0.8596765E+02  0.7546771E-02  0.1312921E+00
          2   -1    0    0  505    0 -0.00000000000E+00  0.00000000000E+00  0.25770958447E+04  0.25770958447E+04  0.00000000000E+00 0. -1.
         21   -1    0    0  504  502  0.00000000000E+00 -0.00000000000E+00 -0.19088895859E+03  0.19088895859E+03  0.00000000000E+00 0.  1.
         21    1    1    2  503  502 -0.10799939581E+02  0.31917971410E+02 -0.14717819855E+03  0.15098615076E+03  0.00000000000E+00 0.  1.
         21    1    1    2  504  501 -0.74017287055E+02 -0.20254594625E+02  0.99019617268E+00  0.76744953416E+02  0.00000000000E+00 0.  1.
         21    1    1    2  505  503  0.11199220827E+03 -0.33999108985E+02  0.91228620768E+03  0.91976318628E+03  0.00000000000E+00 0. -1.
          2    1    1    2  501    0 -0.27174981639E+02  0.22335732201E+02  0.16201086808E+04  0.16204905128E+04  0.00000000000E+00 0. -1.
<scales pt_clust_3="33.69563" pt_clust_4="14000.00000" pt_clust_5="85.96765" pt_clust_6="35.30694"></scales>
<clustering>
<clus scale="   33.696">  2  3  1 -1</clus>
<clus scale="   35.307">  1  6  2 -1</clus>
<clus scale="   85.968">  1  5  2 -1</clus>
<clus scale="   33.696">  2  3  1 -1</clus>
</clustering>
</event>
<event>
 6    0  0.3584505E+002  0.6005886E+02  0.7546771E-02  0.1397585E+00
         21   -1    0    0  505  502  0.00000000000E+00  0.00000000000E+00  0.10629932761E+04  0.10629932761E+04  0.00000000000E+00 0.  1.
          2   -1    0    0  504    0 -0.00000000000E+00 -0.00000000000E+00 -0.11865897720E+04  0.11865897720E+04  0.00000000000E+00 0. -1.
         21    1    1    2  503  502  0.41257323578E+02 -0.54135116983E+02  0.99618445343E+03  0.99850700693E+03  0.00000000000E+00 0.  1.
         21    1    1    2  504  503  0.55215921527E+01  0.90369750761E+02 -0.15809513363E+02  0.91908218051E+02  0.00000000000E+00 0.  1.
         21    1    1    2  505  501 -0.27878858279E+02  0.20171862501E+02  0.15766154029E+02  0.37851108155E+02  0.00000000000E+00 0.  1.
          2    1    1    2  501    0 -0.18900057451E+02 -0.56406496280E+02 -0.11197375900E+04  0.11213167150E+04  0.00000000000E+00 0. -1.
<scales pt_clust_3="37.59613" pt_clust_4="60.05886" pt_clust_5="34.41126" pt_clust_6="14000.00000"></scales>
<clustering>
<clus scale="   34.411">  1  5  2 -1</clus>
<clus scale="   37.596">  1  3  2 -1</clus>
<clus scale="   60.059">  1  4  2 -1</clus>
<clus scale="   34.411">  1  3  2 -1</clus>
</clustering>
</event>
<event>
 6    0  0.3584505E+002  0.6840697E+02  0.7546771E-02  0.1365596E+00
         21   -1    0    0  504  502  0.00000000000E+00  0.00000000000E+00  0.11911258099E+03  0.11911258099E+03  0.00000000000E+00 0. -1.
          2   -1    0    0  503    0 -0.00000000000E+00 -0.00000000000E+00 -0.13588370554E+04  0.13588370554E+04  0.00000000000E+00 0.  1.
         21    1    1    2  503  502 -0.83792570857E+01 -0.57762245327E+02  0.85831102815E+02  0.10379627713E+03  0.00000000000E+00 0. -1.
         21    1    1    2  504  505 -0.20817307066E+02  0.49839791764E+02 -0.20660733185E+02  0.57829326576E+02  0.00000000000E+00 0. -1.
         21    1    1    2  505  501  0.73602364408E+02  0.52685066581E+02 -0.44452436677E+03  0.45364626851E+03  0.00000000000E+00 0. -1.
          2    1    1    2  501    0 -0.44405800257E+02 -0.44762613018E+02 -0.86037047726E+03  0.86267776416E+03  0.00000000000E+00 0.  1.
<scales pt_clust_3="30.00704" pt_clust_4="54.01264" pt_clust_5="14000.00000" pt_clust_6="68.40697"></scales>
<clustering>
<clus scale="   54.013">  1  4  2 -1</clus>
<clus scale="   30.007">  1  3  2 -1</clus>
<clus scale="   68.407">  2  6  1 -1</clus>
<clus scale="   54.013">  1  3  2 -1</clus>
</clustering>
</event>
<event>
 6    0  0.3584505E+002  0.7979502E+02  0.7546771E-02  0.1329634E+00
          2   -1    0    0  504    0 -0.00000000000E+00  0.00000000000E+00  0.98503678600E+03  0.98503678600E+03  0.00000000000E+00 0. -1.
         21   -1    0    0  505  502  0.00000000000E+00 -0.00000000000E+00 -0.85026689657E+02  0.85026689657E+02  0.00000000000E+00 0.  1.
         21    1    1    2  503  502 -0.69290975310E+01  0.29669788236E+02  0.75984403961E+01  0.31401353841E+02  0.00000000000E+00 0. -1.
         21    1    1    2  504  503 -0.12853870293E+02  0.10861392254E+03  0.27930149396E+03  0.29995254738E+03  0.00000000000E+00 0. -1.
         21    1    1    2  505  501  0.49730530216E+02 -0.87721540382E+02 -0.20064017537E+02  0.10281419689E+03  0.00000000000E+00 0.  1.
          2    1    1    2  501    0 -0.29947562392E+02 -0.50562170395E+02  0.63317417953E+03  0.63589537755E+03  0.00000000000E+00 0. -1.
<scales pt_clust_3="30.46816" pt_clust_4="79.79502" pt_clust_5="14000.00000" pt_clust_6="58.35758"></scales>
<clustering>
<clus scale="   30.468">  2  3  1 -1</clus>
<clus scale="   58.358">  1  6  2 -1</clus>
<clus scale="   79.795">  1  4  2 -1</clus>
<clus scale="   30.468">  2  3  1 -1</clus>
</clustering>
</event>
<event>
 6    0  0.3584505E+002  0.7882250E+02  0.7546771E-02  0.1332427E+00
         21   -1    0    0  505  502  0.00000000000E+00  0.00000000000E+00  0.68439905924E+02  0.68439905924E+02  0.00000000000E+00 0.  1.
         -3   -1    0    0    0  501 -0.00000000000E+00 -0.00000000000E+00 -0.71437190358E+03  0.71437190358E+03  0.00000000000E+00 0. -1.
         21    1    1    2  503  501 -0.51705917250E+02 -0.85430897938E+02 -0.30922080625E+02  0.10453762610E+03  0.00000000000E+00 0.  1.
         21    1    1    2  504  502  0.63148865242E+02  0.15484060662E+02 -0.33002151219E+02  0.72915549103E+02  0.00000000000E+00 0.  1.
         21    1    1    2  505  503 -0.63688269973E+02  0.13160943923E+02 -0.11583357529E+03  0.13284134651E+03  0.00000000000E+00 0.  1.
         -3    1    1    2    0  504  0.52245321981E+02  0.56785893354E+02 -0.46617419051E+03  0.47251728778E+03  0.00000000000E+00 0. -1.
<scales pt_clust_3="78.82250" pt_clust_4="65.01950" pt_clust_5="54.95545" pt_clust_6="14000.00000"></scales>
<clustering>
<clus scale="   65.019">  1  4  2 -1</clus>
<clus scale="   54.955">  1  5  2 -1</clus>
<clus scale="   78.822">  1  3  2 -1</clus>
<clus scale="   65.019">  1  3  2 -1</clus>
</clustering>
</event>
<event>
 6    0  0.3584505E+002  0.9317449E+02  0.7546771E-02  0.1295341E+00
          1   -1    0    0  504    0 -0.00000000000E+00  0.00000000000E+00  0.24552938583E+03  0.24552938583E+03  0.00000000000E+00 0.  1.
         21   -1    0    0  505  502  0.00000000000E+00 -0.00000000000E+00 -0.23620770075E+03  0.23620770075E+03  0.00000000000E+00 0.  1.
         21    1    1    2  503  502 -0.12654415049E+03 -0.30070493512E+02 -0.30186803842E+01  0.13010291709E+03  0.00000000000E+00 0.  1.
         21    1    1    2  504  503 -0.13429557126E+02 -0.44686660467E+02  0.22840121972E+02  0.51951148206E+02  0.00000000000E+00 0.  1.
         21    1    1    2  505  501  0.56025888842E+02  0.20744816639E+02 -0.13053935587E+03  0.14356103604E+03  0.00000000000E+00 0.  1.
          1    1    1    2  501    0  0.83947818777E+02  0.54012337340E+02  0.12003959937E+03  0.15612198525E+03  0.00000000000E+00 0.  1.
<scales pt_clust_3="14000.00000" pt_clust_4="46.66102" pt_clust_5="58.87535" pt_clust_6="93.17449"></scales>
<clustering>
<clus scale="   46.661">  1  4  2 -1</clus>
<clus scale="   58.875">  2  5  1 -1</clus>
<clus scale="   93.174">  1  6  2 -1</clus>
<clus scale="   58.875">  2  3  1 -1</clus>
</clustering>
</event>
<event>
 6    0  0.3584505E+002  0.7312485E+02  0.7546771E-02  0.1349778E+00
          3   -1    0    0  505    0 -0.00000000000E+00  0.00000000000E+00  0.99014959595E+03  0.99014959595E+03  0.00000000000E+00 0. -1.
         21   -1    0    0  504  502  0.00000000000E+00 -0.00000000000E+00 -0.58237768480E+02  0.58237768480E+02  0.00000000000E+00 0.  1.
         21    1    1    2  503  501  0.43756533197E+02 -0.69102995498E+02  0.51923506768E+02  0.96880899765E+02  0.00000000000E+00 0.  1.
         21    1    1    2  504  503  0.62889485588E+02  0.17663344991E+02  0.28986117060E+02  0.71465209270E+02  0.00000000000E+00 0.  1.
         21    1    1    2  505  502 -0.55504386172E+02  0.39081126421E+02  0.70865957340E+02  0.98132844840E+02  0.00000000000E+00 0.  1.
          3    1    1    2  501    0 -0.51141632613E+02  0.12358524086E+02  0.78013624630E+03  0.78190841056E+03  0.00000000000E+00 0. -1.
<scales pt_clust_3="14000.00000" pt_clust_4="54.65086" pt_clust_5="73.12485" pt_clust_6="52.61368"></scales>
<clustering>
<clus scale="   52.614">  1  6  2 -1</clus>
<clus scale="   54.651">  2  4  1 -1</clus>
<clus scale="   73.125">  2  5  1 -1</clus>
<clus scale="   54.651">  2  3  1 -1</clus>
</clustering>
</event>
<event>
 6    0  0.3584505E+002  0.1414985E+03  0.7546771E-02  0.1211327E+00
          1   -1    0    0  505    0 -0.00000000000E+00  0.00000000000E+00  0.45536538954E+03  0.45536538954E+03  0.00000000000E+00 0. -1.
         21   -1    0    0  504  502  0.00000000000E+00 -0.00000000000E+00 -0.21034931309E+03  0.21034931309E+03  0.00000000000E+00 0. -1.
         21    1    1    2  503  501  0.10458006234E+03 -0.15997554330E+02  0.17019869631E+02  0.10715683434E+03  0.00000000000E+00 0. -1.
         21    1    1    2  504  503  0.16566768504E+02  0.41091738502E+02 -0.45783715713E+02  0.63711360182E+02  0.00000000000E+00 0. -1.
         21    1    1    2  505  502 -0.18782652341E+03 -0.32954583726E+02 -0.21615527225E+02  0.19191674889E+03  0.00000000000E+00 0. -1.
          1    1    1    2  501    0  0.66679692567E+02  0.78603995536E+01  0.29539544976E+03  0.30292975921E+03  0.00000000000E+00 0. -1.
<scales pt_clust_3="141.49849" pt_clust_4="44.30563" pt_clust_5="14000.00000" pt_clust_6="67.66274"></scales>
<clustering>
<clus scale="   44.306">  2  4  1 -1</clus>
<clus scale="   67.663">  1  6  2 -1</clus>
<clus scale="  141.498">  2  3  1 -1</clus>
<clus scale="   44.306">  2  3  1 -1</clus>
</clustering>
</event>
<event>
 6    0  0.3584505E+002  0.8193352E+02  0.7546771E-02  0.1323652E+00
         -1   -1    0    0    0  501 -0.00000000000E+00  0.00000000000E+00  0.17673372106E+03  0.17673372106E+03  0.00000000000E+00 0. -1.
         21   -1    0    0  504  502  0.00000000000E+00 -0.00000000000E+00 -0.38872148937E+03  0.38872148937E+03  0.00000000000E+00 0.  1.
         21    1    1    2  503  501  0.62945089969E+02  0.28153086744E+02 -0.36910949718E+02  0.78211884349E+02  0.00000000000E+00 0.  1.
         21    1    1    2  504  503  0.68878341232E+02 -0.43744302913E+02 -0.24977176655E+03  0.26276172722E+03  0.00000000000E+00 0.  1.
         21    1    1    2  505  502 -0.11290370648E+03 -0.29870389622E+02 -0.19297489752E+02  0.11837178813E+03  0.00000000000E+00 0.  1.
         -1    1    1    2    0  505 -0.18919724720E+02  0.45461605791E+02  0.93992437715E+02  0.10610981073E+03  0.00000000000E+00 0. -1.
<scales pt_clust_3="70.55812" pt_clust_4="81.93352" pt_clust_5="14000.00000" pt_clust_6="49.24138"></scales>
<clustering>
<clus scale="   49.241">  1  6  2 -1</clus>
<clus scale="   70.558">  1  3  2 -1</clus>
<clus scale="   81.934">  2  4  1 -1</clus>
<clus scale="   81.934">  2  3  1 -1</clus>
</clustering>
</event>
<event>
 6    0  0.3584505E+002  0.8667269E+02  0.7546771E-02  0.1311115E+00
         21   -1    0    0  505  502  0.00000000000E+00  0.00000000000E+00  0.10035853914E+04  0.10035853914E+04  0.00000000000E+00 0. -1.
          2   -1    0    0  504    0 -0.00000000000E+00 -0.00000000000E+00 -0.14661529981E+03  0.14661529981E+03  0.00000000000E+00 0. -1.
         21    1    1    2  503  502  0.32866122565E+02 -0.93003394223E+02  0.18882499571E+03  0.21303683332E+03  0.00000000000E+00 0.  1.
         21    1    1    2  504  503  0.48813694403E+01  0.10295062950E+03  0.88172601278E+02  0.13563578989E+03  0.00000000000E+00 0.  1.
         21    1    1    2  505  501 -0.33911024362E+02  0.23822476188E+02  0.68750472980E+03  0.68875265622E+03  0.00000000000E+00 0. -1.
          2    1    1    2  501    0 -0.38364676436E+01 -0.33769711469E+02 -0.10753223519E+03  0.11277541178E+03  0.00000000000E+00 0. -1.
<scales pt_clust_3="14000.00000" pt_clust_4="86.67269" pt_clust_5="41.16704" pt_clust_6="33.98694"></scales>
<clustering>
<clus scale="   33.987">  2  6  1 -1</clus>
<clus scale="   41.167">  1  5  2 -1</clus>
<clus scale="   86.673">  2  4  1 -1</clus>
<clus scale="   41.167">  1  3  2 -1</clus>
</clustering>
</event>
<event>
 6    0  0.3584505E+002  0.8249271E+02  0.7546771E-02  0.1322123E+00
          1   -1    0    0  505    0 -0.00000000000E+00  0.00000000000E+00  0.19425137315E+03  0.19425137315E+03  0.00000000000E+00 0. -1.
         21   -1    0    0  504  502  0.00000000000E+00 -0.00000000000E+00 -0.13696863938E+04  0.13696863938E+04  0.00000000000E+00 0.  1.
         21    1    1    2  503  501 -0.60056742057E+02 -0.43449333156E+02 -0.26344186121E+03  0.27367183095E+03  0.00000000000E+00 0.  1.
         21    1    1    2  504  503 -0.62128031684E+02 -0.69269675864E+01 -0.90133987254E+03  0.90350508633E+03  0.00000000000E+00 0.  1.
         21    1    1    2  505  502  0.75084914438E+02  0.50140778276E+02 -0.18516501559E+03  0.20600467233E+03  0.00000000000E+00 0.  1.
          1    1    1    2  501    0  0.47099859303E+02  0.23552246648E+00  0.17451172866E+03  0.18075617736E+03  0.00000000000E+00 0. -1.
<scales pt_clust_3="14000.00000" pt_clust_4="59.46258" pt_clust_5="82.49271" pt_clust_6="47.10045"></scales>
<clustering>
<clus scale="   47.100">  1  6  2 -1</clus>
<clus scale="   59.463">  2  4  1 -1</clus>
<clus scale="   82.493">  2  5  1 -1</clus>
<clus scale="   59.463">  2  3  1 -1</clus>
</clustering>
</event>
<event>
 6    0  0.3584505E+002  0.8613386E+02  0.7546771E-02  0.1312494E+00
          1   -1    0    0  504    0 -0.00000000000E+00  0.00000000000E+00  0.90520715909E+02  0.90520715909E+02  0.00000000000E+00 0.  1.
         21   -1    0    0  503  502  0.00000000000E+00 -0.00000000000E+00 -0.93463203320E+03  0.93463203320E+03  0.00000000000E+00 0. -1.
         21    1    1    2  503  501 -0.52531258600E+02 -0.29906758926E+02 -0.66004512788E+03  0.66280730096E+03  0.00000000000E+00 0. -1.
         21    1    1    2  504  505 -0.11631281869E+01  0.65213646305E+02  0.54956767579E+02  0.85290203624E+02  0.00000000000E+00 0.  1.
         21    1    1    2  505  502  0.81052250451E+02 -0.58749706998E+02 -0.20172808317E+03  0.22520038836E+03  0.00000000000E+00 0.  1.
          1    1    1    2  501    0 -0.27357863664E+02  0.23442819619E+02 -0.37294873820E+02  0.51854856178E+02  0.00000000000E+00 0.  1.
<scales pt_clust_3="60.65253" pt_clust_4="14000.00000" pt_clust_5="86.13386" pt_clust_6="36.02802"></scales>
<clustering>
<clus scale="   36.028">  1  6  2 -1</clus>
<clus scale="   60.653">  2  3  1 -1</clus>
<clus scale="   86.134">  2  5  1 -1</clus>
<clus scale="   60.653">  2  3  1 -1</clus>
</clustering>
</event>
<event>
 6    0  0.3584505E+002  0.1268095E+03  0.7546771E-02  0.1232268E+00
         21   -1    0    0  501  502  0.00000000000E+00  0.00000000000E+00  0.24078574882E+03  0.24078574882E+03  0.00000000000E+00 0. -1.
          1   -1    0    0  505    0 -0.00000000000E+00 -0.00000000000E+00 -0.73205151453E+03  0.73205151453E+03  0.00000000000E+00 0. -1.
         21    1    1    2  503  502  0.21259342750E+02  0.74780254882E+02  0.90264197375E+02  0.11912880215E+03  0.00000000000E+00 0. -1.
         21    1    1    2  504  503  0.32506516951E+02  0.22055364204E+02  0.10158866564E+03  0.10891909713E+03  0.00000000000E+00 0. -1.
         21    1    1    2  505  504 -0.61139125788E+02 -0.16496792213E+03 -0.24660894620E+03  0.30293296351E+03  0.00000000000E+00 0. -1.
          1    1    1    2  501    0  0.73732660864E+01  0.68132303049E+02 -0.43650968252E+03  0.44185640055E+03  0.00000000000E+00 0. -1.
<scales pt_clust_3="38.47975" pt_clust_4="38.47975" pt_clust_5="114.67441" pt_clust_6="68.53011"></scales>
<clustering>
<clus scale="   38.480">  3  4 -1 -1</clus>
<clus scale="   68.530">  2  6  1 -1</clus>
<clus scale="  114.674">  2  5  1 -1</clus>
<clus scale="  126.809">  1  3  2 -1</clus>
</clustering>
</event>
<event>
 6    0  0.3584505E+002  0.1489189E+03  0.7546771E-02  0.1201808E+00
          2   -1    0    0  505    0 -0.00000000000E+00  0.00000000000E+00  0.39248968525E+03  0.39248968525E+03  0.00000000000E+00 0. -1.
         21   -1    0    0  501  502  0.00000000000E+00 -0.00000000000E+00 -0.77072499980E+03  0.77072499980E+03  0.00000000000E+00 0.  1.
         21    1    1    2  503  504 -0.13228426842E+03 -0.28739242712E+02 -0.34796289464E+03  0.37336744339E+03  0.00000000000E+00 0.  1.
         21    1    1    2  504  502 -0.79071244284E+01 -0.12726256013E+03 -0.30961058428E+03  0.33483876079E+03  0.00000000000E+00 0.  1.
         21    1    1    2  505  503  0.10080335858E+03  0.62394751116E+02 -0.35857863963E+02  0.12385559525E+03  0.00000000000E+00 0. -1.
          2    1    1    2  501    0  0.39388034276E+02  0.93607051724E+02  0.31519602833E+03  0.33115288562E+03  0.00000000000E+00 0. -1.
<scales pt_clust_3="14000.00000" pt_clust_4="110.23029" pt_clust_5="148.91886" pt_clust_6="101.55638"></scales>
<clustering>
<clus scale="  101.556">  1  6  2 -1</clus>
<clus scale="  110.230">  2  4  1 -1</clus>
<clus scale="  148.919">  1  5  2 -1</clus>
<clus scale="  110.230">  2  3  1 -1</clus>
</clustering>
</event>
<event>
 6    0  0.3584505E+002  0.7810671E+02  0.7546771E-02  0.1334512E+00
          2   -1    0    0  505    0 -0.00000000000E+00  0.00000000000E+00  0.69304996680E+03  0.69304996680E+03  0.00000000000E+00 0. -1.
         21   -1    0    0  504  502  0.00000000000E+00 -0.00000000000E+00 -0.51299926988E+03  0.51299926988E+03  0.00000000000E+00 0. -1.
         21    1    1    2  503  502  0.28776919929E+02 -0.18437160314E+02 -0.65190824094E+02  0.73606273830E+02  0.00000000000E+00 0.  1.
         21    1    1    2  504  501 -0.10400070575E+03 -0.30738210969E+01 -0.43258814955E+03  0.44492482770E+03  0.00000000000E+00 0. -1.
         21    1    1    2  505  503  0.44023972087E+02  0.53566804515E+02  0.45377259203E+03  0.45903929891E+03  0.00000000000E+00 0. -1.
          2    1    1    2  501    0  0.31199813732E+02 -0.32055823104E+02  0.22405707853E+03  0.22847883624E+03  0.00000000000E+00 0. -1.
<scales pt_clust_3="34.17660" pt_clust_4="78.10671" pt_clust_5="14000.00000" pt_clust_6="44.89848"></scales>
<clustering>
<clus scale="   34.177">  2  3  1 -1</clus>
<clus scale="   44.898">  1  6  2 -1</clus>
<clus scale="   78.107">  2  4  1 -1</clus>
<clus scale="   34.177">  2  3  1 -1</clus>
</clustering>
</event>
<event>
 6    0  0.3584505E+002  0.2444028E+03  0.7546771E-02  0.1116894E+00
         21   -1    0    0  504  502  0.00000000000E+00  0.00000000000E+00  0.15643196997E+03  0.15643196997E+03  0.00000000000E+00 0. -1.
          1   -1    0    0  503    0 -0.00000000000E+00 -0.00000000000E+00 -0.15890581738E+04  0.15890581738E+04  0.00000000000E+00 0. -1.
         21    1    1    2  503  502  0.88760278008E+02 -0.84994792127E+02 -0.10575375582E+03  0.16213068343E+03  0.00000000000E+00 0. -1.
         21    1    1    2  504  505 -0.39872253297E+02 -0.76136428278E+02  0.48895524218E+02  0.98880354886E+02  0.00000000000E+00 0. -1.
         21    1    1    2  505  501 -0.25190088787E+01 -0.81123552919E+02  0.55121929934E+01  0.81349619025E+02  0.00000000000E+00 0. -1.
          1    1    1    2  501    0 -0.46369015833E+02  0.24225477332E+03 -0.13812801652E+04  0.14031294864E+04  0.00000000000E+00 0. -1.
<scales pt_clust_3="122.89224" pt_clust_4="53.18149" pt_clust_5="53.18149" pt_clust_6="238.19694"></scales>
<clustering>
<clus scale="   53.181">  4  5 -1 -1</clus>
<clus scale="  122.892">  1  3  2 -1</clus>
<clus scale="  238.197">  2  6  1 -1</clus>
<clus scale="  122.892">  1  3  2 -1</clus>
</clustering>
</event>
<event>
 6    0  0.3584505E+002  0.8873145E+02  0.7546771E-02  0.1305953E+00
          1   -1    0    0  503    0 -0.00000000000E+00  0.00000000000E+00  0.22461284519E+04  0.22461284519E+04  0.00000000000E+00 0. -1.
         21   -1    0    0  504  502  0.00000000000E+00 -0.00000000000E+00 -0.61857265335E+02  0.61857265335E+02  0.00000000000E+00 0. -1.
         21    1    1    2  503  505  0.96932582182E+02 -0.52926041629E+02  0.16846051612E+04  0.16882214429E+04  0.00000000000E+00 0. -1.
         21    1    1    2  504  501 -0.90262393653E+02  0.37821570968E+01  0.25016194956E+02  0.93741209884E+02  0.00000000000E+00 0. -1.
         21    1    1    2  505  502  0.36949655226E+02  0.88947006827E+00 -0.89822971249E+01  0.38036164896E+02  0.00000000000E+00 0. -1.
          1    1    1    2  501    0 -0.43619843755E+02  0.48254414464E+02  0.48363212759E+03  0.48798689954E+03  0.00000000000E+00 0. -1.
<scales pt_clust_3="14000.00000" pt_clust_4="57.33608" pt_clust_5="36.96036" pt_clust_6="88.73145"></scales>
<clustering>
<clus scale="   36.960">  2  5  1 -1</clus>
<clus scale="   57.336">  2  4  1 -1</clus>
<clus scale="   88.731">  2  6  1 -1</clus>
<clus scale="   36.960">  2  3  1 -1</clus>
</clustering>
</event>
<event>
 6    0  0.3584505E+002  0.2468264E+03  0.7546771E-02  0.1115327E+00
         21   -1    0    0  504  502  0.00000000000E+00  0.00000000000E+00  0.14940154736E+04  0.14940154736E+04  0.00000000000E+00 0. -1.
          2   -1    0    0  505    0 -0.00000000000E+00 -0.00000000000E+00 -0.21231051569E+03  0.21231051569E+03  0.00000000000E+00 0. -1.
         21    1    1    2  503  502 -0.32298992984E+02  0.34774026699E+02  0.57395627158E+03  0.57591514963E+03  0.00000000000E+00 0. -1.
         21    1    1    2  504  501  0.11049036497E+03 -0.20568980650E+03  0.24036014462E+03  0.33509613004E+03  0.00000000000E+00 0. -1.
         21    1    1    2  505  503  0.42370234040E+02  0.26421039843E+03  0.55738500802E+03  0.61828829726E+03  0.00000000000E+00 0. -1.
          2    1    1    2  501    0 -0.12056160603E+03 -0.93294618628E+02 -0.89996466334E+02  0.17702641234E+03  0.00000000000E+00 0. -1.
<scales pt_clust_3="47.46007" pt_clust_4="246.82639" pt_clust_5="14000.00000" pt_clust_6="152.66161"></scales>
<clustering>
<clus scale="   47.460">  1  3  2 -1</clus>
<clus scale="  152.662">  2  6  1 -1</clus>
<clus scale="  246.826">  2  4  1 -1</clus>
<clus scale="   47.460">  1  3  2 -1</clus>
</clustering>
</event>
<event>
 6    0  0.3584505E+002  0.8147248E+02  0.7546771E-02  0.1324924E+00
         -3   -1    0    0    0  501 -0.00000000000E+00  0.00000000000E+00  0.13511406179E+04  0.13511406179E+04  0.00000000000E+00 0.  1.
         21   -1    0    0  503  502  0.00000000000E+00 -0.00000000000E+00 -0.10541900157E+04  0.10541900157E+04  0.00000000000E+00 0. -1.
         21    1    1    2  503  505  0.50387777120E+02 -0.63647205238E+02 -0.10312308648E+04  0.10344210899E+04  0.00000000000E+00 0. -1.
         21    1    1    2  504  502 -0.86845557065E+02  0.93135051229E+02  0.22992169076E+03  0.26283126228E+03  0.00000000000E+00 0.  1.
         21    1    1    2  505  501  0.46330281077E+02 -0.97468100107E+00  0.11006018340E+03  0.11941812642E+03  0.00000000000E+00 0.  1.
         -3    1    1    2    0  504 -0.98725011316E+01 -0.28513164990E+02  0.98819959283E+03  0.98866015502E+03  0.00000000000E+00 0.  1.
<scales pt_clust_3="81.47248" pt_clust_4="14000.00000" pt_clust_5="44.34811" pt_clust_6="30.17394"></scales>
<clustering>
<clus scale="   30.174">  1  6  2 -1</clus>
<clus scale="   44.348">  1  5  2 -1</clus>
<clus scale="   81.472">  2  3  1 -1</clus>
<clus scale="   81.472">  2  3  1 -1</clus>
</clustering>
</event>
<event>
 6    0  0.3584505E+002  0.7359173E+02  0.7546771E-02  0.1348288E+00
          2   -1    0    0  504    0 -0.00000000000E+00  0.00000000000E+00  0.15523799456E+04  0.15523799456E+04  0.00000000000E+00 0. -1.
         21   -1    0    0  503  502  0.00000000000E+00 -0.00000000000E+00 -0.18038009714E+03  0.18038009714E+03  0.00000000000E+00 0. -1.
         21    1    1    2  503  505  0.10569450132E+03 -0.51261745845E+02  0.18308485198E+03  0.21752966975E+03  0.00000000000E+00 0. -1.
         21    1    1    2  504  502 -0.71122079184E+02 -0.15179363048E+02 -0.14754770768E+03  0.16449647185E+03  0.00000000000E+00 0. -1.
         21    1    1    2  505  501 -0.29371515605E+02  0.27496756577E+02  0.52372207632E+02  0.66042453645E+02  0.00000000000E+00 0. -1.
          2    1    1    2  501    0 -0.52009065357E+01  0.38944352317E+02  0.12840904965E+04  0.12846914475E+04  0.00000000000E+00 0. -1.
<scales pt_clust_3="73.59173" pt_clust_4="14000.00000" pt_clust_5="47.27339" pt_clust_6="39.29010"></scales>
<clustering>
<clus scale="   39.290">  1  6  2 -1</clus>
<clus scale="   47.273">  1  5  2 -1</clus>
<clus scale="   73.592">  1  3  2 -1</clus>
<clus scale="   73.592">  2  3  1 -1</clus>
</clustering>
</event>
<event>
 6    0  0.3584505E+002  0.7437283E+02  0.7546771E-02  0.1345824E+00
         21   -1    0    0  504  502  0.00000000000E+00  0.00000000000E+00  0.56214431597E+03  0.56214431597E+03  0.00000000000E+00 0. -1.
          1   -1    0    0  503    0 -0.00000000000E+00 -0.00000000000E+00 -0.52427747270E+02  0.52427747270E+02  0.00000000000E+00 0.  1.
         21    1    1    2  503  502 -0.26545870049E+02  0.16429190062E+02  0.69273919246E+01  0.31977965252E+02  0.00000000000E+00 0. -1.
         21    1    1    2  504  505  0.53807903533E+02  0.21561903703E+02  0.27465864464E+03  0.28070906157E+03  0.00000000000E+00 0. -1.
         21    1    1    2  505  501 -0.10299094633E+03 -0.40258726402E+02  0.18266101531E+03  0.21352504910E+03  0.00000000000E+00 0. -1.
          1    1    1    2  501    0  0.75728912850E+02  0.22676326369E+01  0.45469516834E+02  0.88359987326E+02  0.00000000000E+00 0.  1.
<scales pt_clust_3="31.21861" pt_clust_4="56.59450" pt_clust_5="74.37283" pt_clust_6="14000.00000"></scales>
<clustering>
<clus scale="   31.219">  2  3  1 -1</clus>
<clus scale="   56.594">  1  4  2 -1</clus>
<clus scale="   74.373">  1  5  2 -1</clus>
<clus scale="   56.594">  1  3  2 -1</clus>
</clustering>
</event>
<event>
 6    0  0.3584505E+002  0.1290154E+03  0.7546771E-02  0.1228924E+00
          1   -1    0    0  504    0 -0.00000000000E+00  0.00000000000E+00  0.10828894283E+04  0.10828894283E+04  0.00000000000E+00 0. -1.
         21   -1    0    0  503  502  0.00000000000E+00 -0.00000000000E+00 -0.17506700260E+04  0.17506700260E+04  0.00000000000E+00 0. -1.
         21    1    1    2  503  501 -0.17218413161E+02  0.12866756005E+03 -0.16666453784E+04  0.16716933427E+04  0.00000000000E+00 0. -1.
         21    1    1    2  504  505 -0.39656837796E+02 -0.52140335595E+02  0.89190832613E+02  0.11066292967E+03  0.00000000000E+00 0.  1.
         21    1    1    2  505  502  0.10431038937E+03 -0.92847436415E+02 -0.49992244247E+00  0.13964796347E+03  0.00000000000E+00 0.  1.
          1    1    1    2  501    0 -0.47435138408E+02  0.16320211963E+02  0.91017387055E+03  0.91155521847E+03  0.00000000000E+00 0. -1.
<scales pt_clust_3="14000.00000" pt_clust_4="79.60679" pt_clust_5="129.01544" pt_clust_6="50.16415"></scales>
<clustering>
<clus scale="   50.164">  1  6  2 -1</clus>
<clus scale="   79.607">  1  4  2 -1</clus>
<clus scale="  129.015">  1  5  2 -1</clus>
<clus scale="  129.015">  2  3  1 -1</clus>
</clustering>
</event>
<event>
 6    0  0.3584505E+002  0.1055969E+03  0.7546771E-02  0.1268948E+00
         21   -1    0    0  503  502  0.00000000000E+00  0.00000000000E+00  0.19677534002E+03  0.19677534002E+03  0.00000000000E+00 0. -1.
          1   -1    0    0  504    0 -0.00000000000E+00 -0.00000000000E+00 -0.85378457152E+03  0.85378457152E+03  0.00000000000E+00 0.  1.
         21    1    1    2  503  505 -0.80710927350E+02 -0.47477034265E+02 -0.25325380127E+02  0.97003595062E+02  0.00000000000E+00 0. -1.
         21    1    1    2  504  502  0.43552045505E+02  0.10665930793E+03  0.13138722386E+03  0.17474435965E+03  0.00000000000E+00 0. -1.
         21    1    1    2  505  501  0.84307795535E+02 -0.38144300774E+02 -0.33181647425E+03  0.34447781446E+03  0.00000000000E+00 0.  1.
          1    1    1    2  501    0 -0.47148913689E+02 -0.21037972886E+02 -0.43125460098E+03  0.43433414238E+03  0.00000000000E+00 0.  1.
<scales pt_clust_3="14000.00000" pt_clust_4="105.59695" pt_clust_5="72.01425" pt_clust_6="51.62961"></scales>
<clustering>
<clus scale="   51.630">  2  6  1 -1</clus>
<clus scale="   72.014">  2  5  1 -1</clus>
<clus scale="  105.597">  1  4  2 -1</clus>
<clus scale="  105.597">  1  3  2 -1</clus>
</clustering>
</event>
<event>
 6    0  0.3584505E+002  0.1311315E+03  0.7546771E-02  0.1225786E+00
          3   -1    0    0  503    0 -0.00000000000E+00  0.00000000000E+00  0.95960010416E+03  0.95960010416E+03  0.00000000000E+00 0. -1.
         21   -1    0    0  504  502  0.00000000000E+00 -0.00000000000E+00 -0.15170402786E+04  0.15170402786E+04  0.00000000000E+00 0.  1.
         21    1    1    2  503  505 -0.98869029577E+02 -0.30931570016E+01  0.37037667492E+03  0.38335823188E+03  0.00000000000E+00 0. -1.
         21    1    1    2  504  501  0.94852002859E+01  0.57246602538E+02 -0.12446592819E+04  0.12460111840E+04  0.00000000000E+00 0.  1.
         21    1    1    2  505  502 -0.54355449431E+02  0.69065315203E+02 -0.24187498555E+03  0.25734809360E+03  0.00000000000E+00 0. -1.
          3    1    1    2  501    0  0.14373927872E+03 -0.12321876074E+03  0.55871741807E+03  0.58992287335E+03  0.00000000000E+00 0. -1.
<scales pt_clust_3="98.65753" pt_clust_4="58.02708" pt_clust_5="131.13152" pt_clust_6="14000.00000"></scales>
<clustering>
<clus scale="   58.027">  2  4  1 -1</clus>
<clus scale="   98.658">  1  3  2 -1</clus>
<clus scale="  131.132">  2  5  1 -1</clus>
<clus scale="   58.027">  2  3  1 -1</clus>
</clustering>
</event>
<event>
 6    0  0.3584505E+002  0.9288831E+02  0.7546771E-02  0.1296004E+00
         21   -1    0    0  503  502  0.00000000000E+00  0.00000000000E+00  0.77507410795E+02  0.77507410795E+02  0.00000000000E+00 0. -1.
          1   -1    0    0  504    0 -0.00000000000E+00 -0.00000000000E+00 -0.13182954173E+04  0.13182954173E+04  0.00000000000E+00 0. -1.
         21    1    1    2  503  505 -0.77440245112E+02 -0.10038753981E+03 -0.92741434359E+02  0.15708476489E+03  0.00000000000E+00 0. -1.
         21    1    1    2  504  502  0.21849382843E+02  0.34712651694E+02  0.20589879362E+02  0.45894518740E+02  0.00000000000E+00 0.  1.
         21    1    1    2  505  501 -0.56616621472E+01  0.89830921795E+02 -0.17301995374E+03  0.19503218535E+03  0.00000000000E+00 0. -1.
          1    1    1    2  501    0  0.61252524416E+02 -0.24156033678E+02 -0.99561649775E+03  0.99779135910E+03  0.00000000000E+00 0. -1.
<scales pt_clust_3="14000.00000" pt_clust_4="41.01663" pt_clust_5="92.88831" pt_clust_6="66.03755"></scales>
<clustering>
<clus scale="   41.017">  1  4  2 -1</clus>
<clus scale="   66.038">  2  6  1 -1</clus>
<clus scale="   92.888">  2  5  1 -1</clus>
<clus scale="   41.017">  1  3  2 -1</clus>
</clustering>
</event>
<event>
 6    0  0.3584505E+002  0.1042743E+03  0.7546771E-02  0.1271556E+00
          2   -1    0    0  503    0 -0.00000000000E+00  0.00000000000E+00  0.27341660467E+04  0.27341660467E+04  0.00000000000E+00 0.  1.
         21   -1    0    0  501  502  0.00000000000E+00 -0.00000000000E+00 -0.28123275076E+02  0.28123275076E+02  0.00000000000E+00 0.  1.
         21    1    1    2  503  504  0.94549548277E+02  0.63072446738E+02  0.56003892302E+03  0.57145546276E+03  0.00000000000E+00 0. -1.
         21    1    1    2  504  505 -0.10151824804E+03 -0.20335258075E+02  0.24762150605E+03  0.26839502168E+03  0.00000000000E+00 0. -1.
         21    1    1    2  505  502 -0.75109388281E+01  0.34371473237E+02  0.16391872887E+02  0.38813733024E+02  0.00000000000E+00 0.  1.
          2    1    1    2  501    0  0.14479638594E+02 -0.77108661899E+02  0.18819904697E+04  0.18836251043E+04  0.00000000000E+00 0.  1.
<scales pt_clust_3="14000.00000" pt_clust_4="104.27425" pt_clust_5="35.18256" pt_clust_6="76.75689"></scales>
<clustering>
<clus scale="   35.183">  2  5  1 -1</clus>
<clus scale="   76.757">  1  6  2 -1</clus>
<clus scale="  104.274">  2  4  1 -1</clus>
<clus scale="   35.183">  2  3  1 -1</clus>
</clustering>
</event>
<event>
 6    0  0.3584505E+002  0.1056959E+03  0.7546771E-02  0.1268755E+00
         21   -1    0    0  501  502  0.00000000000E+00  0.00000000000E+00  0.92249894515E+02  0.92249894515E+02  0.00000000000E+00 0.  1.
          2   -1    0    0  504    0 -0.00000000000E+00 -0.00000000000E+00 -0.79200918263E+03  0.79200918263E+03  0.00000000000E+00 0.  1.
         21    1    1    2  503  505 -0.90551753721E+02 -0.76827121215E+01 -0.65879310833E+02  0.11224405447E+03  0.00000000000E+00 0.  1.
         21    1    1    2  504  503  0.93696101076E+02 -0.81684627718E+01 -0.29193392058E+03  0.30671011905E+03  0.00000000000E+00 0.  1.
         21    1    1    2  505  502 -0.40642009077E+02 -0.28211602526E+02  0.49276429250E+02  0.69827171635E+02  0.00000000000E+00 0.  1.
          2    1    1    2  501    0  0.37497661721E+02  0.44062777419E+02 -0.39122248596E+03  0.39547773200E+03  0.00000000000E+00 0.  1.
<scales pt_clust_3="14000.00000" pt_clust_4="105.69589" pt_clust_5="49.47391" pt_clust_6="54.75279"></scales>
<clustering>
<clus scale="   49.474">  1  5  2 -1</clus>
<clus scale="   54.753">  2  6  1 -1</clus>
<clus scale="  105.696">  2  4  1 -1</clus>
<clus scale="   49.474">  1  3  2 -1</clus>
</clustering>
</event>
<event>
 6    0  0.3584505E+002  0.1708290E+03  0.7546771E-02  0.1176986E+00
         21   -1    0    0  503  502  0.00000000000E+00  0.00000000000E+00  0.31218453519E+03  0.31218453519E+03  0.00000000000E+00 0. -1.
          2   -1    0    0  504    0 -0.00000000000E+00 -0.00000000000E+00 -0.36299443765E+03  0.36299443765E+03  0.00000000000E+00 0.  1.
         21    1    1    2  503  505  0.66061754340E+02 -0.88283828195E+02 -0.13234714583E+02  0.11105560489E+03  0.00000000000E+00 0. -1.
         21    1    1    2  504  502 -0.10192658724E+02 -0.80877416822E+02  0.22315185115E+03  0.23757482088E+03  0.00000000000E+00 0. -1.
         21    1    1    2  505  501 -0.29265957123E+02  0.11150476517E+03 -0.22712725130E+03  0.25470884787E+03  0.00000000000E+00 0.  1.
          2    1    1    2  501    0 -0.26603138493E+02  0.57656479846E+02 -0.33599787728E+02  0.71839699201E+02  0.00000000000E+00 0.  1.
<scales pt_clust_3="149.21143" pt_clust_4="81.51716" pt_clust_5="61.73135" pt_clust_6="61.73135"></scales>
<clustering>
<clus scale="   61.731">  5  6 -1 -1</clus>
<clus scale="   81.517">  1  4  2 -1</clus>
<clus scale="  149.211">  1  3  2 -1</clus>
<clus scale="   81.517">  1  3  2 -1</clus>
</clustering>
</event>
<event>
 6    0  0.3584505E+002  0.1060850E+03  0.7546771E-02  0.1267996E+00
          2   -1    0    0  505    0 -0.00000000000E+00  0.00000000000E+00  0.28376392822E+04  0.28376392822E+04  0.00000000000E+00 0.  1.
         21   -1    0    0  503  502  0.00000000000E+00 -0.00000000000E+00 -0.41808972646E+02  0.41808972646E+02  0.00000000000E+00 0.  1.
         21    1    1    2  503  504  0.36521445121E+02 -0.21466769294E+02  0.46133567910E+02  0.62633411417E+02  0.00000000000E+00 0.  1.
         21    1    1    2  504  501 -0.67094085377E+02 -0.57511287760E+02  0.45900848924E+03  0.46743765114E+03  0.00000000000E+00 0. -1.
         21    1    1    2  505  502  0.27638779165E+02  0.11572696364E+03  0.92055860670E+02  0.15043574612E+03  0.00000000000E+00 0.  1.
          2    1    1    2  501    0  0.29338610920E+01 -0.36748906587E+02  0.21986323917E+04  0.21989414462E+04  0.00000000000E+00 0.  1.
<scales pt_clust_3="44.23844" pt_clust_4="106.08503" pt_clust_5="14000.00000" pt_clust_6="36.86583"></scales>
<clustering>
<clus scale="   36.866">  1  6  2 -1</clus>
<clus scale="   44.238">  2  3  1 -1</clus>
<clus scale="  106.085">  1  4  2 -1</clus>
<clus scale="   44.238">  2  3  1 -1</clus>
</clustering>
</event>
<event>
 6    0  0.3584505E+002  0.6356585E+02  0.7546771E-02  0.1383449E+00
         21   -1    0    0  504  502  0.00000000000E+00  0.00000000000E+00  0.19157873510E+02  0.19157873510E+02  0.00000000000E+00 0.  1.
          1   -1    0    0  503    0 -0.00000000000E+00 -0.00000000000E+00 -0.22546917973E+04  0.22546917973E+04  0.00000000000E+00 0.  1.
         21    1    1    2  503  505 -0.15310014630E+02 -0.47969125647E+02 -0.15954584376E+03  0.16730304786E+03  0.00000000000E+00 0. -1.
         21    1    1    2  504  501  0.80585140263E+02  0.10932271140E+03 -0.53786658071E+03  0.55474848238E+03  0.00000000000E+00 0.  1.
         21    1    1    2  505  502 -0.33518235950E+02 -0.12038940914E+02 -0.44370397736E+02  0.56895873618E+02  0.00000000000E+00 0.  1.
          1    1    1    2  501    0 -0.31756889683E+02 -0.49314644841E+02 -0.14937511016E+04  0.14949022669E+04  0.00000000000E+00 0.  1.
<scales pt_clust_3="57.50030" pt_clust_4="63.56585" pt_clust_5="35.61472" pt_clust_6="14000.00000"></scales>
<clustering>
<clus scale="   35.615">  1  5  2 -1</clus>
<clus scale="   57.500">  1  3  2 -1</clus>
<clus scale="   63.566">  1  4  2 -1</clus>
<clus scale="   35.615">  1  3  2 -1</clus>
</clustering>
</event>
<event>
 6    0  0.3584505E+002  0.2205401E+03  0.7546771E-02  0.1133481E+00
         21   -1    0    0  503  502  0.00000000000E+00  0.00000000000E+00  0.71423932086E+03  0.71423932086E+03  0.00000000000E+00 0. -1.
          4   -1    0    0  505    0 -0.00000000000E+00 -0.00000000000E+00 -0.14384935339E+04  0.14384935339E+04  0.00000000000E+00 0.  1.
         21    1    1    2  503  501 -0.14359943621E+03  0.27031457591E+03  0.45521470257E+03  0.54855372888E+03  0.00000000000E+00 0. -1.
         21    1    1    2  504  502  0.13043268261E+03 -0.50488460551E+02  0.15697331099E+03  0.21024364367E+03  0.00000000000E+00 0.  1.
         21    1    1    2  505  504  0.75844271807E+02 -0.18986293579E+03 -0.35217238895E+03  0.40721699312E+03  0.00000000000E+00 0.  1.
          4    1    1    2  501    0 -0.62677518212E+02 -0.29963179575E+02 -0.98426983765E+03  0.98671848910E+03  0.00000000000E+00 0.  1.
<scales pt_clust_3="220.54009" pt_clust_4="137.09483" pt_clust_5="14000.00000" pt_clust_6="69.47131"></scales>
<clustering>
<clus scale="   69.471">  2  6  1 -1</clus>
<clus scale="  137.095">  1  4  2 -1</clus>
<clus scale="  220.540">  1  3  2 -1</clus>
<clus scale="  137.095">  1  3  2 -1</clus>
</clustering>
</event>
<event>
 6    0  0.3584505E+002  0.6483557E+02  0.7546771E-02  0.1378591E+00
         21   -1    0    0  504  502  0.00000000000E+00  0.00000000000E+00  0.11493617108E+03  0.11493617108E+03  0.00000000000E+00 0. -1.
          2   -1    0    0  502    0 -0.00000000000E+00 -0.00000000000E+00 -0.82690324513E+03  0.82690324513E+03  0.00000000000E+00 0.  1.
         21    1    1    2  503  505  0.11643142705E+02 -0.59771125077E+02  0.88861979734E+01  0.61539537530E+02  0.00000000000E+00 0. -1.
         21    1    1    2  504  503  0.21666835145E+02  0.23616589482E+02  0.33339332305E+02  0.46246147110E+02  0.00000000000E+00 0. -1.
         21    1    1    2  505  501 -0.34373546937E+02  0.99685944467E+02 -0.33606640432E+02  0.11067174226E+03  0.00000000000E+00 0. -1.
          2    1    1    2  501    0  0.10635690861E+01 -0.63531408871E+02 -0.72058596390E+03  0.72338198931E+03  0.00000000000E+00 0.  1.
<scales pt_clust_3="53.35898" pt_clust_4="32.04988" pt_clust_5="64.83557" pt_clust_6="14000.00000"></scales>
<clustering>
<clus scale="   32.050">  1  4  2 -1</clus>
<clus scale="   53.359">  1  3  2 -1</clus>
<clus scale="   64.836">  1  5  2 -1</clus>
<clus scale="   32.050">  1  3  2 -1</clus>
</clustering>
</event>
<event>
 6    0  0.3584505E+002  0.8339128E+02  0.7546771E-02  0.1319694E+00
         21   -1    0    0  503  502  0.00000000000E+00  0.00000000000E+00  0.36301507903E+02  0.36301507903E+02  0.00000000000E+00 0. -1.
          1   -1    0    0  505    0 -0.00000000000E+00 -0.00000000000E+00 -0.64636094565E+03  0.64636094565E+03  0.00000000000E+00 0.  1.
         21    1    1    2  503  501 -0.32829518185E+02 -0.19416531452E+02 -0.10613204464E+02  0.39590643678E+02  0.00000000000E+00 0. -1.
         21    1    1    2  504  502 -0.37922853540E+02 -0.45676506633E+02 -0.96670125938E+02  0.11344425648E+03  0.00000000000E+00 0. -1.
         21    1    1    2  505  504  0.11163999055E+03  0.47587230009E+02 -0.34609434833E+03  0.36675513616E+03  0.00000000000E+00 0. -1.
          1    1    1    2  501    0 -0.40887618828E+02  0.17505808076E+02 -0.15668175901E+03  0.16287241724E+03  0.00000000000E+00 0.  1.
<scales pt_clust_3="38.14156" pt_clust_4="14000.00000" pt_clust_5="83.39128" pt_clust_6="47.87526"></scales>
<clustering>
<clus scale="   38.142">  1  3  2 -1</clus>
<clus scale="   47.875">  2  6  1 -1</clus>
<clus scale="   83.391">  2  5  1 -1</clus>
<clus scale="   38.142">  1  3  2 -1</clus>
</clustering>
</event>
<event>
 6    0  0.3584505E+002  0.1164200E+03  0.7546771E-02  0.1249123E+00
         21   -1    0    0  505  502  0.00000000000E+00  0.00000000000E+00  0.73266941561E+03  0.73266941561E+03  0.00000000000E+00 0.  1.
         -1   -1    0    0    0  501 -0.00000000000E+00 -0.00000000000E+00 -0.10648021989E+03  0.10648021989E+03  0.00000000000E+00 0.  1.
         21    1    1    2  503  502  0.38371418259E+02  0.31786815475E+02  0.23557384504E+03  0.24078580490E+03  0.00000000000E+00 0.  1.
         21    1    1    2  504  503  0.38956980583E+02 -0.74775519310E+02  0.58160317203E+02  0.10242874168E+03  0.00000000000E+00 0.  1.
         21    1    1    2  505  501 -0.10679610855E+03  0.88631351020E+02  0.39169499806E+03  0.41555492620E+03  0.00000000000E+00 0.  1.
         -1    1    1    2    0  504  0.29467709711E+02 -0.45642647185E+02 -0.59239964568E+02  0.80380162725E+02  0.00000000000E+00 0.  1.
<scales pt_clust_3="49.82738" pt_clust_4="14000.00000" pt_clust_5="116.41998" pt_clust_6="54.21297"></scales>
<clustering>
<clus scale="   49.827">  1  3  2 -1</clus>
<clus scale="   54.213">  2  6  1 -1</clus>
<clus scale="  116.420">  1  5  2 -1</clus>
<clus scale="   49.827">  1  3  2 -1</clus>
</clustering>
</event>
<event>
 6    0  0.3584505E+002  0.1043808E+03  0.7546771E-02  0.1271344E+00
         21   -1    0    0  504  502  0.00000000000E+00  0.00000000000E+00  0.15996912277E+02  0.15996912277E+02  0.00000000000E+00 0. -1.
          2   -1    0    0  505    0 -0.00000000000E+00 -0.00000000000E+00 -0.15364760582E+04  0.15364760582E+04  0.00000000000E+00 0. -1.
         21    1    1    2  503  501 -0.11527053093E+03 -0.26963448551E+02 -0.72758672937E+03  0.73715451000E+03  0.00000000000E+00 0. -1.
         21    1    1    2  504  503  0.87055548889E+02  0.15796337054E+02 -0.23265088877E+03  0.24890686793E+03  0.00000000000E+00 0. -1.
         21    1    1    2  505  502  0.24852645512E+02 -0.27972570600E+02 -0.16335882184E+03  0.16758944885E+03  0.00000000000E+00 0. -1.
          2    1    1    2  501    0  0.33623365284E+01  0.39139682098E+02 -0.39688270593E+03  0.39882214368E+03  0.00000000000E+00 0. -1.
<scales pt_clust_3="104.38076" pt_clust_4="14000.00000" pt_clust_5="37.41816" pt_clust_6="37.53351"></scales>
<clustering>
<clus scale="   37.418">  1  5  2 -1</clus>
<clus scale="   37.534">  2  6  1 -1</clus>
<clus scale="  104.381">  2  3  1 -1</clus>
<clus scale="   37.418">  1  3  2 -1</clus>
</clustering>
</event>
<event>
 6    0  0.3584505E+002  0.7487272E+02  0.7546771E-02  0.1344266E+00
         21   -1    0    0  504  502  0.00000000000E+00  0.00000000000E+00  0.27891201427E+03  0.27891201427E+03  0.00000000000E+00 0. -1.
          4   -1    0    0  505    0 -0.00000000000E+00 -0.00000000000E+00 -0.15537083152E+04  0.15537083152E+04  0.00000000000E+00 0. -1.
         21    1    1    2  503  501 -0.11862412813E+03 -0.11646537581E+02  0.10158863359E+03  0.15661282223E+03  0.00000000000E+00 0.  1.
         21    1    1    2  504  503  0.50539821841E+02 -0.20280726108E+02  0.14090985443E+03  0.15106676841E+03  0.00000000000E+00 0. -1.
         21    1    1    2  505  502  0.62514524469E+02 -0.32746515678E+02 -0.43377846629E+03  0.43948169231E+03  0.00000000000E+00 0. -1.
          4    1    1    2  501    0  0.55697818217E+01  0.64673779367E+02 -0.10835163227E+04  0.10854590465E+04  0.00000000000E+00 0. -1.
<scales pt_clust_3="74.87272" pt_clust_4="54.45715" pt_clust_5="14000.00000" pt_clust_6="64.79832"></scales>
<clustering>
<clus scale="   54.457">  1  4  2 -1</clus>
<clus scale="   64.798">  2  6  1 -1</clus>
<clus scale="   74.873">  1  3  2 -1</clus>
<clus scale="   54.457">  1  3  2 -1</clus>
</clustering>
</event>
<event>
 6    0  0.3584505E+002  0.9424362E+02  0.7546771E-02  0.1292889E+00
          2   -1    0    0  504    0 -0.00000000000E+00  0.00000000000E+00  0.13113772678E+04  0.13113772678E+04  0.00000000000E+00 0.  1.
         21   -1    0    0  505  502  0.00000000000E+00 -0.00000000000E+00 -0.99308694368E+03  0.99308694368E+03  0.00000000000E+00 0.  1.
         21    1    1    2  503  501 -0.40951218621E+02  0.88149726210E+02  0.16942452265E+03  0.19532548583E+03  0.00000000000E+00 0. -1.
         21    1    1    2  504  502 -0.39678392573E+01 -0.16204178205E+03 -0.23084071468E+03  0.28206509609E+03  0.00000000000E+00 0.  1.
         21    1    1    2  505  503  0.90118981073E+01  0.71393049653E+02 -0.72159998184E+03  0.72517909211E+03  0.00000000000E+00 0.  1.
          2    1    1    2  501    0  0.35907159771E+02  0.24990061898E+01  0.11013064980E+04  0.11018945374E+04  0.00000000000E+00 0.  1.
<scales pt_clust_3="14000.00000" pt_clust_4="94.24362" pt_clust_5="72.01973" pt_clust_6="35.99402"></scales>
<clustering>
<clus scale="   35.994">  1  6  2 -1</clus>
<clus scale="   72.020">  2  5  1 -1</clus>
<clus scale="   94.244">  2  4  1 -1</clus>
<clus scale="   72.020">  2  3  1 -1</clus>
</clustering>
</event>
<event>
 6    0  0.3584505E+002  0.8115799E+02  0.7546771E-02  0.1325797E+00
         21   -1    0    0  505  502  0.00000000000E+00  0.00000000000E+00  0.71049093525E+03  0.71049093525E+03  0.00000000000E+00 0.  1.
          1   -1    0    0  502    0 -0.00000000000E+00 -0.00000000000E+00 -0.48697896889E+03  0.48697896889E+03  0.00000000000E+00 0.  1.
         21    1    1    2  503  504  0.65611996938E+02  0.48406762124E+02  0.24207505542E+02  0.85053818762E+02  0.00000000000E+00 0. -1.
         21    1    1    2  504  501 -0.59907280106E+02  0.73065991605E+02 -0.14566514580E+03  0.17362562035E+03  0.00000000000E+00 0.  1.
         21    1    1    2  505  503 -0.23797922545E+01 -0.83715849818E+02  0.63792209655E+03  0.64339615183E+03  0.00000000000E+00 0.  1.
          1    1    1    2  501    0 -0.33249245769E+01 -0.37756903911E+02 -0.29295248993E+03  0.29539431320E+03  0.00000000000E+00 0.  1.
<scales pt_clust_3="81.15799" pt_clust_4="75.32460" pt_clust_5="14000.00000" pt_clust_6="37.90302"></scales>
<clustering>
<clus scale="   37.903">  2  6  1 -1</clus>
<clus scale="   75.325">  2  4  1 -1</clus>
<clus scale="   81.158">  2  3  1 -1</clus>
<clus scale="   81.158">  1  3  2 -1</clus>
</clustering>
</event>
<event>
 6    0  0.3584505E+002  0.1089460E+03  0.7546771E-02  0.1262534E+00
          2   -1    0    0  504    0 -0.00000000000E+00  0.00000000000E+00  0.55282475917E+03  0.55282475917E+03  0.00000000000E+00 0.  1.
         21   -1    0    0  503  502  0.00000000000E+00 -0.00000000000E+00 -0.10544136119E+03  0.10544136119E+03  0.00000000000E+00 0.  1.
         21    1    1    2  503  501  0.66841188347E+02  0.10742027738E+03  0.26393117234E+02  0.12924185502E+03  0.00000000000E+00 0.  1.
         21    1    1    2  504  505 -0.31015661571E+02 -0.38399573430E+02  0.77954622790E+02  0.92268205340E+02  0.00000000000E+00 0.  1.
         21    1    1    2  505  502 -0.10356629547E+03 -0.30172849717E+02  0.26978011392E+02  0.11119438617E+03  0.00000000000E+00 0.  1.
          2    1    1    2  501    0  0.67740768694E+02 -0.38847854229E+02  0.31605764656E+03  0.32556167383E+03  0.00000000000E+00 0.  1.
<scales pt_clust_3="108.94597" pt_clust_4="49.36090" pt_clust_5="14000.00000" pt_clust_6="80.05278"></scales>
<clustering>
<clus scale="   49.361">  1  4  2 -1</clus>
<clus scale="   80.053">  1  6  2 -1</clus>
<clus scale="  108.946">  1  3  2 -1</clus>
<clus scale="  108.946">  2  3  1 -1</clus>
</clustering>
</event>
<event>
 6    0  0.3584505E+002  0.1124464E+03  0.7546771E-02  0.1256105E+00
          2   -1    0    0  505    0 -0.00000000000E+00  0.00000000000E+00  0.54743440993E+02  0.54743440993E+02  0.00000000000E+00 0.  1.
         21   -1    0    0  504  502  0.00000000000E+00 -0.00000000000E+00 -0.11189641395E+04  0.11189641395E+04  0.00000000000E+00 0.  1.
         21    1    1    2  503  501  0.12352680270E+03 -0.24309349840E+02 -0.15045612383E+03  0.19618068374E+03  0.00000000000E+00 0.  1.
         21    1    1    2  504  503 -0.35775178362E+01 -0.38389958712E+02 -0.11985057392E+03  0.12589975232E+03  0.00000000000E+00 0. -1.
         21    1    1    2  505  502 -0.23403251884E+02  0.19073421436E+02 -0.72414173716E+03  0.72477083488E+03  0.00000000000E+00 0.  1.
          2    1    1    2  501    0 -0.96546032982E+02  0.43625887116E+02 -0.69772263647E+02  0.12685630960E+03  0.00000000000E+00 0.  1.
<scales pt_clust_3="14000.00000" pt_clust_4="34.22049" pt_clust_5="30.19118" pt_clust_6="112.44644"></scales>
<clustering>
<clus scale="   30.191">  2  5  1 -1</clus>
<clus scale="   34.220">  2  4  1 -1</clus>
<clus scale="  112.446">  1  6  2 -1</clus>
<clus scale="   30.191">  2  3  1 -1</clus>
</clustering>
</event>
<event>
 6    0  0.3584505E+002  0.9126054E+02  0.7546771E-02  0.1299828E+00
         21   -1    0    0  503  502  0.00000000000E+00  0.00000000000E+00  0.13862038161E+03  0.13862038161E+03  0.00000000000E+00 0.  1.
          2   -1    0    0  504    0 -0.00000000000E+00 -0.00000000000E+00 -0.11931240061E+04  0.11931240061E+04  0.00000000000E+00 0. -1.
         21    1    1    2  503  501  0.66863130699E+02  0.39476256673E+02 -0.42732484532E+03  0.43432197333E+03  0.00000000000E+00 0. -1.
         21    1    1    2  504  505 -0.41094092291E+02 -0.10314549509E+03 -0.74125623883E+02  0.13350028350E+03  0.00000000000E+00 0.  1.
         21    1    1    2  505  502 -0.21128033109E+02  0.33642450425E+02  0.10132729140E+03  0.10883670445E+03  0.00000000000E+00 0.  1.
          2    1    1    2  501    0 -0.46410052989E+01  0.30026787990E+02 -0.65438044673E+03  0.65508542649E+03  0.00000000000E+00 0. -1.
<scales pt_clust_3="91.26054" pt_clust_4="14000.00000" pt_clust_5="39.92131" pt_clust_6="30.38333"></scales>
<clustering>
<clus scale="   30.383">  2  6  1 -1</clus>
<clus scale="   39.921">  1  5  2 -1</clus>
<clus scale="   91.261">  2  3  1 -1</clus>
<clus scale="   39.921">  1  3  2 -1</clus>
</clustering>
</event>
<event>
 6    0  0.3584505E+002  0.1100507E+03  0.7546771E-02  0.1260476E+00
         21   -1    0    0  505  502  0.00000000000E+00  0.00000000000E+00  0.57913959656E+03  0.57913959656E+03  0.00000000000E+00 0.  1.
         -1   -1    0    0    0  501 -0.00000000000E+00 -0.00000000000E+00 -0.23822454111E+03  0.23822454111E+03  0.00000000000E+00 0.  1.
         21    1    1    2  503  502  0.73997943108E+02  0.47888639135E+02  0.40835774662E+03  0.41776197358E+03  0.00000000000E+00 0.  1.
         21    1    1    2  504  501 -0.84214795020E+02 -0.45197572771E+02 -0.13435868493E+03  0.16488544053E+03  0.00000000000E+00 0.  1.
         21    1    1    2  505  504 -0.93627210526E+01  0.45848483379E+02  0.13841306821E+03  0.14610927905E+03  0.00000000000E+00 0.  1.
         -1    1    1    2    0  503  0.19579572965E+02 -0.48539549742E+02 -0.71497074450E+02  0.88607444505E+02  0.00000000000E+00 0.  1.
<scales pt_clust_3="14000.00000" pt_clust_4="110.05068" pt_clust_5="46.79470" pt_clust_6="51.43877"></scales>
<clustering>
<clus scale="   46.795">  1  5  2 -1</clus>
<clus scale="   51.439">  2  6  1 -1</clus>
<clus scale="  110.051">  2  4  1 -1</clus>
<clus scale="   46.795">  1  3  2 -1</clus>
</clustering>
</event>
<event>
 6    0  0.3584505E+002  0.9496195E+02  0.7546771E-02  0.1291262E+00
         21   -1    0    0  505  502  0.00000000000E+00  0.00000000000E+00  0.82547601562E+02  0.82547601562E+02  0.00000000000E+00 0. -1.
          4   -1    0    0  504    0 -0.00000000000E+00 -0.00000000000E+00 -0.16545544550E+04  0.16545544550E+04  0.00000000000E+00 0. -1.
         21    1    1    2  503  501  0.92252424799E+02  0.25404938289E+02 -0.81214901048E+02  0.12550609915E+03  0.00000000000E+00 0. -1.
         21    1    1    2  504  502  0.18411836820E+02 -0.28091033330E+02  0.47173819221E+02  0.57909162561E+02  0.00000000000E+00 0. -1.
         21    1    1    2  505  503 -0.20548653797E+02  0.32502887341E+02 -0.51903307303E+02  0.64595960921E+02  0.00000000000E+00 0. -1.
          4    1    1    2  501    0 -0.90115607823E+02 -0.29816792300E+02 -0.14860624643E+04  0.14890908339E+04  0.00000000000E+00 0. -1.
<scales pt_clust_3="94.96195" pt_clust_4="33.58723" pt_clust_5="31.35111" pt_clust_6="14000.00000"></scales>
<clustering>
<clus scale="   33.587">  1  4  2 -1</clus>
<clus scale="   31.351">  1  5  2 -1</clus>
<clus scale="   94.962">  1  3  2 -1</clus>
<clus scale="   33.587">  1  3  2 -1</clus>
</clustering>
</event>
<event>
 6    0  0.3584505E+002  0.8529698E+02  0.7546771E-02  0.1314658E+00
         21   -1    0    0  505  502  0.00000000000E+00  0.00000000000E+00  0.88443846592E+02  0.88443846592E+02  0.00000000000E+00 0. -1.
          2   -1    0    0  503    0 -0.00000000000E+00 -0.00000000000E+00 -0.17195938510E+04  0.17195938510E+04  0.00000000000E+00 0. -1.
         21    1    1    2  503  504  0.58308417645E+01 -0.38968932594E+02 -0.16520984288E+03  0.16984365931E+03  0.00000000000E+00 0. -1.
         21    1    1    2  504  502 -0.94271318820E+02 -0.65917124185E+02  0.65529871943E+01  0.11521757875E+03  0.00000000000E+00 0. -1.
         21    1    1    2  505  501  0.54741179935E+02  0.31108025196E+02 -0.16989586564E+02  0.65214661418E+02  0.00000000000E+00 0. -1.
          2    1    1    2  501    0  0.33699297120E+02  0.73778031583E+02 -0.14555035622E+04  0.14577617981E+04  0.00000000000E+00 0. -1.
<scales pt_clust_3="39.40275" pt_clust_4="14000.00000" pt_clust_5="85.29698" pt_clust_6="54.02449"></scales>
<clustering>
<clus scale="   39.403">  2  3  1 -1</clus>
<clus scale="   54.024">  2  6  1 -1</clus>
<clus scale="   85.297">  1  5  2 -1</clus>
<clus scale="   85.297">  1  3  2 -1</clus>
</clustering>
</event>
<event>
 6    0  0.3584505E+002  0.1129464E+03  0.7546771E-02  0.1255209E+00
         21   -1    0    0  504  502  0.00000000000E+00  0.00000000000E+00  0.83515427897E+03  0.83515427897E+03  0.00000000000E+00 0. -1.
         -3   -1    0    0    0  501 -0.00000000000E+00 -0.00000000000E+00 -0.21516014142E+03  0.21516014142E+03  0.00000000000E+00 0. -1.
         21    1    1    2  503  502  0.43533690870E+02  0.59231906075E+02  0.71252432683E+03  0.71630616169E+03  0.00000000000E+00 0. -1.
         21    1    1    2  504  505  0.69288300210E+02 -0.16965211964E+02  0.66385818734E+02  0.97446210249E+02  0.00000000000E+00 0. -1.
         21    1    1    2  505  501 -0.16103399419E+02 -0.64959895755E+02 -0.28809252937E+02  0.72863437911E+02  0.00000000000E+00 0. -1.
         -3    1    1    2    0  503 -0.96718591660E+02  0.22693201644E+02 -0.13010675509E+03  0.16369861054E+03  0.00000000000E+00 0. -1.
<scales pt_clust_3="112.94645" pt_clust_4="71.59680" pt_clust_5="66.92613" pt_clust_6="14000.00000"></scales>
<clustering>
<clus scale="   66.926">  2  5  1 -1</clus>
<clus scale="   71.597">  1  4  2 -1</clus>
<clus scale="  112.946">  1  3  2 -1</clus>
<clus scale="   71.597">  1  3  2 -1</clus>
</clustering>
</event>
<event>
 6    0  0.3584505E+002  0.1330120E+03  0.7546771E-02  0.1223054E+00
          2   -1    0    0  503    0 -0.00000000000E+00  0.00000000000E+00  0.20357406757E+04  0.20357406757E+04  0.00000000000E+00 0. -1.
         21   -1    0    0  504  502  0.00000000000E+00 -0.00000000000E+00 -0.31485757406E+03  0.31485757406E+03  0.00000000000E+00 0.  1.
         21    1    1    2  503  502 -0.27691492418E+02 -0.77863794448E+02 -0.92601856005E+02  0.12411564355E+03  0.00000000000E+00 0.  1.
         21    1    1    2  504  505  0.55247347246E+02 -0.38801484674E+02 -0.19869502421E+03  0.20985122643E+03  0.00000000000E+00 0.  1.
         21    1    1    2  505  501 -0.40232030705E+02  0.53723613003E+02  0.83010645986E+03  0.83281545230E+03  0.00000000000E+00 0. -1.
          2    1    1    2  501    0  0.12676175877E+02  0.62941666119E+02  0.11820735220E+04  0.11838159275E+04  0.00000000000E+00 0. -1.
<scales pt_clust_3="118.86319" pt_clust_4="67.51166" pt_clust_5="58.38730" pt_clust_6="58.38730"></scales>
<clustering>
<clus scale="   58.387">  5  6 -1 -1</clus>
<clus scale="   67.512">  2  4  1 -1</clus>
<clus scale="  118.863">  2  3  1 -1</clus>
<clus scale="   67.512">  2  3  1 -1</clus>
</clustering>
</event>
<event>
 6    0  0.3584505E+002  0.8298082E+02  0.7546771E-02  0.1320799E+00
          2   -1    0    0  503    0 -0.00000000000E+00  0.00000000000E+00  0.16559123441E+04  0.16559123441E+04  0.00000000000E+00 0. -1.
         21   -1    0    0  504  502  0.00000000000E+00 -0.00000000000E+00 -0.11331562335E+04  0.11331562335E+04  0.00000000000E+00 0.  1.
         21    1    1    2  503  502  0.78696591079E+02 -0.51139776258E+02  0.16403887069E+03  0.18898989724E+03  0.00000000000E+00 0. -1.
         21    1    1    2  504  505  0.30517553601E+02 -0.83397834012E+01 -0.75844518021E+03  0.75910471244E+03  0.00000000000E+00 0.  1.
         21    1    1    2  505  501 -0.28007617443E+02  0.44491076637E+02 -0.35883630576E+03  0.36266703306E+03  0.00000000000E+00 0.  1.
          2    1    1    2  501    0 -0.81206527236E+02  0.14988483022E+02  0.14759987259E+04  0.14783069348E+04  0.00000000000E+00 0. -1.
<scales pt_clust_3="82.98082" pt_clust_4="31.63658" pt_clust_5="36.48174" pt_clust_6="14000.00000"></scales>
<clustering>
<clus scale="   31.637">  2  4  1 -1</clus>
<clus scale="   36.482">  2  5  1 -1</clus>
<clus scale="   82.981">  2  3  1 -1</clus>
<clus scale="   31.637">  2  3  1 -1</clus>
</clustering>
</event>
<event>
 6    0  0.3584505E+002  0.1417733E+03  0.7546771E-02  0.1210963E+00
         21   -1    0    0  505  502  0.00000000000E+00  0.00000000000E+00  0.15639627284E+04  0.15639627284E+04  0.00000000000E+00 0. -1.
          1   -1    0    0  503    0 -0.00000000000E+00 -0.00000000000E+00 -0.12599168654E+03  0.12599168654E+03  0.00000000000E+00 0.  1.
         21    1    1    2  503  502  0.33086445705E+02 -0.33078410451E+02  0.21481458869E+02  0.51481522924E+02  0.00000000000E+00 0.  1.
         21    1    1    2  504  501  0.12690235768E+03  0.10461678518E+03  0.11224678850E+04  0.11344527461E+04  0.00000000000E+00 0. -1.
         21    1    1    2  505  504 -0.30411359293E+02 -0.29780603083E+01  0.34685075768E+03  0.34819415234E+03  0.00000000000E+00 0. -1.
          1    1    1    2  501    0 -0.12957744409E+03 -0.68560314419E+02 -0.52829059739E+02  0.15582599361E+03  0.00000000000E+00 0.  1.
<scales pt_clust_3="46.20920" pt_clust_4="141.77332" pt_clust_5="30.55683" pt_clust_6="14000.00000"></scales>
<clustering>
<clus scale="   30.557">  1  5  2 -1</clus>
<clus scale="   46.209">  2  3  1 -1</clus>
<clus scale="  141.773">  1  4  2 -1</clus>
<clus scale="   30.557">  1  3  2 -1</clus>
</clustering>
</event>
<event>
 6    0  0.3584505E+002  0.1191835E+03  0.7546771E-02  0.1244450E+00
         21   -1    0    0  505  502  0.00000000000E+00  0.00000000000E+00  0.10580400238E+04  0.10580400238E+04  0.00000000000E+00 0.  1.
         -1   -1    0    0    0  501 -0.00000000000E+00 -0.00000000000E+00 -0.43123783350E+02  0.43123783350E+02  0.00000000000E+00 0. -1.
         21    1    1    2  503  502 -0.59160356470E+02  0.67933405120E+02  0.14167554589E+03  0.16788941483E+03  0.00000000000E+00 0. -1.
         21    1    1    2  504  501  0.76420195730E+02 -0.41689999025E+02  0.12686236802E+03  0.15385760545E+03  0.00000000000E+00 0.  1.
         21    1    1    2  505  504  0.83263302834E+01 -0.62782828288E+02  0.72868001740E+03  0.73142708390E+03  0.00000000000E+00 0.  1.
         -1    1    1    2    0  503 -0.25586169543E+02  0.36539422193E+02  0.17698309156E+02  0.47989702990E+02  0.00000000000E+00 0. -1.
<scales pt_clust_3="39.22535" pt_clust_4="105.34460" pt_clust_5="63.33255" pt_clust_6="39.22535"></scales>
<clustering>
<clus scale="   39.225">  3  6 -1 -1</clus>
<clus scale="   63.333">  1  5  2 -1</clus>
<clus scale="  105.345">  2  4  1 -1</clus>
<clus scale="   63.333">  1  3  2 -1</clus>
</clustering>
</event>
<event>
 6    0  0.3584505E+002  0.9759375E+02  0.7546771E-02  0.1285439E+00
         -2   -1    0    0    0  501 -0.00000000000E+00  0.00000000000E+00  0.47995480435E+03  0.47995480435E+03  0.00000000000E+00 0.  1.
         21   -1    0    0  504  502  0.00000000000E+00 -0.00000000000E+00 -0.33307350501E+03  0.33307350501E+03  0.00000000000E+00 0. -1.
         21    1    1    2  503  502  0.21289200065E+02  0.22070484063E+02 -0.18946321488E+03  0.19192875266E+03  0.00000000000E+00 0. -1.
         21    1    1    2  504  505 -0.10451653873E+03 -0.24073568146E+02 -0.69954943362E+02  0.12805052773E+03  0.00000000000E+00 0. -1.
         21    1    1    2  505  501  0.12783055436E+03 -0.14904183402E+02  0.57421976392E+02  0.14092575593E+03  0.00000000000E+00 0. -1.
         -2    1    1    2    0  503 -0.44603215703E+02  0.16907267486E+02  0.34887748118E+03  0.35212327304E+03  0.00000000000E+00 0.  1.
<scales pt_clust_3="30.66490" pt_clust_4="14000.00000" pt_clust_5="97.59375" pt_clust_6="47.56347"></scales>
<clustering>
<clus scale="   30.665">  2  3  1 -1</clus>
<clus scale="   47.563">  1  6  2 -1</clus>
<clus scale="   97.594">  1  5  2 -1</clus>
<clus scale="   30.665">  2  3  1 -1</clus>
</clustering>
</event>
<event>
 6    0  0.3584505E+002  0.1349556E+03  0.7546771E-02  0.1220282E+00
          1   -1    0    0  505    0 -0.00000000000E+00  0.00000000000E+00  0.32919857836E+03  0.32919857836E+03  0.00000000000E+00 0. -1.
         21   -1    0    0  503  502  0.00000000000E+00 -0.00000000000E+00 -0.15826489882E+03  0.15826489882E+03  0.00000000000E+00 0. -1.
         21    1    1    2  503  501  0.52660750153E+01 -0.48637171336E+02  0.15684926666E+02  0.51374340932E+02  0.00000000000E+00 0.  1.
         21    1    1    2  504  502 -0.67866674200E+02  0.25138907399E+02 -0.43761164522E+02  0.84574757773E+02  0.00000000000E+00 0. -1.
         21    1    1    2  505  504 -0.62041049915E+02  0.55287026852E+02 -0.30413368159E+02  0.88491356502E+02  0.00000000000E+00 0. -1.
          1    1    1    2  501    0  0.12464164910E+03 -0.31788762915E+02  0.22942328555E+03  0.26302302198E+03  0.00000000000E+00 0. -1.
<scales pt_clust_3="48.92143" pt_clust_4="31.03120" pt_clust_5="31.03120" pt_clust_6="130.79501"></scales>
<clustering>
<clus scale="   31.031">  4  5 -1 -1</clus>
<clus scale="   48.921">  2  3  1 -1</clus>
<clus scale="  130.795">  1  6  2 -1</clus>
<clus scale="   48.921">  2  3  1 -1</clus>
</clustering>
</event>
<event>
 6    0  0.3584505E+002  0.7989906E+02  0.7546771E-02  0.1329338E+00
          1   -1    0    0  505    0 -0.00000000000E+00  0.00000000000E+00  0.98844683460E+03  0.98844683460E+03  0.00000000000E+00 0.  1.
         21   -1    0    0  501  502  0.00000000000E+00 -0.00000000000E+00 -0.22809345389E+03  0.22809345389E+03  0.00000000000E+00 0. -1.
         21    1    1    2  503  502  0.37418866290E+02 -0.66928925464E+00 -0.20082029791E+03  0.20427778037E+03  0.00000000000E+00 0. -1.
         21    1    1    2  504  503  0.92738971152E+02  0.47170174698E+02  0.13150711905E+03  0.16768919020E+03  0.00000000000E+00 0. -1.
         21    1    1    2  505  504 -0.66258661440E+02 -0.38873324159E+02  0.63303246473E+03  0.63767660060E+03  0.00000000000E+00 0.  1.
          1    1    1    2  501    0 -0.63899176003E+02 -0.76275612843E+01  0.19663409484E+03  0.20689671732E+03  0.00000000000E+00 0.  1.
<scales pt_clust_3="37.42485" pt_clust_4="14000.00000" pt_clust_5="79.89906" pt_clust_6="56.91433"></scales>
<clustering>
<clus scale="   37.425">  2  3  1 -1</clus>
<clus scale="   56.914">  2  6  1 -1</clus>
<clus scale="   79.899">  1  5  2 -1</clus>
<clus scale="   37.425">  2  3  1 -1</clus>
</clustering>
</event>
<event>
 6    0  0.3584505E+002  0.9027650E+02  0.7546771E-02  0.1302183E+00
          2   -1    0    0  505    0 -0.00000000000E+00  0.00000000000E+00  0.36799509612E+03  0.36799509612E+03  0.00000000000E+00 0. -1.
         21   -1    0    0  503  502  0.00000000000E+00 -0.00000000000E+00 -0.47707081846E+03  0.47707081846E+03  0.00000000000E+00 0. -1.
         21    1    1    2  503  501 -0.28968340394E+02  0.27144635747E+02 -0.22605275949E+02  0.45683634879E+02  0.00000000000E+00 0. -1.
         21    1    1    2  504  502  0.21995573559E+02 -0.32507309126E+02 -0.30849656862E+03  0.31098338099E+03  0.00000000000E+00 0. -1.
         21    1    1    2  505  504  0.82767766380E+02  0.53671438552E+02 -0.10804790292E+03  0.14630610307E+03  0.00000000000E+00 0.  1.
          2    1    1    2  501    0 -0.75794999545E+02 -0.48308765174E+02  0.33007402515E+03  0.34209279564E+03  0.00000000000E+00 0. -1.
<scales pt_clust_3="31.93730" pt_clust_4="39.24959" pt_clust_5="14000.00000" pt_clust_6="90.27650"></scales>
<clustering>
<clus scale="   39.250">  2  4  1 -1</clus>
<clus scale="   31.937">  2  3  1 -1</clus>
<clus scale="   90.276">  1  6  2 -1</clus>
<clus scale="   39.250">  2  3  1 -1</clus>
</clustering>
</event>
<event>
 6    0  0.3584505E+002  0.7552750E+02  0.7546771E-02  0.1342245E+00
          2   -1    0    0  502    0 -0.00000000000E+00  0.00000000000E+00  0.11601818866E+04  0.11601818866E+04  0.00000000000E+00 0. -1.
         21   -1    0    0  505  502  0.00000000000E+00 -0.00000000000E+00 -0.69061170017E+03  0.69061170017E+03  0.00000000000E+00 0.  1.
         21    1    1    2  503  504 -0.22340102177E+02  0.65306043373E+02 -0.20625273845E+03  0.21749517601E+03  0.00000000000E+00 0.  1.
         21    1    1    2  504  501 -0.63892829064E+02  0.28308805894E+02  0.24326284829E+03  0.25310174922E+03  0.00000000000E+00 0. -1.
         21    1    1    2  505  503  0.54706756296E+02 -0.60967141618E+02 -0.46970336996E+03  0.47679248871E+03  0.00000000000E+00 0.  1.
          2    1    1    2  501    0  0.31526174945E+02 -0.32647707649E+02  0.90226344658E+03  0.90340417286E+03  0.00000000000E+00 0. -1.
<scales pt_clust_3="75.52750" pt_clust_4="33.63977" pt_clust_5="14000.00000" pt_clust_6="45.38472"></scales>
<clustering>
<clus scale="   45.385">  1  6  2 -1</clus>
<clus scale="   33.640">  1  4  2 -1</clus>
<clus scale="   75.527">  1  3  2 -1</clus>
<clus scale="   75.527">  2  3  1 -1</clus>
</clustering>
</event>
<event>
 6    0  0.4178877E+002  0.2633537E+03  0.7546771E-02  0.1105145E+00
         21   -1    0    0  504  502  0.00000000000E+00  0.00000000000E+00  0.62839814625E+03  0.62839814625E+03  0.00000000000E+00 0.  1.
          2   -1    0    0  503    0 -0.00000000000E+00 -0.00000000000E+00 -0.36097636925E+04  0.36097636925E+04  0.00000000000E+00 0. -1.
         21    1    1    2  503  502  0.20376659357E+03  0.10037192121E+03  0.54560511297E+03  0.59099939638E+03  0.00000000000E+00 0.  1.
         21    1    1    2  504  505  0.25363788048E+02  0.33059017520E+02  0.16816056587E+02  0.44933285465E+02  0.00000000000E+00 0.  1.
         21    1    1    2  505  501 -0.25860921770E+03 -0.84276461169E+02 -0.61012179750E+03  0.66800438409E+03  0.00000000000E+00 0. -1.
          2    1    1    2  501    0  0.29478836075E+02 -0.49154477558E+02 -0.29336649183E+04  0.29342247728E+04  0.00000000000E+00 0. -1.
<scales pt_clust_3="14000.00000" pt_clust_4="41.66798" pt_clust_5="263.35366" pt_clust_6="57.30919"></scales>
<clustering>
<clus scale="   41.668">  1  4  2 -1</clus>
<clus scale="   57.309">  2  6  1 -1</clus>
<clus scale="  263.354">  2  5  1 -1</clus>
<clus scale="   41.668">  1  3  2 -1</clus>
</clustering>
</event>
<event>
 6    0  0.3584505E+002  0.1048280E+03  0.7546771E-02  0.1270459E+00
         21   -1    0    0  504  502  0.00000000000E+00  0.00000000000E+00  0.30988898742E+02  0.30988898742E+02  0.00000000000E+00 0. -1.
          2   -1    0    0  503    0 -0.00000000000E+00 -0.00000000000E+00 -0.17109780243E+04  0.17109780243E+04  0.00000000000E+00 0.  1.
         21    1    1    2  503  505  0.92848497943E+02 -0.71875238272E+02 -0.70163563338E+03  0.71139261697E+03  0.00000000000E+00 0. -1.
         21    1    1    2  504  501 -0.10996681858E+03  0.50748113357E+02 -0.34757389045E+03  0.36807021276E+03  0.00000000000E+00 0.  1.
         21    1    1    2  505  502  0.35417633103E+02 -0.80624123111E+01 -0.60485675988E+01  0.36823856355E+02  0.00000000000E+00 0. -1.
          2    1    1    2  501    0 -0.18299312470E+02  0.29189537226E+02 -0.62473103408E+03  0.62568023691E+03  0.00000000000E+00 0.  1.
<scales pt_clust_3="104.82798" pt_clust_4="14000.00000" pt_clust_5="35.84676" pt_clust_6="34.45133"></scales>
<clustering>
<clus scale="   34.451">  2  6  1 -1</clus>
<clus scale="   35.847">  1  5  2 -1</clus>
<clus scale="  104.828">  2  3  1 -1</clus>
<clus scale="   35.847">  1  3  2 -1</clus>
</clustering>
</event>
<event>
 6    0  0.3584505E+002  0.2024731E+03  0.7546771E-02  0.1147669E+00
         21   -1    0    0  504  502  0.00000000000E+00  0.00000000000E+00  0.12281578466E+04  0.12281578466E+04  0.00000000000E+00 0.  1.
          1   -1    0    0  502    0 -0.00000000000E+00 -0.00000000000E+00 -0.86035965095E+03  0.86035965095E+03  0.00000000000E+00 0.  1.
         21    1    1    2  503  501  0.19602837201E+03 -0.57510385427E+02  0.19742136418E+03  0.28409463581E+03  0.00000000000E+00 0.  1.
         21    1    1    2  504  505  0.37197550621E+02 -0.11833797550E+02  0.84151616927E+03  0.84242101094E+03  0.00000000000E+00 0.  1.
         21    1    1    2  505  503 -0.31037714920E+02  0.56070795773E+02  0.12500583859E+03  0.14047680793E+03  0.00000000000E+00 0. -1.
          1    1    1    2  501    0 -0.20218820771E+03  0.13273387204E+02 -0.79614517639E+03  0.82152504285E+03  0.00000000000E+00 0.  1.
<scales pt_clust_3="14000.00000" pt_clust_4="39.03456" pt_clust_5="55.11335" pt_clust_6="202.47305"></scales>
<clustering>
<clus scale="   39.035">  1  4  2 -1</clus>
<clus scale="   55.113">  1  5  2 -1</clus>
<clus scale="  202.473">  2  6  1 -1</clus>
<clus scale="   39.035">  1  3  2 -1</clus>
</clustering>
</event>
<event>
 6    0  0.3584505E+002  0.1035554E+03  0.7546771E-02  0.1272992E+00
         21   -1    0    0  503  502  0.00000000000E+00  0.00000000000E+00  0.35407048741E+03  0.35407048741E+03  0.00000000000E+00 0. -1.
          1   -1    0    0  505    0 -0.00000000000E+00 -0.00000000000E+00 -0.12833565729E+04  0.12833565729E+04  0.00000000000E+00 0. -1.
         21    1    1    2  503  501  0.10094546941E+03  0.11246482693E+03  0.24326203996E+03  0.28638216630E+03  0.00000000000E+00 0. -1.
         21    1    1    2  504  502 -0.51457592798E+01 -0.56785395261E+02  0.27127064368E+02  0.63142201219E+02  0.00000000000E+00 0.  1.
         21    1    1    2  505  504 -0.91566060386E+02  0.83890018742E+01 -0.56186378925E+01  0.92121050031E+02  0.00000000000E+00 0.  1.
          1    1    1    2  501    0 -0.42336497456E+01 -0.64068433541E+02 -0.11940565520E+04  0.11957816428E+04  0.00000000000E+00 0. -1.
<scales pt_clust_3="103.55541" pt_clust_4="57.01807" pt_clust_5="14000.00000" pt_clust_6="64.36731"></scales>
<clustering>
<clus scale="   57.018">  1  4  2 -1</clus>
<clus scale="   64.367">  2  6  1 -1</clus>
<clus scale="  103.555">  1  3  2 -1</clus>
<clus scale="   57.018">  1  3  2 -1</clus>
</clustering>
</event>
<event>
 6    0  0.3584505E+002  0.1210498E+03  0.7546771E-02  0.1241375E+00
         21   -1    0    0  503  502  0.00000000000E+00  0.00000000000E+00  0.45477563033E+03  0.45477563033E+03  0.00000000000E+00 0.  1.
          1   -1    0    0  505    0 -0.00000000000E+00 -0.00000000000E+00 -0.56744493053E+03  0.56744493053E+03  0.00000000000E+00 0.  1.
         21    1    1    2  503  501 -0.59509545057E+02  0.13170109871E+03 -0.24173521558E+03  0.28164246805E+03  0.00000000000E+00 0.  1.
         21    1    1    2  504  502  0.15395850287E+02 -0.73466303009E+02  0.39795930904E+03  0.40497647034E+03  0.00000000000E+00 0.  1.
         21    1    1    2  505  504  0.17068834875E+02 -0.78559378258E+02 -0.17929029772E+02  0.82367294146E+02  0.00000000000E+00 0. -1.
          1    1    1    2  501    0  0.27044859894E+02  0.20324582560E+02 -0.25096436389E+03  0.25323432833E+03  0.00000000000E+00 0.  1.
<scales pt_clust_3="14000.00000" pt_clust_4="74.90334" pt_clust_5="121.04980" pt_clust_6="33.83065"></scales>
<clustering>
<clus scale="   33.831">  2  6  1 -1</clus>
<clus scale="   74.903">  1  4  2 -1</clus>
<clus scale="  121.050">  1  5  2 -1</clus>
<clus scale="   74.903">  1  3  2 -1</clus>
</clustering>
</event>
<event>
 6    0  0.3584505E+002  0.2123598E+03  0.7546771E-02  0.1139711E+00
         21   -1    0    0  504  502  0.00000000000E+00  0.00000000000E+00  0.11277217172E+04  0.11277217172E+04  0.00000000000E+00 0. -1.
          1   -1    0    0  505    0 -0.00000000000E+00 -0.00000000000E+00 -0.22835041472E+03  0.22835041472E+03  0.00000000000E+00 0. -1.
         21    1    1    2  503  501  0.53668504962E+02  0.80634407472E+02  0.97156851216E+02  0.13719209099E+03  0.00000000000E+00 0. -1.
         21    1    1    2  504  503  0.39886200663E+02  0.19896842868E+03  0.75866775824E+03  0.78533821505E+03  0.00000000000E+00 0. -1.
         21    1    1    2  505  502 -0.61630494834E+02 -0.25815050733E+03  0.16068030955E+03  0.31025499868E+03  0.00000000000E+00 0. -1.
          1    1    1    2  501    0 -0.31924210791E+02 -0.21452328823E+02 -0.11713361651E+03  0.12328682721E+03  0.00000000000E+00 0. -1.
<scales pt_clust_3="90.32280" pt_clust_4="14000.00000" pt_clust_5="212.35984" pt_clust_6="38.46242"></scales>
<clustering>
<clus scale="   38.462">  2  6  1 -1</clus>
<clus scale="   90.323">  2  3  1 -1</clus>
<clus scale="  212.360">  2  5  1 -1</clus>
<clus scale="  212.360">  1  3  2 -1</clus>
</clustering>
</event>
<event>
 6    0  0.3584505E+002  0.1018925E+03  0.7546771E-02  0.1276366E+00
         21   -1    0    0  505  502  0.00000000000E+00  0.00000000000E+00  0.29827947224E+03  0.29827947224E+03  0.00000000000E+00 0. -1.
          1   -1    0    0  504    0 -0.00000000000E+00 -0.00000000000E+00 -0.56293366500E+03  0.56293366500E+03  0.00000000000E+00 0. -1.
         21    1    1    2  503  502 -0.38580844839E+02 -0.24270736702E+01  0.17648501269E+03  0.18066912292E+03  0.00000000000E+00 0. -1.
         21    1    1    2  504  503  0.56143895473E+02 -0.11966019736E+03 -0.24873139722E+03  0.28167003355E+03  0.00000000000E+00 0. -1.
         21    1    1    2  505  501 -0.11763284788E+02  0.30997321163E+02  0.93260449547E+02  0.98978382680E+02  0.00000000000E+00 0. -1.
          1    1    1    2  501    0 -0.57997658458E+01  0.91089949872E+02 -0.28566825778E+03  0.29989559809E+03  0.00000000000E+00 0. -1.
<scales pt_clust_3="54.96326" pt_clust_4="101.89253" pt_clust_5="33.15432" pt_clust_6="14000.00000"></scales>
<clustering>
<clus scale="   33.154">  1  5  2 -1</clus>
<clus scale="   54.963">  1  3  2 -1</clus>
<clus scale="  101.893">  1  4  2 -1</clus>
<clus scale="   33.154">  1  3  2 -1</clus>
</clustering>
</event>
<event>
 6    0  0.3584505E+002  0.1658878E+03  0.7546771E-02  0.1182205E+00
         -2   -1    0    0    0  501 -0.00000000000E+00  0.00000000000E+00  0.42275445107E+03  0.42275445107E+03  0.00000000000E+00 0. -1.
         21   -1    0    0  504  502  0.00000000000E+00 -0.00000000000E+00 -0.47943309414E+03  0.47943309414E+03  0.00000000000E+00 0.  1.
         21    1    1    2  503  502 -0.10407446639E+03  0.14409437835E+03 -0.37174640807E+03  0.41205591410E+03  0.00000000000E+00 0.  1.
         21    1    1    2  504  505  0.29635759877E+02  0.12075466539E+02 -0.89377106510E+01  0.33226161790E+02  0.00000000000E+00 0. -1.
         21    1    1    2  505  501  0.77074400824E+02 -0.12255925850E+03  0.14427374192E+02  0.14549702483E+03  0.00000000000E+00 0. -1.
         -2    1    1    2    0  503 -0.26356943072E+01 -0.33610586386E+02  0.30957810146E+03  0.31140844450E+03  0.00000000000E+00 0. -1.
<scales pt_clust_3="14000.00000" pt_clust_4="32.00149" pt_clust_5="165.88783" pt_clust_6="33.68516"></scales>
<clustering>
<clus scale="   32.001">  2  4  1 -1</clus>
<clus scale="   33.685">  1  6  2 -1</clus>
<clus scale="  165.888">  1  5  2 -1</clus>
<clus scale="   32.001">  2  3  1 -1</clus>
</clustering>
</event>
<event>
 6    0  0.3584505E+002  0.8418137E+02  0.7546771E-02  0.1317587E+00
         21   -1    0    0  501  502  0.00000000000E+00  0.00000000000E+00  0.17924684803E+03  0.17924684803E+03  0.00000000000E+00 0. -1.
          1   -1    0    0  505    0 -0.00000000000E+00 -0.00000000000E+00 -0.75690422575E+03  0.75690422575E+03  0.00000000000E+00 0. -1.
         21    1    1    2  503  502 -0.58135000166E+02  0.69031331109E+01  0.13206436943E+03  0.14445874555E+03  0.00000000000E+00 0. -1.
         21    1    1    2  504  503  0.11437215622E+03  0.37584019918E+02 -0.94822143578E+02  0.15324747171E+03  0.00000000000E+00 0. -1.
         21    1    1    2  505  504 -0.44901462981E+02 -0.52109211639E+01 -0.58749106243E+03  0.58922749725E+03  0.00000000000E+00 0. -1.
          1    1    1    2  501    0 -0.11335693076E+02 -0.39276231865E+02 -0.27408541142E+02  0.49217359280E+02  0.00000000000E+00 0. -1.
<scales pt_clust_3="14000.00000" pt_clust_4="84.18137" pt_clust_5="45.28466" pt_clust_6="40.87934"></scales>
<clustering>
<clus scale="   40.879">  1  6  2 -1</clus>
<clus scale="   45.285">  2  5  1 -1</clus>
<clus scale="   84.181">  2  4  1 -1</clus>
<clus scale="   40.879">  1  3  2 -1</clus>
</clustering>
</event>
<event>
 6    0  0.3584505E+002  0.1086825E+03  0.7546771E-02  0.1263029E+00
         21   -1    0    0  504  502  0.00000000000E+00  0.00000000000E+00  0.58415483103E+03  0.58415483103E+03  0.00000000000E+00 0.  1.
          1   -1    0    0  503    0 -0.00000000000E+00 -0.00000000000E+00 -0.49031018565E+03  0.49031018565E+03  0.00000000000E+00 0. -1.
         21    1    1    2  503  505  0.63313663175E+01  0.68496303057E+02 -0.11541727958E+03  0.13436137152E+03  0.00000000000E+00 0. -1.
         21    1    1    2  504  501 -0.65464213798E+02 -0.61684094043E+02  0.27494666601E+03  0.28928560264E+03  0.00000000000E+00 0.  1.
         21    1    1    2  505  502 -0.32167025368E+02  0.84020788103E+01  0.28560782008E+03  0.28753632699E+03  0.00000000000E+00 0.  1.
          1    1    1    2  501    0  0.91299872848E+02 -0.15214287824E+02 -0.35129256113E+03  0.36328171553E+03  0.00000000000E+00 0. -1.
<scales pt_clust_3="68.96826" pt_clust_4="108.68253" pt_clust_5="33.24624" pt_clust_6="14000.00000"></scales>
<clustering>
<clus scale="   33.246">  1  5  2 -1</clus>
<clus scale="   68.968">  2  3  1 -1</clus>
<clus scale="  108.683">  1  4  2 -1</clus>
<clus scale="   33.246">  1  3  2 -1</clus>
</clustering>
</event>
<event>
 6    0  0.3584505E+002  0.8012552E+02  0.7546771E-02  0.1328696E+00
         21   -1    0    0  504  502  0.00000000000E+00  0.00000000000E+00  0.25466621842E+03  0.25466621842E+03  0.00000000000E+00 0.  1.
          2   -1    0    0  503    0 -0.00000000000E+00 -0.00000000000E+00 -0.13443048185E+04  0.13443048185E+04  0.00000000000E+00 0.  1.
         21    1    1    2  503  505 -0.88244668075E+02 -0.78435158407E+01 -0.22920393566E+02  0.91509489266E+02  0.00000000000E+00 0.  1.
         21    1    1    2  504  501  0.32935617276E+02 -0.34722333327E+01 -0.20119847082E+02  0.38750735945E+02  0.00000000000E+00 0.  1.
         21    1    1    2  505  502 -0.15099715730E+02  0.50032771435E+02  0.20651437792E+03  0.21302457116E+03  0.00000000000E+00 0.  1.
          2    1    1    2  501    0  0.70408766529E+02 -0.38717022262E+02 -0.12531127373E+04  0.12556862405E+04  0.00000000000E+00 0.  1.
<scales pt_clust_3="14000.00000" pt_clust_4="33.11814" pt_clust_5="48.84239" pt_clust_6="80.12552"></scales>
<clustering>
<clus scale="   33.118">  1  4  2 -1</clus>
<clus scale="   48.842">  1  5  2 -1</clus>
<clus scale="   80.126">  2  6  1 -1</clus>
<clus scale="   33.118">  1  3  2 -1</clus>
</clustering>
</event>
<event>
 6    0  0.3584505E+002  0.1706677E+03  0.7546771E-02  0.1177153E+00
          2   -1    0    0  504    0 -0.00000000000E+00  0.00000000000E+00  0.14895378736E+04  0.14895378736E+04  0.00000000000E+00 0. -1.
         21   -1    0    0  503  502  0.00000000000E+00 -0.00000000000E+00 -0.13619308121E+03  0.13619308121E+03  0.00000000000E+00 0.  1.
         21    1    1    2  503  501  0.20629237824E+02  0.14712812661E+03  0.17885149915E+03  0.23250830058E+03  0.00000000000E+00 0.  1.
         21    1    1    2  504  505  0.60903848786E+02 -0.20245004807E+03  0.27043824405E+03  0.34326687083E+03  0.00000000000E+00 0.  1.
         21    1    1    2  505  502 -0.33696392820E+02  0.18589931975E+01 -0.67652987412E+02  0.75603104768E+02  0.00000000000E+00 0.  1.
          2    1    1    2  501    0 -0.47836693789E+02  0.53462928262E+02  0.97170803663E+03  0.97435267866E+03  0.00000000000E+00 0. -1.
<scales pt_clust_3="170.66767" pt_clust_4="14000.00000" pt_clust_5="33.74763" pt_clust_6="72.23025"></scales>
<clustering>
<clus scale="   33.748">  2  5  1 -1</clus>
<clus scale="   72.230">  1  6  2 -1</clus>
<clus scale="  170.668">  2  3  1 -1</clus>
<clus scale="   33.748">  2  3  1 -1</clus>
</clustering>
</event>
<event>
 6    0  0.3584505E+002  0.1543054E+03  0.7546771E-02  0.1195280E+00
          2   -1    0    0  503    0 -0.00000000000E+00  0.00000000000E+00  0.50984534180E+03  0.50984534180E+03  0.00000000000E+00 0.  1.
         21   -1    0    0  504  502  0.00000000000E+00 -0.00000000000E+00 -0.20775208998E+03  0.20775208998E+03  0.00000000000E+00 0. -1.
         21    1    1    2  503  502  0.26256155994E+02 -0.19211207155E+02  0.20013764169E+03  0.20276472038E+03  0.00000000000E+00 0.  1.
         21    1    1    2  504  505 -0.16217656636E+03 -0.13254897640E+02 -0.13506991967E+03  0.21147296325E+03  0.00000000000E+00 0. -1.
         21    1    1    2  505  501  0.12472026160E+03 -0.16859205427E+02  0.11193723145E+03  0.16843194544E+03  0.00000000000E+00 0.  1.
          2    1    1    2  501    0  0.11200148767E+02  0.49325310222E+02  0.12508829835E+03  0.13492780271E+03  0.00000000000E+00 0.  1.
<scales pt_clust_3="32.53392" pt_clust_4="154.30544" pt_clust_5="14000.00000" pt_clust_6="46.85646"></scales>
<clustering>
<clus scale="   32.534">  1  3  2 -1</clus>
<clus scale="   46.856">  1  6  2 -1</clus>
<clus scale="  154.305">  2  4  1 -1</clus>
<clus scale="  154.305">  2  3  1 -1</clus>
</clustering>
</event>
<event>
 6    0  0.3584505E+002  0.9569578E+02  0.7546771E-02  0.1289617E+00
          2   -1    0    0  503    0 -0.00000000000E+00  0.00000000000E+00  0.20293977326E+04  0.20293977326E+04  0.00000000000E+00 0.  1.
         21   -1    0    0  505  502  0.00000000000E+00 -0.00000000000E+00 -0.17551089106E+03  0.17551089106E+03  0.00000000000E+00 0.  1.
         21    1    1    2  503  504 -0.86960957591E+02 -0.37461279210E+01  0.63622681130E+03  0.64215325042E+03  0.00000000000E+00 0.  1.
         21    1    1    2  504  502  0.12518829132E+03  0.12088669302E+02  0.69321941643E+02  0.14360980399E+03  0.00000000000E+00 0.  1.
         21    1    1    2  505  501 -0.36764628967E+02 -0.49959498565E+02 -0.12794236866E+03  0.14218593158E+03  0.00000000000E+00 0.  1.
          2    1    1    2  501    0 -0.14627047599E+01  0.41616957184E+02  0.12762804573E+04  0.12769596377E+04  0.00000000000E+00 0.  1.
<scales pt_clust_3="14000.00000" pt_clust_4="95.69578" pt_clust_5="61.72051" pt_clust_6="41.64265"></scales>
<clustering>
<clus scale="   41.643">  1  6  2 -1</clus>
<clus scale="   61.721">  2  5  1 -1</clus>
<clus scale="   95.696">  2  4  1 -1</clus>
<clus scale="   61.721">  2  3  1 -1</clus>
</clustering>
</event>
<event>
 6    0  0.3584505E+002  0.7528015E+02  0.7546771E-02  0.1343006E+00
          1   -1    0    0  503    0 -0.00000000000E+00  0.00000000000E+00  0.21020872811E+04  0.21020872811E+04  0.00000000000E+00 0. -1.
         21   -1    0    0  504  502  0.00000000000E+00 -0.00000000000E+00 -0.46563537847E+02  0.46563537847E+02  0.00000000000E+00 0. -1.
         21    1    1    2  503  502 -0.14255565407E+02  0.10326484236E+03  0.16944239866E+03  0.19894113521E+03  0.00000000000E+00 0. -1.
         21    1    1    2  504  505 -0.39836575324E+02 -0.61043673671E+02  0.16595010978E+02  0.74757455937E+02  0.00000000000E+00 0. -1.
         21    1    1    2  505  501  0.66558936868E+02  0.30449201949E+01  0.47222903744E+03  0.47690630884E+03  0.00000000000E+00 0. -1.
          1    1    1    2  501    0 -0.12466796136E+02 -0.45266088882E+02  0.13972572962E+04  0.13980459190E+04  0.00000000000E+00 0. -1.
<scales pt_clust_3="14000.00000" pt_clust_4="75.28015" pt_clust_5="64.31272" pt_clust_6="46.95146"></scales>
<clustering>
<clus scale="   46.951">  1  6  2 -1</clus>
<clus scale="   64.313">  1  5  2 -1</clus>
<clus scale="   75.280">  2  4  1 -1</clus>
<clus scale="   75.280">  2  3  1 -1</clus>
</clustering>
</event>
<event>
 6    0  0.3584505E+002  0.8439311E+02  0.7546771E-02  0.1317027E+00
         21   -1    0    0  504  502  0.00000000000E+00  0.00000000000E+00  0.13585578335E+03  0.13585578335E+03  0.00000000000E+00 0. -1.
          1   -1    0    0  505    0 -0.00000000000E+00 -0.00000000000E+00 -0.26753539580E+04  0.26753539580E+04  0.00000000000E+00 0. -1.
         21    1    1    2  503  501 -0.61015789465E+02 -0.10024225486E+03  0.31170834078E+01  0.11739315326E+03  0.00000000000E+00 0. -1.
         21    1    1    2  504  503  0.60978936548E+02  0.24128433336E+02  0.50630551322E+02  0.82849651327E+02  0.00000000000E+00 0. -1.
         21    1    1    2  505  502 -0.11678269426E+01  0.30429859561E+02 -0.18119690659E+02  0.35435340583E+02  0.00000000000E+00 0. -1.
          1    1    1    2  501    0  0.12046798597E+01  0.45683961962E+02 -0.25751261187E+04  0.25755315962E+04  0.00000000000E+00 0. -1.
<scales pt_clust_3="84.39311" pt_clust_4="14000.00000" pt_clust_5="30.45226" pt_clust_6="45.74828"></scales>
<clustering>
<clus scale="   30.452">  1  5  2 -1</clus>
<clus scale="   45.748">  2  6  1 -1</clus>
<clus scale="   84.393">  2  3  1 -1</clus>
<clus scale="   30.452">  1  3  2 -1</clus>
</clustering>
</event>
<event>
 6    0  0.3584505E+002  0.1085574E+03  0.7546771E-02  0.1263265E+00
         21   -1    0    0  503  502  0.00000000000E+00  0.00000000000E+00  0.61815087826E+02  0.61815087826E+02  0.00000000000E+00 0.  1.
         -3   -1    0    0    0  501 -0.00000000000E+00 -0.00000000000E+00 -0.99781267852E+03  0.99781267852E+03  0.00000000000E+00 0. -1.
         21    1    1    2  503  501 -0.11483123848E+03  0.83557627731E+02 -0.10757335383E+03  0.17815756211E+03  0.00000000000E+00 0.  1.
         21    1    1    2  504  502  0.41194647577E+02 -0.18327182047E+02 -0.97066401729E+01  0.46120531808E+02  0.00000000000E+00 0. -1.
         21    1    1    2  505  504  0.24413217468E+02 -0.28474654531E+02 -0.42415021739E+02  0.56620183741E+02  0.00000000000E+00 0. -1.
         -3    1    1    2    0  505  0.49223373432E+02 -0.36755791153E+02 -0.77630257495E+03  0.77872948868E+03  0.00000000000E+00 0. -1.
<scales pt_clust_3="102.17891" pt_clust_4="33.43952" pt_clust_5="33.43952" pt_clust_6="61.43231"></scales>
<clustering>
<clus scale="   33.440">  4  5 -1 -1</clus>
<clus scale="   61.432">  2  6  1 -1</clus>
<clus scale="  102.179">  2  3  1 -1</clus>
<clus scale="  108.557">  1  3  2 -1</clus>
</clustering>
</event>
<event>
 6    0  0.3584505E+002  0.6161457E+02  0.7546771E-02  0.1391178E+00
         21   -1    0    0  503  502  0.00000000000E+00  0.00000000000E+00  0.92977476904E+03  0.92977476904E+03  0.00000000000E+00 0.  1.
          1   -1    0    0  504    0 -0.00000000000E+00 -0.00000000000E+00 -0.57045201259E+02  0.57045201259E+02  0.00000000000E+00 0. -1.
         21    1    1    2  503  505 -0.11025781338E+02 -0.44684839031E+02  0.25050705710E+03  0.25469999676E+03  0.00000000000E+00 0.  1.
         21    1    1    2  504  502  0.52381890869E+02 -0.65687185067E+02  0.20944013500E+03  0.22566310935E+03  0.00000000000E+00 0.  1.
         21    1    1    2  505  501 -0.35128071855E+02  0.59345718005E+02  0.44198722024E+03  0.44733499587E+03  0.00000000000E+00 0.  1.
          1    1    1    2  501    0 -0.62280376759E+01  0.51026306094E+02 -0.29204844560E+02  0.59121868312E+02  0.00000000000E+00 0. -1.
<scales pt_clust_3="46.02502" pt_clust_4="14000.00000" pt_clust_5="61.61457" pt_clust_6="50.45598"></scales>
<clustering>
<clus scale="   46.025">  1  3  2 -1</clus>
<clus scale="   50.456">  2  6  1 -1</clus>
<clus scale="   61.615">  1  5  2 -1</clus>
<clus scale="   46.025">  1  3  2 -1</clus>
</clustering>
</event>
<event>
 6    0  0.3584505E+002  0.1617997E+03  0.7546771E-02  0.1186680E+00
         21   -1    0    0  503  502  0.00000000000E+00  0.00000000000E+00  0.79928523784E+03  0.79928523784E+03  0.00000000000E+00 0.  1.
         -1   -1    0    0    0  501 -0.00000000000E+00 -0.00000000000E+00 -0.14671982562E+03  0.14671982562E+03  0.00000000000E+00 0.  1.
         21    1    1    2  503  505 -0.47436653784E+02 -0.12477589765E+03  0.55520472878E+03  0.57102675211E+03  0.00000000000E+00 0.  1.
         21    1    1    2  504  502 -0.65000299983E+02 -0.13796913509E+02  0.11720501791E+03  0.13473088006E+03  0.00000000000E+00 0.  1.
         21    1    1    2  505  501  0.61197382426E+02  0.13739797218E+03  0.45554645910E+02  0.15715771741E+03  0.00000000000E+00 0.  1.
         -1    1    1    2    0  504  0.51239571342E+02  0.11748389727E+01 -0.65398980385E+02  0.83089713884E+02  0.00000000000E+00 0.  1.
<scales pt_clust_3="14000.00000" pt_clust_4="60.36954" pt_clust_5="161.79968" pt_clust_6="51.25304"></scales>
<clustering>
<clus scale="   51.253">  2  6  1 -1</clus>
<clus scale="   60.370">  1  4  2 -1</clus>
<clus scale="  161.800">  2  5  1 -1</clus>
<clus scale="   60.370">  1  3  2 -1</clus>
</clustering>
</event>
<event>
 6    0  0.3584505E+002  0.8762728E+02  0.7546771E-02  0.1308701E+00
         21   -1    0    0  504  502  0.00000000000E+00  0.00000000000E+00  0.88905817931E+03  0.88905817931E+03  0.00000000000E+00 0. -1.
         -1   -1    0    0    0  501 -0.00000000000E+00 -0.00000000000E+00 -0.19165273786E+03  0.19165273786E+03  0.00000000000E+00 0.  1.
         21    1    1    2  503  501 -0.36944542352E+02 -0.10777461701E+03 -0.36256340507E+02  0.11956081928E+03  0.00000000000E+00 0.  1.
         21    1    1    2  504  503 -0.20905613362E+02  0.23331688476E+02  0.58939247441E+03  0.59022444990E+03  0.00000000000E+00 0. -1.
         21    1    1    2  505  502 -0.21789552474E+02  0.60712533078E+02  0.23746006826E+03  0.24606519520E+03  0.00000000000E+00 0.  1.
         -1    1    1    2    0  505  0.79639708188E+02  0.23730395452E+02 -0.93190760714E+02  0.12486045279E+03  0.00000000000E+00 0.  1.
<scales pt_clust_3="87.62728" pt_clust_4="31.32750" pt_clust_5="14000.00000" pt_clust_6="82.40606"></scales>
<clustering>
<clus scale="   31.328">  1  4  2 -1</clus>
<clus scale="   82.406">  2  6  1 -1</clus>
<clus scale="   87.627">  2  3  1 -1</clus>
<clus scale="   31.328">  1  3  2 -1</clus>
</clustering>
</event>
<event>
 6    0  0.3584505E+002  0.1046719E+03  0.7546771E-02  0.1270767E+00
         21   -1    0    0  505  502  0.00000000000E+00  0.00000000000E+00  0.22393226601E+03  0.22393226601E+03  0.00000000000E+00 0.  1.
          1   -1    0    0  503    0 -0.00000000000E+00 -0.00000000000E+00 -0.14268706031E+04  0.14268706031E+04  0.00000000000E+00 0. -1.
         21    1    1    2  503  502 -0.54750974501E+02 -0.77682788830E+02 -0.28578428167E+03  0.30117260921E+03  0.00000000000E+00 0. -1.
         21    1    1    2  504  501  0.50799290510E+02  0.13791724674E+02 -0.13591510801E+03  0.14575217381E+03  0.00000000000E+00 0.  1.
         21    1    1    2  505  504 -0.63532289723E+01  0.10582916197E+03  0.19751579910E+03  0.22417106400E+03  0.00000000000E+00 0.  1.
          1    1    1    2  501    0  0.10304912963E+02 -0.41938097814E+02 -0.97875474654E+03  0.97970702210E+03  0.00000000000E+00 0. -1.
<scales pt_clust_3="14000.00000" pt_clust_4="54.04466" pt_clust_5="104.67186" pt_clust_6="43.18559"></scales>
<clustering>
<clus scale="   43.186">  2  6  1 -1</clus>
<clus scale="   54.045">  2  4  1 -1</clus>
<clus scale="  104.672">  1  5  2 -1</clus>
<clus scale="  104.672">  1  3  2 -1</clus>
</clustering>
</event>
<event>
 6    0  0.3584505E+002  0.1205822E+03  0.7546771E-02  0.1242140E+00
          2   -1    0    0  504    0 -0.00000000000E+00  0.00000000000E+00  0.21174007047E+04  0.21174007047E+04  0.00000000000E+00 0.  1.
         21   -1    0    0  503  502  0.00000000000E+00 -0.00000000000E+00 -0.15597878282E+03  0.15597878282E+03  0.00000000000E+00 0.  1.
         21    1    1    2  503  501  0.62353898906E+02  0.25228430468E+01  0.87334503608E+01  0.63013066907E+02  0.00000000000E+00 0.  1.
         21    1    1    2  504  505 -0.10843773962E+03 -0.20413449816E+02  0.20198353421E+03  0.23015820732E+03  0.00000000000E+00 0.  1.
         21    1    1    2  505  502  0.71877462293E+02 -0.19530881194E+01 -0.10333095004E+03  0.12588673233E+03  0.00000000000E+00 0.  1.
          2    1    1    2  501    0 -0.25793621581E+02  0.19843694888E+02  0.18540358874E+04  0.18543214810E+04  0.00000000000E+00 0.  1.
<scales pt_clust_3="59.07035" pt_clust_4="120.58216" pt_clust_5="14000.00000" pt_clust_6="32.54356"></scales>
<clustering>
<clus scale="   32.544">  1  6  2 -1</clus>
<clus scale="   59.070">  2  3  1 -1</clus>
<clus scale="  120.582">  1  4  2 -1</clus>
<clus scale="   59.070">  2  3  1 -1</clus>
</clustering>
</event>
<event>
 6    0  0.3584505E+002  0.2937229E+03  0.7546771E-02  0.1088421E+00
         21   -1    0    0  503  502  0.00000000000E+00  0.00000000000E+00  0.21642280271E+03  0.21642280271E+03  0.00000000000E+00 0.  1.
          2   -1    0    0  505    0 -0.00000000000E+00 -0.00000000000E+00 -0.25254117440E+04  0.25254117440E+04  0.00000000000E+00 0.  1.
         21    1    1    2  503  504  0.39320251088E+02  0.14969214019E+03 -0.21007973042E+03  0.26093545583E+03  0.00000000000E+00 0. -1.
         21    1    1    2  504  501 -0.20924832137E+02  0.12190846925E+03 -0.19844771891E+03  0.23383973276E+03  0.00000000000E+00 0. -1.
         21    1    1    2  505  502 -0.64297276487E+02 -0.28479233196E+03  0.49830908465E+02  0.29618226069E+03  0.00000000000E+00 0.  1.
          2    1    1    2  501    0  0.45901857536E+02  0.13191722524E+02 -0.19502924004E+04  0.19508770974E+04  0.00000000000E+00 0.  1.
<scales pt_clust_3="53.98002" pt_clust_4="53.98002" pt_clust_5="287.17697" pt_clust_6="47.75984"></scales>
<clustering>
<clus scale="   47.760">  2  6  1 -1</clus>
<clus scale="   53.980">  3  4 -1 -1</clus>
<clus scale="  287.177">  1  5  2 -1</clus>
<clus scale="  287.177">  1  3  2 -1</clus>
</clustering>
</event>
<event>
 6    0  0.3584505E+002  0.6536846E+02  0.7546771E-02  0.1376591E+00
          1   -1    0    0  504    0 -0.00000000000E+00  0.00000000000E+00  0.12488908307E+04  0.12488908307E+04  0.00000000000E+00 0. -1.
         21   -1    0    0  503  502  0.00000000000E+00 -0.00000000000E+00 -0.26589263694E+04  0.26589263694E+04  0.00000000000E+00 0.  1.
         21    1    1    2  503  501  0.53942366861E+02 -0.28820403517E+02 -0.14552360807E+04  0.14565206642E+04  0.00000000000E+00 0.  1.
         21    1    1    2  504  505  0.47587941660E+01  0.63580794487E+02  0.48678634341E+02  0.80217036786E+02  0.00000000000E+00 0.  1.
         21    1    1    2  505  502 -0.89431482808E+02 -0.19661170331E+02 -0.11852649799E+04  0.11887967128E+04  0.00000000000E+00 0.  1.
          1    1    1    2  501    0  0.30730321781E+02 -0.15099220638E+02  0.11817868876E+04  0.11822827863E+04  0.00000000000E+00 0. -1.
<scales pt_clust_3="65.36846" pt_clust_4="59.88014" pt_clust_5="14000.00000" pt_clust_6="34.23944"></scales>
<clustering>
<clus scale="   34.239">  1  6  2 -1</clus>
<clus scale="   59.880">  1  4  2 -1</clus>
<clus scale="   65.368">  2  3  1 -1</clus>
<clus scale="   65.368">  2  3  1 -1</clus>
</clustering>
</event>
<event>
 6    0  0.3584505E+002  0.1899986E+03  0.7546771E-02  0.1158463E+00
         21   -1    0    0  504  502  0.00000000000E+00  0.00000000000E+00  0.19234142061E+04  0.19234142061E+04  0.00000000000E+00 0.  1.
          1   -1    0    0  505    0 -0.00000000000E+00 -0.00000000000E+00 -0.13801882506E+04  0.13801882506E+04  0.00000000000E+00 0.  1.
         21    1    1    2  503  502 -0.26371307701E+02 -0.49985517646E+02  0.15415183496E+04  0.15425539925E+04  0.00000000000E+00 0.  1.
         21    1    1    2  504  501  0.16927915027E+03 -0.40325801100E+02  0.30788166310E+03  0.35365621643E+03  0.00000000000E+00 0.  1.
         21    1    1    2  505  503 -0.25627162830E+02 -0.60580553082E+02  0.19032685615E+02  0.68476258719E+02  0.00000000000E+00 0.  1.
          1    1    1    2  501    0 -0.11728067973E+03  0.15089187183E+03 -0.13252067428E+04  0.13389159891E+04  0.00000000000E+00 0.  1.
<scales pt_clust_3="56.51547" pt_clust_4="14000.00000" pt_clust_5="72.24049" pt_clust_6="189.99858"></scales>
<clustering>
<clus scale="   56.515">  1  3  2 -1</clus>
<clus scale="   72.240">  1  5  2 -1</clus>
<clus scale="  189.999">  2  6  1 -1</clus>
<clus scale="   56.515">  1  3  2 -1</clus>
</clustering>
</event>
<event>
 6    0  0.3584505E+002  0.2011037E+03  0.7546771E-02  0.1148811E+00
          1   -1    0    0  502    0 -0.00000000000E+00  0.00000000000E+00  0.14633743451E+04  0.14633743451E+04  0.00000000000E+00 0.  1.
         21   -1    0    0  503  502  0.00000000000E+00 -0.00000000000E+00 -0.13966696914E+03  0.13966696914E+03  0.00000000000E+00 0. -1.
         21    1    1    2  503  505  0.18984529975E+02 -0.42372899484E+02 -0.53180703543E+02  0.70597891033E+02  0.00000000000E+00 0.  1.
         21    1    1    2  504  501 -0.16664713456E+02  0.12271214361E+03  0.69224307198E+03  0.70323285870E+03  0.00000000000E+00 0.  1.
         21    1    1    2  505  504  0.19426048341E+02 -0.15435963422E+03  0.16301335622E+02  0.15642890261E+03  0.00000000000E+00 0. -1.
          1    1    1    2  501    0 -0.21745864861E+02  0.74020390091E+02  0.66834367195E+03  0.67278166192E+03  0.00000000000E+00 0.  1.
<scales pt_clust_3="46.43140" pt_clust_4="35.65465" pt_clust_5="195.96452" pt_clust_6="35.65465"></scales>
<clustering>
<clus scale="   35.655">  4  6 -1 -1</clus>
<clus scale="   46.431">  2  3  1 -1</clus>
<clus scale="  195.965">  2  5  1 -1</clus>
<clus scale="   46.431">  2  3  1 -1</clus>
</clustering>
</event>
<event>
 6    0  0.3584505E+002  0.1063355E+03  0.7546771E-02  0.1267510E+00
         -2   -1    0    0    0  501 -0.00000000000E+00  0.00000000000E+00  0.10508822153E+04  0.10508822153E+04  0.00000000000E+00 0.  1.
         21   -1    0    0  503  502  0.00000000000E+00 -0.00000000000E+00 -0.22648318557E+03  0.22648318557E+03  0.00000000000E+00 0.  1.
         21    1    1    2  503  501  0.71702426875E+02 -0.96247966509E+02  0.14994767398E+03  0.19206565026E+03  0.00000000000E+00 0.  1.
         21    1    1    2  504  505 -0.25864736727E+02  0.78250045207E+02  0.26694727780E+03  0.27937949693E+03  0.00000000000E+00 0.  1.
         21    1    1    2  505  502  0.32167516844E+02  0.46458322230E+01 -0.19527850795E+03  0.19796471545E+03  0.00000000000E+00 0.  1.
         -2    1    1    2    0  504 -0.78005206991E+02  0.13352089079E+02  0.60278258586E+03  0.60795553820E+03  0.00000000000E+00 0.  1.
<scales pt_clust_3="14000.00000" pt_clust_4="106.33551" pt_clust_5="32.50128" pt_clust_6="76.46623"></scales>
<clustering>
<clus scale="   32.501">  2  5  1 -1</clus>
<clus scale="   76.466">  1  6  2 -1</clus>
<clus scale="  106.336">  1  4  2 -1</clus>
<clus scale="   32.501">  2  3  1 -1</clus>
</clustering>
</event>
<event>
 6    0  0.3584505E+002  0.9910448E+02  0.7546771E-02  0.1282190E+00
          2   -1    0    0  504    0 -0.00000000000E+00  0.00000000000E+00  0.16499053757E+04  0.16499053757E+04  0.00000000000E+00 0.  1.
         21   -1    0    0  503  502  0.00000000000E+00 -0.00000000000E+00 -0.33681431513E+02  0.33681431513E+02  0.00000000000E+00 0. -1.
         21    1    1    2  503  501 -0.26041447254E+02  0.17895123089E+02 -0.40228316375E+01  0.31852403047E+02  0.00000000000E+00 0. -1.
         21    1    1    2  504  505 -0.41831263532E+02 -0.29415030213E+02  0.26161407028E+03  0.26656522725E+03  0.00000000000E+00 0. -1.
         21    1    1    2  505  502  0.60570339704E+02  0.85102370769E+02  0.21382025125E+03  0.23797117348E+03  0.00000000000E+00 0. -1.
          2    1    1    2  501    0  0.73023710821E+01 -0.73582463645E+02  0.11448124542E+04  0.11471980034E+04  0.00000000000E+00 0.  1.
<scales pt_clust_3="31.59735" pt_clust_4="53.07377" pt_clust_5="14000.00000" pt_clust_6="99.10448"></scales>
<clustering>
<clus scale="   31.597">  2  3  1 -1</clus>
<clus scale="   53.074">  1  4  2 -1</clus>
<clus scale="   99.104">  1  6  2 -1</clus>
<clus scale="   31.597">  2  3  1 -1</clus>
</clustering>
</event>
<event>
 6    0  0.3584505E+002  0.7670509E+02  0.7546771E-02  0.1338671E+00
         21   -1    0    0  505  502  0.00000000000E+00  0.00000000000E+00  0.39920930127E+03  0.39920930127E+03  0.00000000000E+00 0.  1.
         -1   -1    0    0    0  501 -0.00000000000E+00 -0.00000000000E+00 -0.29265540109E+04  0.29265540109E+04  0.00000000000E+00 0. -1.
         21    1    1    2  503  501  0.65287483392E+02  0.89931884634E+02  0.20343597170E+03  0.23181111696E+03  0.00000000000E+00 0.  1.
         21    1    1    2  504  502 -0.44094221614E+02 -0.45910081606E+02 -0.50878145487E+02  0.81490009578E+02  0.00000000000E+00 0.  1.
         21    1    1    2  505  503 -0.37620162883E+02  0.30910333753E+02  0.16218679362E+03  0.16933777315E+03  0.00000000000E+00 0.  1.
         -1    1    1    2    0  504  0.16426901106E+02 -0.74932136781E+02 -0.28420893295E+04  0.28431244125E+04  0.00000000000E+00 0. -1.
<scales pt_clust_3="76.70509" pt_clust_4="63.98174" pt_clust_5="48.69010" pt_clust_6="14000.00000"></scales>
<clustering>
<clus scale="   48.690">  1  5  2 -1</clus>
<clus scale="   63.982">  1  4  2 -1</clus>
<clus scale="   76.705">  1  3  2 -1</clus>
<clus scale="   48.690">  1  3  2 -1</clus>
</clustering>
</event>
<event>
 6    0  0.3584505E+002  0.1136816E+03  0.7546771E-02  0.1253900E+00
         -1   -1    0    0    0  501 -0.00000000000E+00  0.00000000000E+00  0.10206390024E+03  0.10206390024E+03  0.00000000000E+00 0.  1.
         21   -1    0    0  503  502  0.00000000000E+00 -0.00000000000E+00 -0.19088126783E+04  0.19088126783E+04  0.00000000000E+00 0.  1.
         21    1    1    2  503  505 -0.18669765688E+02  0.10160771984E+03 -0.80393165212E+03  0.81054228154E+03  0.00000000000E+00 0.  1.
         21    1    1    2  504  502  0.89595236507E+02 -0.41057332277E+01 -0.90564791063E+03  0.91007818427E+03  0.00000000000E+00 0.  1.
         21    1    1    2  505  501 -0.81573802581E+02  0.46727994476E+02  0.28950106969E+02  0.98366149812E+02  0.00000000000E+00 0.  1.
         -1    1    1    2    0  504  0.10648331763E+02 -0.14422998109E+03 -0.12611932225E+03  0.19188996289E+03  0.00000000000E+00 0.  1.
<scales pt_clust_3="113.68162" pt_clust_4="89.68926" pt_clust_5="91.25406" pt_clust_6="14000.00000"></scales>
<clustering>
<clus scale="   89.689">  2  4  1 -1</clus>
<clus scale="   91.254">  1  5  2 -1</clus>
<clus scale="  113.682">  2  3  1 -1</clus>
<clus scale="   89.689">  2  3  1 -1</clus>
</clustering>
</event>
<event>
 6    0  0.3584505E+002  0.1109555E+03  0.7546771E-02  0.1258811E+00
         21   -1    0    0  505  502  0.00000000000E+00  0.00000000000E+00  0.68906572377E+02  0.68906572377E+02  0.00000000000E+00 0. -1.
          2   -1    0    0  504    0 -0.00000000000E+00 -0.00000000000E+00 -0.26891267194E+04  0.26891267194E+04  0.00000000000E+00 0.  1.
         21    1    1    2  503  502  0.81088521054E+02  0.58298016395E+02 -0.25275148857E+02  0.10301863963E+03  0.00000000000E+00 0. -1.
         21    1    1    2  504  503  0.27785704657E+02  0.18044282356E+02 -0.40291495221E+03  0.40427478307E+03  0.00000000000E+00 0. -1.
         21    1    1    2  505  501 -0.95656647389E+02 -0.10740732254E+03 -0.14780095904E+03  0.20623203102E+03  0.00000000000E+00 0. -1.
          2    1    1    2  501    0 -0.13217578322E+02  0.31065023793E+02 -0.20442290869E+04  0.20445078380E+04  0.00000000000E+00 0.  1.
<scales pt_clust_3="14000.00000" pt_clust_4="33.13067" pt_clust_5="110.95551" pt_clust_6="48.61836"></scales>
<clustering>
<clus scale="   33.131">  2  4  1 -1</clus>
<clus scale="   48.618">  2  6  1 -1</clus>
<clus scale="  110.956">  2  5  1 -1</clus>
<clus scale="  110.956">  1  3  2 -1</clus>
</clustering>
</event>
<event>
 6    0  0.3584505E+002  0.1920502E+03  0.7546771E-02  0.1156625E+00
         21   -1    0    0  504  502  0.00000000000E+00  0.00000000000E+00  0.27123516161E+03  0.27123516161E+03  0.00000000000E+00 0. -1.
          2   -1    0    0  503    0 -0.00000000000E+00 -0.00000000000E+00 -0.12003156640E+04  0.12003156640E+04  0.00000000000E+00 0.  1.
         21    1    1    2  503  502  0.85035944666E+02  0.14784414638E+03 -0.18600661088E+03  0.25236375095E+03  0.00000000000E+00 0.  1.
         21    1    1    2  504  505 -0.54210703145E+02 -0.63585242148E+02  0.10698657588E+03  0.13574980948E+03  0.00000000000E+00 0. -1.
         21    1    1    2  505  501 -0.17051917633E+03 -0.58992810028E+02  0.37755573670E+02  0.18434322465E+03  0.00000000000E+00 0. -1.
          2    1    1    2  501    0  0.13969393480E+03 -0.25266094209E+02 -0.88781604111E+03  0.89909404057E+03  0.00000000000E+00 0.  1.
<scales pt_clust_3="14000.00000" pt_clust_4="83.55766" pt_clust_5="192.05022" pt_clust_6="140.40537"></scales>
<clustering>
<clus scale="   83.558">  1  4  2 -1</clus>
<clus scale="  140.405">  2  6  1 -1</clus>
<clus scale="  192.050">  1  5  2 -1</clus>
<clus scale="   83.558">  1  3  2 -1</clus>
</clustering>
</event>
<event>
 6    0  0.3584505E+002  0.1279962E+03  0.7546771E-02  0.1230460E+00
         -1   -1    0    0    0  501 -0.00000000000E+00  0.00000000000E+00  0.20441326171E+03  0.20441326171E+03  0.00000000000E+00 0.  1.
         21   -1    0    0  505  502  0.00000000000E+00 -0.00000000000E+00 -0.12233590089E+04  0.12233590089E+04  0.00000000000E+00 0.  1.
         21    1    1    2  503  502 -0.31428092380E+02  0.34336873571E+01 -0.35215137047E+02  0.47324634988E+02  0.00000000000E+00 0.  1.
         21    1    1    2  504  501 -0.78861344248E+02  0.10905594808E+03 -0.34056230084E+03  0.36618983080E+03  0.00000000000E+00 0.  1.
         21    1    1    2  505  504  0.67076474282E+02 -0.11635277156E+03 -0.82064147896E+03  0.83155857150E+03  0.00000000000E+00 0.  1.
         -1    1    1    2    0  503  0.43212962345E+02  0.38631361221E+01  0.17747316962E+03  0.18269923336E+03  0.00000000000E+00 0.  1.
<scales pt_clust_3="31.61511" pt_clust_4="127.99619" pt_clust_5="14000.00000" pt_clust_6="43.31678"></scales>
<clustering>
<clus scale="   31.615">  2  3  1 -1</clus>
<clus scale="   43.317">  1  6  2 -1</clus>
<clus scale="  127.996">  1  4  2 -1</clus>
<clus scale="   31.615">  2  3  1 -1</clus>
</clustering>
</event>
<event>
 6    0  0.3584505E+002  0.1735679E+03  0.7546771E-02  0.1174177E+00
         21   -1    0    0  505  502  0.00000000000E+00  0.00000000000E+00  0.63817633978E+03  0.63817633978E+03  0.00000000000E+00 0.  1.
          2   -1    0    0  504    0 -0.00000000000E+00 -0.00000000000E+00 -0.14358765316E+04  0.14358765316E+04  0.00000000000E+00 0.  1.
         21    1    1    2  503  501  0.37939719690E+02  0.31186038857E+02 -0.20527916054E+03  0.21107232197E+03  0.00000000000E+00 0.  1.
         21    1    1    2  504  502  0.14163791905E+03 -0.10265042314E+03  0.58052588669E+03  0.60630744231E+03  0.00000000000E+00 0.  1.
         21    1    1    2  505  503 -0.17186156424E+03  0.23809198578E+02 -0.14092949220E+03  0.22352717278E+03  0.00000000000E+00 0.  1.
          2    1    1    2  501    0 -0.77160745014E+01  0.47655185707E+02 -0.10320174258E+04  0.10331459344E+04  0.00000000000E+00 0.  1.
<scales pt_clust_3="65.30723" pt_clust_4="14000.00000" pt_clust_5="173.56786" pt_clust_6="48.27582"></scales>
<clustering>
<clus scale="   48.276">  2  6  1 -1</clus>
<clus scale="   65.307">  2  3  1 -1</clus>
<clus scale="  173.568">  2  5  1 -1</clus>
<clus scale="  173.568">  1  3  2 -1</clus>
</clustering>
</event>
<event>
 6    0  0.3584505E+002  0.1169754E+03  0.7546771E-02  0.1248172E+00
         21   -1    0    0  505  502  0.00000000000E+00  0.00000000000E+00  0.15469899961E+04  0.15469899961E+04  0.00000000000E+00 0.  1.
         -3   -1    0    0    0  501 -0.00000000000E+00 -0.00000000000E+00 -0.14697224045E+03  0.14697224045E+03  0.00000000000E+00 0.  1.
         21    1    1    2  503  501  0.73831746121E+02  0.97995037566E+02  0.35567855047E+03  0.37624644236E+03  0.00000000000E+00 0.  1.
         21    1    1    2  504  503 -0.21813206261E+02 -0.22886052169E+02  0.58186629168E+03  0.58272460798E+03  0.00000000000E+00 0.  1.
         21    1    1    2  505  504 -0.71402486621E+02 -0.24302736026E+02  0.59081200768E+03  0.59560705712E+03  0.00000000000E+00 0.  1.
         -3    1    1    2    0  502  0.19383946761E+02 -0.50806249371E+02 -0.12833909415E+03  0.13938412913E+03  0.00000000000E+00 0.  1.
<scales pt_clust_3="106.33941" pt_clust_4="31.55331" pt_clust_5="31.55331" pt_clust_6="54.37842"></scales>
<clustering>
<clus scale="   31.553">  4  5 -1 -1</clus>
<clus scale="   54.378">  2  6  1 -1</clus>
<clus scale="  106.339">  2  3  1 -1</clus>
<clus scale="  116.975">  1  3  2 -1</clus>
</clustering>
</event>
<event>
 6    0  0.3584505E+002  0.1264179E+03  0.7546771E-02  0.1232870E+00
         21   -1    0    0  505  502  0.00000000000E+00  0.00000000000E+00  0.10611335937E+04  0.10611335937E+04  0.00000000000E+00 0. -1.
          2   -1    0    0  503    0 -0.00000000000E+00 -0.00000000000E+00 -0.22986390939E+04  0.22986390939E+04  0.00000000000E+00 0. -1.
         21    1    1    2  503  504 -0.86385938244E+02 -0.12176581709E+02 -0.42967125656E+02  0.97246970932E+02  0.00000000000E+00 0. -1.
         21    1    1    2  504  502  0.27691683858E+02 -0.49883418306E+02  0.94939100323E+03  0.95110381231E+03  0.00000000000E+00 0. -1.
         21    1    1    2  505  501  0.11497975606E+02 -0.57104080831E+02  0.71535939074E+02  0.92252209024E+02  0.00000000000E+00 0.  1.
          2    1    1    2  501    0  0.47196278779E+02  0.11916408085E+03 -0.22154653168E+04  0.22191696954E+04  0.00000000000E+00 0. -1.
<scales pt_clust_3="83.25949" pt_clust_4="57.05423" pt_clust_5="14000.00000" pt_clust_6="126.41789"></scales>
<clustering>
<clus scale="   57.054">  1  4  2 -1</clus>
<clus scale="   83.259">  1  3  2 -1</clus>
<clus scale="  126.418">  2  6  1 -1</clus>
<clus scale="   57.054">  1  3  2 -1</clus>
</clustering>
</event>
<event>
 6    0  0.3584505E+002  0.1101705E+03  0.7546771E-02  0.1260254E+00
         21   -1    0    0  505  502  0.00000000000E+00  0.00000000000E+00  0.11007431786E+03  0.11007431786E+03  0.00000000000E+00 0.  1.
          2   -1    0    0  503    0 -0.00000000000E+00 -0.00000000000E+00 -0.20385717843E+04  0.20385717843E+04  0.00000000000E+00 0. -1.
         21    1    1    2  503  502  0.34875893697E+01 -0.13943057612E+03 -0.28522679249E+03  0.31750176691E+03  0.00000000000E+00 0.  1.
         21    1    1    2  504  501  0.58140725353E+02  0.65511225990E+02 -0.51673285567E+03  0.52410391031E+03  0.00000000000E+00 0. -1.
         21    1    1    2  505  504 -0.37525229156E+02  0.21597732790E+02  0.84334105379E+02  0.94798977921E+02  0.00000000000E+00 0.  1.
          2    1    1    2  501    0 -0.24103085566E+02  0.52321617343E+02 -0.12108719236E+04  0.12122414470E+04  0.00000000000E+00 0. -1.
<scales pt_clust_3="110.17054" pt_clust_4="14000.00000" pt_clust_5="43.29671" pt_clust_6="58.79172"></scales>
<clustering>
<clus scale="   43.297">  1  5  2 -1</clus>
<clus scale="   58.792">  2  6  1 -1</clus>
<clus scale="  110.171">  1  3  2 -1</clus>
<clus scale="   43.297">  1  3  2 -1</clus>
</clustering>
</event>
<event>
 6    0  0.3584505E+002  0.1660029E+03  0.7546771E-02  0.1182081E+00
          2   -1    0    0  503    0 -0.00000000000E+00  0.00000000000E+00  0.23955657036E+04  0.23955657036E+04  0.00000000000E+00 0.  1.
         21   -1    0    0  504  502  0.00000000000E+00 -0.00000000000E+00 -0.44932801211E+02  0.44932801211E+02  0.00000000000E+00 0.  1.
         21    1    1    2  503  502  0.69187033824E+01 -0.21687621682E+03  0.10096362822E+04  0.10326899748E+04  0.00000000000E+00 0.  1.
         21    1    1    2  504  505 -0.66066369809E+02 -0.19018572869E+02  0.63889742872E+02  0.93852919922E+02  0.00000000000E+00 0.  1.
         21    1    1    2  505  501  0.62497358995E+01  0.15348734973E+03  0.35692634883E+03  0.38857926375E+03  0.00000000000E+00 0.  1.
          2    1    1    2  501    0  0.52897930527E+02  0.82407439957E+02  0.92018052848E+03  0.92537634625E+03  0.00000000000E+00 0.  1.
<scales pt_clust_3="166.00295" pt_clust_4="68.74934" pt_clust_5="14000.00000" pt_clust_6="93.52322"></scales>
<clustering>
<clus scale="   68.749">  2  4  1 -1</clus>
<clus scale="   93.523">  1  6  2 -1</clus>
<clus scale="  166.003">  1  3  2 -1</clus>
<clus scale="   68.749">  2  3  1 -1</clus>
</clustering>
</event>
<event>
 6    0  0.3584505E+002  0.1461179E+03  0.7546771E-02  0.1205326E+00
          2   -1    0    0  505    0 -0.00000000000E+00  0.00000000000E+00  0.10254380722E+04  0.10254380722E+04  0.00000000000E+00 0.  1.
         21   -1    0    0  504  502  0.00000000000E+00 -0.00000000000E+00 -0.65231669279E+02  0.65231669279E+02  0.00000000000E+00 0.  1.
         21    1    1    2  503  502  0.79284210092E+02  0.11825391569E+03  0.82309767500E+02  0.16445325285E+03  0.00000000000E+00 0.  1.
         21    1    1    2  504  501  0.44855519039E+02 -0.51125750316E+02  0.13659151264E+03  0.15258801152E+03  0.00000000000E+00 0.  1.
         21    1    1    2  505  503 -0.12663470724E+03 -0.10582716149E+03  0.44169362068E+03  0.47151775336E+03  0.00000000000E+00 0.  1.
          2    1    1    2  501    0  0.24949781073E+01  0.38698996111E+02  0.29961150212E+03  0.30211072377E+03  0.00000000000E+00 0.  1.
<scales pt_clust_3="14000.00000" pt_clust_4="62.77564" pt_clust_5="146.11795" pt_clust_6="38.77934"></scales>
<clustering>
<clus scale="   38.779">  1  6  2 -1</clus>
<clus scale="   62.776">  1  4  2 -1</clus>
<clus scale="  146.118">  1  5  2 -1</clus>
<clus scale="  146.118">  2  3  1 -1</clus>
</clustering>
</event>
<event>
 6    0  0.3584505E+002  0.5736631E+02  0.7546771E-02  0.1409229E+00
         21   -1    0    0  505  502  0.00000000000E+00  0.00000000000E+00  0.62856368099E+03  0.62856368099E+03  0.00000000000E+00 0.  1.
         -2   -1    0    0    0  501 -0.00000000000E+00 -0.00000000000E+00 -0.72368143905E+02  0.72368143905E+02  0.00000000000E+00 0.  1.
         21    1    1    2  503  502  0.28613220331E+02  0.58337577341E+02  0.31960081165E+03  0.32613903188E+03  0.00000000000E+00 0.  1.
         21    1    1    2  504  501 -0.88433250292E+02 -0.32877752120E+02  0.59081671589E+02  0.11131949631E+03  0.00000000000E+00 0.  1.
         21    1    1    2  505  504  0.19961846903E+02 -0.47678375998E+02  0.20417941026E+03  0.21062035620E+03  0.00000000000E+00 0.  1.
         -2    1    1    2    0  503  0.39858183058E+02  0.22218550777E+02 -0.26666356419E+02  0.52852940504E+02  0.00000000000E+00 0.  1.
<scales pt_clust_3="57.36631" pt_clust_4="14000.00000" pt_clust_5="51.38022" pt_clust_6="45.63265"></scales>
<clustering>
<clus scale="   45.633">  2  6  1 -1</clus>
<clus scale="   51.380">  1  5  2 -1</clus>
<clus scale="   57.366">  1  3  2 -1</clus>
<clus scale="   51.380">  1  3  2 -1</clus>
</clustering>
</event>
<event>
 6    0  0.3584505E+002  0.6785138E+02  0.7546771E-02  0.1367556E+00
          2   -1    0    0  504    0 -0.00000000000E+00  0.00000000000E+00  0.37410797711E+03  0.37410797711E+03  0.00000000000E+00 0. -1.
         21   -1    0    0  505  502  0.00000000000E+00 -0.00000000000E+00 -0.22008444696E+04  0.22008444696E+04  0.00000000000E+00 0. -1.
         21    1    1    2  503  502 -0.22812708672E+02  0.28225686254E+02 -0.16847233073E+04  0.16851141597E+04  0.00000000000E+00 0. -1.
         21    1    1    2  504  503  0.26896768917E+02 -0.93498269860E+02 -0.48526812387E+03  0.49492475659E+03  0.00000000000E+00 0. -1.
         21    1    1    2  505  501 -0.74984999961E+01  0.95587341234E+02  0.66979802939E+02  0.11695922926E+03  0.00000000000E+00 0.  1.
          2    1    1    2  501    0  0.34144397502E+01 -0.30314757627E+02  0.27627513572E+03  0.27795430118E+03  0.00000000000E+00 0. -1.
<scales pt_clust_3="36.24018" pt_clust_4="14000.00000" pt_clust_5="67.85138" pt_clust_6="30.50644"></scales>
<clustering>
<clus scale="   30.506">  1  6  2 -1</clus>
<clus scale="   36.240">  2  3  1 -1</clus>
<clus scale="   67.851">  1  5  2 -1</clus>
<clus scale="   36.240">  2  3  1 -1</clus>
</clustering>
</event>
<event>
 6    0  0.3584505E+002  0.7718229E+02  0.7546771E-02  0.1337243E+00
         -1   -1    0    0    0  501 -0.00000000000E+00  0.00000000000E+00  0.40852953468E+02  0.40852953468E+02  0.00000000000E+00 0. -1.
         21   -1    0    0  504  502  0.00000000000E+00 -0.00000000000E+00 -0.78487340674E+03  0.78487340674E+03  0.00000000000E+00 0. -1.
         21    1    1    2  503  501 -0.50511413055E+02 -0.44770474692E+02 -0.96070073918E+02  0.11741063561E+03  0.00000000000E+00 0. -1.
         21    1    1    2  504  503  0.45283855103E+02 -0.78638625368E+02 -0.32012994652E+03  0.33274290915E+03  0.00000000000E+00 0. -1.
         21    1    1    2  505  502  0.15821365888E+02  0.37839675625E+02 -0.26681956915E+03  0.26995340182E+03  0.00000000000E+00 0. -1.
         -1    1    1    2    0  505 -0.10593807936E+02  0.85569424434E+02 -0.61000863688E+02  0.10561941363E+03  0.00000000000E+00 0. -1.
<scales pt_clust_3="59.97583" pt_clust_4="14000.00000" pt_clust_5="41.01410" pt_clust_6="77.18229"></scales>
<clustering>
<clus scale="   41.014">  2  5  1 -1</clus>
<clus scale="   59.976">  1  3  2 -1</clus>
<clus scale="   77.182">  1  6  2 -1</clus>
<clus scale="   41.014">  2  3  1 -1</clus>
</clustering>
</event>
<event>
 6    0  0.3584505E+002  0.1501566E+03  0.7546771E-02  0.1200281E+00
          1   -1    0    0  504    0 -0.00000000000E+00  0.00000000000E+00  0.21025437105E+04  0.21025437105E+04  0.00000000000E+00 0. -1.
         21   -1    0    0  505  502  0.00000000000E+00 -0.00000000000E+00 -0.10968332585E+03  0.10968332585E+03  0.00000000000E+00 0.  1.
         21    1    1    2  503  501  0.12390337342E+03 -0.47551648677E+02  0.25750115080E+03  0.28968957161E+03  0.00000000000E+00 0.  1.
         21    1    1    2  504  502 -0.13812494491E+03  0.35939267717E+02  0.17360959251E+01  0.14273452771E+03  0.00000000000E+00 0.  1.
         21    1    1    2  505  503 -0.97348327788E+01  0.30674134645E+02 -0.11676631383E+02  0.34234678703E+02  0.00000000000E+00 0.  1.
          1    1    1    2  501    0  0.23956404270E+02 -0.19061753685E+02  0.17452997693E+04  0.17455682583E+04  0.00000000000E+00 0. -1.
<scales pt_clust_3="150.15656" pt_clust_4="14000.00000" pt_clust_5="31.38372" pt_clust_6="30.61470"></scales>
<clustering>
<clus scale="   30.615">  1  6  2 -1</clus>
<clus scale="   31.384">  2  5  1 -1</clus>
<clus scale="  150.157">  1  3  2 -1</clus>
<clus scale="   31.384">  2  3  1 -1</clus>
</clustering>
</event>
<event>
 6    0  0.3584505E+002  0.1120257E+03  0.7546771E-02  0.1256864E+00
          2   -1    0    0  505    0 -0.00000000000E+00  0.00000000000E+00  0.19793622408E+04  0.19793622408E+04  0.00000000000E+00 0.  1.
         21   -1    0    0  503  502  0.00000000000E+00 -0.00000000000E+00 -0.17871540868E+02  0.17871540868E+02  0.00000000000E+00 0.  1.
         21    1    1    2  503  501  0.18270114199E+01  0.50675289056E+02  0.13358688939E+03  0.14288729792E+03  0.00000000000E+00 0. -1.
         21    1    1    2  504  502  0.72857016565E+01 -0.34476136256E+02  0.17711356406E+03  0.18058488307E+03  0.00000000000E+00 0.  1.
         21    1    1    2  505  504 -0.11729576088E+03 -0.33588151882E+02  0.40033041219E+03  0.41851033248E+03  0.00000000000E+00 0.  1.
          2    1    1    2  501    0  0.10818304780E+03  0.17388999082E+02  0.12504598342E+04  0.12552512681E+04  0.00000000000E+00 0.  1.
<scales pt_clust_3="40.92840" pt_clust_4="35.23756" pt_clust_5="112.02566" pt_clust_6="14000.00000"></scales>
<clustering>
<clus scale="   35.238">  2  4  1 -1</clus>
<clus scale="   40.928">  2  3  1 -1</clus>
<clus scale="  112.026">  2  5  1 -1</clus>
<clus scale="   35.238">  2  3  1 -1</clus>
</clustering>
</event>
<event>
 6    0  0.3584505E+002  0.1199811E+03  0.7546771E-02  0.1243128E+00
         21   -1    0    0  504  502  0.00000000000E+00  0.00000000000E+00  0.14835075529E+04  0.14835075529E+04  0.00000000000E+00 0. -1.
          2   -1    0    0  503    0 -0.00000000000E+00 -0.00000000000E+00 -0.15795354558E+04  0.15795354558E+04  0.00000000000E+00 0.  1.
         21    1    1    2  503  505 -0.77685559471E+02  0.94224755486E+02 -0.15659859710E+03  0.19858618107E+03  0.00000000000E+00 0. -1.
         21    1    1    2  504  501 -0.61716792152E+02 -0.20233125594E+02  0.29939765966E+03  0.30636138858E+03  0.00000000000E+00 0. -1.
         21    1    1    2  505  502  0.35662933408E+02 -0.12646136042E+02  0.11567276726E+04  0.11573463951E+04  0.00000000000E+00 0. -1.
          2    1    1    2  501    0  0.10373941822E+03 -0.61345493850E+02 -0.13955546380E+04  0.14007490440E+04  0.00000000000E+00 0.  1.
<scales pt_clust_3="119.98108" pt_clust_4="42.91290" pt_clust_5="37.83873" pt_clust_6="14000.00000"></scales>
<clustering>
<clus scale="   37.839">  1  5  2 -1</clus>
<clus scale="   42.913">  1  4  2 -1</clus>
<clus scale="  119.981">  1  3  2 -1</clus>
<clus scale="   37.839">  1  3  2 -1</clus>
</clustering>
</event>
<event>
 6    0  0.3584505E+002  0.8595917E+02  0.7546771E-02  0.1312943E+00
         21   -1    0    0  504  502  0.00000000000E+00  0.00000000000E+00  0.36963650946E+02  0.36963650946E+02  0.00000000000E+00 0.  1.
          2   -1    0    0  505    0 -0.00000000000E+00 -0.00000000000E+00 -0.34056058747E+04  0.34056058747E+04  0.00000000000E+00 0.  1.
         21    1    1    2  503  501  0.82806832146E+02 -0.37764929248E+02 -0.45021406938E+03  0.45932109640E+03  0.00000000000E+00 0.  1.
         21    1    1    2  504  503 -0.10247966130E+01 -0.93074798478E+02 -0.73910771455E+02  0.11885609138E+03  0.00000000000E+00 0.  1.
         21    1    1    2  505  502 -0.83348200142E+02  0.56030482262E+02 -0.25896508211E+03  0.27775754024E+03  0.00000000000E+00 0.  1.
          2    1    1    2  501    0  0.15661646095E+01  0.74809245465E+02 -0.25855523008E+04  0.25866347976E+04  0.00000000000E+00 0.  1.
<scales pt_clust_3="83.75986" pt_clust_4="14000.00000" pt_clust_5="85.95917" pt_clust_6="74.82564"></scales>
<clustering>
<clus scale="   74.826">  2  6  1 -1</clus>
<clus scale="   83.760">  2  3  1 -1</clus>
<clus scale="   85.959">  2  5  1 -1</clus>
<clus scale="   85.959">  1  3  2 -1</clus>
</clustering>
</event>
<event>
 6    0  0.3584505E+002  0.2315135E+03  0.7546771E-02  0.1125579E+00
         -3   -1    0    0    0  501 -0.00000000000E+00  0.00000000000E+00  0.18106189901E+03  0.18106189901E+03  0.00000000000E+00 0.  1.
         21   -1    0    0  503  502  0.00000000000E+00 -0.00000000000E+00 -0.11232123910E+04  0.11232123910E+04  0.00000000000E+00 0.  1.
         21    1    1    2  503  505 -0.10992783385E+02 -0.51287741393E+02 -0.55371211875E+02  0.76270864741E+02  0.00000000000E+00 0. -1.
         21    1    1    2  504  502 -0.23244606610E+03 -0.29968550941E+02 -0.81188540073E+03  0.84503679897E+03  0.00000000000E+00 0.  1.
         21    1    1    2  505  501  0.59739975869E+02 -0.94711769060E+02 -0.62598948207E+02  0.12828800502E+03  0.00000000000E+00 0.  1.
         -3    1    1    2    0  504  0.18369887362E+03  0.17596806139E+03 -0.12294931160E+02  0.25467862127E+03  0.00000000000E+00 0.  1.
<scales pt_clust_3="44.54044" pt_clust_4="231.51347" pt_clust_5="167.11485" pt_clust_6="14000.00000"></scales>
<clustering>
<clus scale="   44.540">  3  5 -1 -1</clus>
<clus scale="  167.115">  1  3  2 -1</clus>
<clus scale="  231.513">  2  4  1 -1</clus>
<clus scale="  231.513">  2  3  1 -1</clus>
</clustering>
</event>
<event>
 6    0  0.3584505E+002  0.8042746E+02  0.7546771E-02  0.1327843E+00
         21   -1    0    0  504  502  0.00000000000E+00  0.00000000000E+00  0.19979945263E+02  0.19979945263E+02  0.00000000000E+00 0.  1.
         -2   -1    0    0    0  501 -0.00000000000E+00 -0.00000000000E+00 -0.23236570806E+04  0.23236570806E+04  0.00000000000E+00 0.  1.
         21    1    1    2  503  501  0.31472574430E+02 -0.62195563023E+02 -0.19161283368E+03  0.20389774160E+03  0.00000000000E+00 0.  1.
         21    1    1    2  504  503 -0.39373131025E+02 -0.92799127448E+01 -0.30810546376E+02  0.50849287067E+02  0.00000000000E+00 0.  1.
         21    1    1    2  505  502  0.84826705918E+02  0.35783202456E+02 -0.94398749044E+03  0.94846633557E+03  0.00000000000E+00 0.  1.
         -2    1    1    2    0  505 -0.76926149322E+02  0.35692273311E+02 -0.11372662649E+04  0.11404236617E+04  0.00000000000E+00 0.  1.
<scales pt_clust_3="68.29800" pt_clust_4="40.45195" pt_clust_5="80.42746" pt_clust_6="14000.00000"></scales>
<clustering>
<clus scale="   40.452">  1  4  2 -1</clus>
<clus scale="   68.298">  1  3  2 -1</clus>
<clus scale="   80.427">  1  5  2 -1</clus>
<clus scale="   40.452">  1  3  2 -1</clus>
</clustering>
</event>
<event>
 6    0  0.3584505E+002  0.1783678E+03  0.7546771E-02  0.1169392E+00
          2   -1    0    0  505    0 -0.00000000000E+00  0.00000000000E+00  0.10824215906E+04  0.10824215906E+04  0.00000000000E+00 0.  1.
         21   -1    0    0  503  502  0.00000000000E+00 -0.00000000000E+00 -0.69144888474E+02  0.69144888474E+02  0.00000000000E+00 0.  1.
         21    1    1    2  503  501  0.11256273874E+03  0.15086457629E+01  0.18565931249E+03  0.21712214645E+03  0.00000000000E+00 0.  1.
         21    1    1    2  504  502 -0.47880263614E+02  0.23302714046E+02  0.40210303280E+02  0.66726341242E+02  0.00000000000E+00 0.  1.
         21    1    1    2  505  504 -0.13060194721E+03 -0.15846000038E+03  0.55361147229E+03  0.59046769818E+03  0.00000000000E+00 0.  1.
          2    1    1    2  501    0  0.65919472083E+02  0.13364864057E+03  0.23379561403E+03  0.27725029318E+03  0.00000000000E+00 0.  1.
<scales pt_clust_3="99.41301" pt_clust_4="53.24975" pt_clust_5="178.36778" pt_clust_6="14000.00000"></scales>
<clustering>
<clus scale="   53.250">  2  4  1 -1</clus>
<clus scale="   99.413">  2  3  1 -1</clus>
<clus scale="  178.368">  1  5  2 -1</clus>
<clus scale="   53.250">  2  3  1 -1</clus>
</clustering>
</event>
<event>
 6    0  0.3584505E+002  0.1293519E+03  0.7546771E-02  0.1228421E+00
         21   -1    0    0  504  502  0.00000000000E+00  0.00000000000E+00  0.37360305027E+04  0.37360305027E+04  0.00000000000E+00 0.  1.
          1   -1    0    0  505    0 -0.00000000000E+00 -0.00000000000E+00 -0.46779079804E+03  0.46779079804E+03  0.00000000000E+00 0. -1.
         21    1    1    2  503  502 -0.22489310261E+02  0.43469036906E+02  0.36264057166E+03  0.36592828595E+03  0.00000000000E+00 0.  1.
         21    1    1    2  504  501 -0.53422411043E+02  0.69041603507E+02  0.33319190766E+04  0.33330624701E+04  0.00000000000E+00 0.  1.
         21    1    1    2  505  503  0.33129376401E+02 -0.61049450189E+02  0.37735142736E+01  0.69561701813E+02  0.00000000000E+00 0.  1.
          1    1    1    2  501    0  0.42782344903E+02 -0.51461190224E+02 -0.43009345780E+03  0.43526884288E+03  0.00000000000E+00 0. -1.
<scales pt_clust_3="48.94207" pt_clust_4="129.35195" pt_clust_5="14000.00000" pt_clust_6="66.88553"></scales>
<clustering>
<clus scale="   48.942">  1  3  2 -1</clus>
<clus scale="   66.886">  2  6  1 -1</clus>
<clus scale="  129.352">  1  4  2 -1</clus>
<clus scale="   48.942">  1  3  2 -1</clus>
</clustering>
</event>
<event>
 6    0  0.3584505E+002  0.1045223E+03  0.7546771E-02  0.1271064E+00
         -1   -1    0    0    0  501 -0.00000000000E+00  0.00000000000E+00  0.19820768934E+03  0.19820768934E+03  0.00000000000E+00 0.  1.
         21   -1    0    0  505  502  0.00000000000E+00 -0.00000000000E+00 -0.31699084231E+03  0.31699084231E+03  0.00000000000E+00 0.  1.
         21    1    1    2  503  504 -0.34654890790E+02  0.82720476724E+02 -0.26219784210E+02  0.93440439902E+02  0.00000000000E+00 0.  1.
         21    1    1    2  504  502  0.42073490698E+02 -0.11914709779E+03 -0.10325700372E+03  0.16318155027E+03  0.00000000000E+00 0.  1.
         21    1    1    2  505  501 -0.46960077276E+02  0.12026965785E+02 -0.11487659045E+03  0.12468571609E+03  0.00000000000E+00 0.  1.
         -1    1    1    2    0  503  0.39541477368E+02  0.24399655285E+02  0.12557022542E+03  0.13389082538E+03  0.00000000000E+00 0.  1.
<scales pt_clust_3="14000.00000" pt_clust_4="104.52234" pt_clust_5="46.22788" pt_clust_6="46.46366"></scales>
<clustering>
<clus scale="   46.464">  1  6  2 -1</clus>
<clus scale="   46.228">  2  5  1 -1</clus>
<clus scale="  104.522">  2  4  1 -1</clus>
<clus scale="   46.228">  2  3  1 -1</clus>
</clustering>
</event>
<event>
 6    0  0.3584505E+002  0.1301076E+03  0.7546771E-02  0.1227296E+00
          1   -1    0    0  503    0 -0.00000000000E+00  0.00000000000E+00  0.12084129155E+04  0.12084129155E+04  0.00000000000E+00 0. -1.
         21   -1    0    0  504  502  0.00000000000E+00 -0.00000000000E+00 -0.58426753687E+02  0.58426753687E+02  0.00000000000E+00 0.  1.
         21    1    1    2  503  502 -0.33346573006E+02 -0.16361916584E+02  0.47707594767E+02  0.60462557372E+02  0.00000000000E+00 0. -1.
         21    1    1    2  504  505  0.52048076030E+02 -0.10264430288E+03  0.20725038360E+02  0.11693751471E+03  0.00000000000E+00 0.  1.
         21    1    1    2  505  501 -0.10881568678E+00  0.82150666005E+02  0.52839544598E+03  0.53474338808E+03  0.00000000000E+00 0.  1.
          1    1    1    2  501    0 -0.18592687338E+02  0.36855553454E+02  0.55315808274E+03  0.55469620906E+03  0.00000000000E+00 0. -1.
<scales pt_clust_3="37.14440" pt_clust_4="119.66459" pt_clust_5="36.20327" pt_clust_6="36.20327"></scales>
<clustering>
<clus scale="   36.203">  5  6 -1 -1</clus>
<clus scale="   37.144">  2  3  1 -1</clus>
<clus scale="  119.665">  2  4  1 -1</clus>
<clus scale="   37.144">  2  3  1 -1</clus>
</clustering>
</event>
<event>
 6    0  0.3584505E+002  0.9652650E+02  0.7546771E-02  0.1287775E+00
          4   -1    0    0  505    0 -0.00000000000E+00  0.00000000000E+00  0.11166394772E+03  0.11166394772E+03  0.00000000000E+00 0.  1.
         21   -1    0    0  503  502  0.00000000000E+00 -0.00000000000E+00 -0.23001911606E+04  0.23001911606E+04  0.00000000000E+00 0. -1.
         21    1    1    2  503  504 -0.52826397645E+02 -0.30086656491E+02 -0.85504007243E+03  0.85719855380E+03  0.00000000000E+00 0. -1.
         21    1    1    2  504  501  0.10944215186E+01  0.98158717262E+02 -0.14630648177E+03  0.17618716792E+03  0.00000000000E+00 0.  1.
         21    1    1    2  505  502  0.88932084052E+02 -0.62178653833E+02 -0.12767240626E+04  0.12813272153E+04  0.00000000000E+00 0. -1.
          4    1    1    2  501    0 -0.37200107925E+02 -0.58934069383E+01  0.89543403885E+02  0.97142171348E+02  0.00000000000E+00 0.  1.
<scales pt_clust_3="62.87423" pt_clust_4="96.52650" pt_clust_5="14000.00000" pt_clust_6="37.66404"></scales>
<clustering>
<clus scale="   37.664">  1  6  2 -1</clus>
<clus scale="   62.874">  2  3  1 -1</clus>
<clus scale="   96.526">  1  4  2 -1</clus>
<clus scale="   62.874">  2  3  1 -1</clus>
</clustering>
</event>
<event>
 6    0  0.3584505E+002  0.1744836E+03  0.7546771E-02  0.1173251E+00
         21   -1    0    0  503  502  0.00000000000E+00  0.00000000000E+00  0.22174920289E+04  0.22174920289E+04  0.00000000000E+00 0. -1.
          1   -1    0    0  505    0 -0.00000000000E+00 -0.00000000000E+00 -0.31280342322E+03  0.31280342322E+03  0.00000000000E+00 0. -1.
         21    1    1    2  503  504  0.70990849716E+02 -0.23486089070E+02  0.74534535417E+03  0.74908677341E+03  0.00000000000E+00 0. -1.
         21    1    1    2  504  501 -0.18695150254E+03  0.12822014597E+03  0.11565715263E+04  0.11785792148E+04  0.00000000000E+00 0. -1.
         21    1    1    2  505  502 -0.48030309455E+02 -0.48030540106E+02  0.27309102164E+03  0.28141170819E+03  0.00000000000E+00 0. -1.
          1    1    1    2  501    0  0.16399096228E+03 -0.56703516792E+02 -0.27031929645E+03  0.32121775568E+03  0.00000000000E+00 0. -1.
<scales pt_clust_3="67.21746" pt_clust_4="174.48365" pt_clust_5="67.92528" pt_clust_6="14000.00000"></scales>
<clustering>
<clus scale="   67.925">  1  5  2 -1</clus>
<clus scale="   67.217">  1  3  2 -1</clus>
<clus scale="  174.484">  1  4  2 -1</clus>
<clus scale="   67.925">  1  3  2 -1</clus>
</clustering>
</event>
<event>
 6    0  0.3584505E+002  0.3164107E+03  0.7546771E-02  0.1077313E+00
         21   -1    0    0  504  502  0.00000000000E+00  0.00000000000E+00  0.12087363260E+04  0.12087363260E+04  0.00000000000E+00 0.  1.
         -1   -1    0    0    0  501 -0.00000000000E+00 -0.00000000000E+00 -0.73503534831E+03  0.73503534831E+03  0.00000000000E+00 0.  1.
         21    1    1    2  503  501  0.25206401294E+03 -0.11779723337E+03  0.70507464397E+02  0.28702570851E+03  0.00000000000E+00 0.  1.
         21    1    1    2  504  505 -0.38268318261E+02  0.83728839448E+02  0.27212960346E+03  0.28727948729E+03  0.00000000000E+00 0.  1.
         21    1    1    2  505  503  0.11726128369E+03  0.30015160332E+02  0.70044362136E+03  0.71082514391E+03  0.00000000000E+00 0.  1.
         -1    1    1    2    0  502 -0.33105697837E+03  0.40532335863E+01 -0.56937971158E+03  0.65864133456E+03  0.00000000000E+00 0.  1.
<scales pt_clust_3="14000.00000" pt_clust_4="92.05967" pt_clust_5="128.61285" pt_clust_6="316.41069"></scales>
<clustering>
<clus scale="   92.060">  1  4  2 -1</clus>
<clus scale="  128.613">  1  5  2 -1</clus>
<clus scale="  316.411">  2  6  1 -1</clus>
<clus scale="   92.060">  1  3  2 -1</clus>
</clustering>
</event>
<event>
 6    0  0.3584505E+002  0.6739093E+02  0.7546771E-02  0.1369197E+00
         21   -1    0    0  504  502  0.00000000000E+00  0.00000000000E+00  0.19726262804E+04  0.19726262804E+04  0.00000000000E+00 0.  1.
          2   -1    0    0  503    0 -0.00000000000E+00 -0.00000000000E+00 -0.28667193514E+03  0.28667193514E+03  0.00000000000E+00 0. -1.
         21    1    1    2  503  505  0.34197467342E+02 -0.72166172405E+02  0.44751483898E+02  0.91542987296E+02  0.00000000000E+00 0. -1.
         21    1    1    2  504  501 -0.78260011223E+01 -0.35939692790E+02  0.12141378276E+03  0.12686297511E+03  0.00000000000E+00 0. -1.
         21    1    1    2  505  502  0.11957295304E+02  0.10110716681E+03  0.17774191103E+04  0.17803326458E+04  0.00000000000E+00 0.  1.
          2    1    1    2  501    0 -0.38328761524E+02  0.69986983871E+01 -0.25763003169E+03  0.26055960732E+03  0.00000000000E+00 0. -1.
<scales pt_clust_3="14000.00000" pt_clust_4="36.78190" pt_clust_5="67.39093" pt_clust_6="38.96349"></scales>
<clustering>
<clus scale="   36.782">  1  4  2 -1</clus>
<clus scale="   38.963">  2  6  1 -1</clus>
<clus scale="   67.391">  1  5  2 -1</clus>
<clus scale="   36.782">  1  3  2 -1</clus>
</clustering>
</event>
<event>
 6    0  0.3584505E+002  0.9141106E+02  0.7546771E-02  0.1299470E+00
         -3   -1    0    0    0  501 -0.00000000000E+00  0.00000000000E+00  0.94026433413E+03  0.94026433413E+03  0.00000000000E+00 0.  1.
         21   -1    0    0  504  502  0.00000000000E+00 -0.00000000000E+00 -0.18435599770E+03  0.18435599770E+03  0.00000000000E+00 0.  1.
         21    1    1    2  503  501 -0.60858564615E+02  0.23554262671E+02  0.27293248060E+01  0.65314756302E+02  0.00000000000E+00 0.  1.
         21    1    1    2  504  503  0.10745394556E+02 -0.55041472986E+02  0.34505894429E+02  0.65845911057E+02  0.00000000000E+00 0. -1.
         21    1    1    2  505  502  0.24447632897E+02 -0.57082781877E+02 -0.12774224750E+03  0.14203595508E+03  0.00000000000E+00 0.  1.
         -3    1    1    2    0  505  0.25665537163E+02  0.88569992191E+02  0.84641536469E+03  0.85142370938E+03  0.00000000000E+00 0.  1.
<scales pt_clust_3="60.35862" pt_clust_4="56.08054" pt_clust_5="14000.00000" pt_clust_6="91.41106"></scales>
<clustering>
<clus scale="   56.081">  2  4  1 -1</clus>
<clus scale="   60.359">  2  3  1 -1</clus>
<clus scale="   91.411">  1  6  2 -1</clus>
<clus scale="   56.081">  2  3  1 -1</clus>
</clustering>
</event>
<event>
 6    0  0.3584505E+002  0.1061546E+03  0.7546771E-02  0.1267861E+00
          2   -1    0    0  505    0 -0.00000000000E+00  0.00000000000E+00  0.22562009639E+03  0.22562009639E+03  0.00000000000E+00 0.  1.
         21   -1    0    0  503  502  0.00000000000E+00 -0.00000000000E+00 -0.40145267860E+03  0.40145267860E+03  0.00000000000E+00 0.  1.
         21    1    1    2  503  501 -0.93202809610E+02  0.10060852440E+03 -0.10798201894E+03  0.17455358867E+03  0.00000000000E+00 0.  1.
         21    1    1    2  504  502 -0.82400010342E+01 -0.59075286268E+02 -0.21972832725E+03  0.22768031285E+03  0.00000000000E+00 0.  1.
         21    1    1    2  505  504  0.20119020997E+02 -0.53724259875E+02  0.63940709684E+01  0.57723091121E+02  0.00000000000E+00 0.  1.
          2    1    1    2  501    0  0.81323789648E+02  0.12191021738E+02  0.14548369302E+03  0.16711578234E+03  0.00000000000E+00 0.  1.
<scales pt_clust_3="106.15456" pt_clust_4="60.68568" pt_clust_5="57.36786" pt_clust_6="14000.00000"></scales>
<clustering>
<clus scale="   57.368">  1  5  2 -1</clus>
<clus scale="   60.686">  2  4  1 -1</clus>
<clus scale="  106.155">  2  3  1 -1</clus>
<clus scale="   60.686">  2  3  1 -1</clus>
</clustering>
</event>
<event>
 6    0  0.3584505E+002  0.1476368E+03  0.7546771E-02  0.1203407E+00
          1   -1    0    0  502    0 -0.00000000000E+00  0.00000000000E+00  0.33664312453E+04  0.33664312453E+04  0.00000000000E+00 0. -1.
         21   -1    0    0  503  502  0.00000000000E+00 -0.00000000000E+00 -0.55059216185E+03  0.55059216185E+03  0.00000000000E+00 0. -1.
         21    1    1    2  503  504  0.16491711435E+02  0.49315061549E+02 -0.52015585575E+03  0.52274856874E+03  0.00000000000E+00 0. -1.
         21    1    1    2  504  505 -0.73787313601E+02  0.75631785095E+02  0.74355842651E+02  0.12920342836E+03  0.00000000000E+00 0.  1.
         21    1    1    2  505  501  0.15109832764E+02 -0.52337243377E+02  0.72542477771E+03  0.72746725164E+03  0.00000000000E+00 0.  1.
          1    1    1    2  501    0  0.42185769401E+02 -0.72609603267E+02  0.25362143189E+04  0.25376041584E+04  0.00000000000E+00 0. -1.
<scales pt_clust_3="51.99954" pt_clust_4="135.23831" pt_clust_5="47.69840" pt_clust_6="47.69840"></scales>
<clustering>
<clus scale="   47.698">  5  6 -1 -1</clus>
<clus scale="   52.000">  2  3  1 -1</clus>
<clus scale="  135.238">  2  4  1 -1</clus>
<clus scale="   52.000">  2  3  1 -1</clus>
</clustering>
</event>
<event>
 6    0  0.3584505E+002  0.1731112E+03  0.7546771E-02  0.1174642E+00
         21   -1    0    0  505  502  0.00000000000E+00  0.00000000000E+00  0.38751470205E+03  0.38751470205E+03  0.00000000000E+00 0.  1.
          1   -1    0    0  504    0 -0.00000000000E+00 -0.00000000000E+00 -0.13481753105E+04  0.13481753105E+04  0.00000000000E+00 0.  1.
         21    1    1    2  503  502 -0.48115267908E+02 -0.32264013878E+02  0.11290121503E+03  0.12689653247E+03  0.00000000000E+00 0.  1.
         21    1    1    2  504  503  0.21347287801E+03  0.14326938283E+03  0.58723061281E+02  0.26371420825E+03  0.00000000000E+00 0.  1.
         21    1    1    2  505  501 -0.71098776973E+02  0.31313833426E+02  0.85421542357E+02  0.11546615153E+03  0.00000000000E+00 0.  1.
          1    1    1    2  501    0 -0.94258833134E+02 -0.14231920238E+03 -0.12177064271E+04  0.12296131203E+04  0.00000000000E+00 0.  1.
<scales pt_clust_3="57.93139" pt_clust_4="173.11119" pt_clust_5="91.20262" pt_clust_6="14000.00000"></scales>
<clustering>
<clus scale="   57.931">  1  3  2 -1</clus>
<clus scale="   91.203">  1  5  2 -1</clus>
<clus scale="  173.111">  1  4  2 -1</clus>
<clus scale="   57.931">  1  3  2 -1</clus>
</clustering>
</event>
<event>
 6    0  0.3584505E+002  0.1929370E+03  0.7546771E-02  0.1155839E+00
         21   -1    0    0  503  502  0.00000000000E+00  0.00000000000E+00  0.17097838047E+04  0.17097838047E+04  0.00000000000E+00 0. -1.
          2   -1    0    0  505    0 -0.00000000000E+00 -0.00000000000E+00 -0.52787511751E+03  0.52787511751E+03  0.00000000000E+00 0. -1.
         21    1    1    2  503  504 -0.60565490016E+02  0.15301656146E+02  0.77736859213E+03  0.77987450740E+03  0.00000000000E+00 0. -1.
         21    1    1    2  504  501 -0.15761313286E+03 -0.10493609459E+03  0.69010493895E+03  0.71561044595E+03  0.00000000000E+00 0. -1.
         21    1    1    2  505  502  0.13513089530E+03  0.89805670602E+02  0.19546292330E+03  0.25402986384E+03  0.00000000000E+00 0. -1.
          2    1    1    2  501    0  0.83047727575E+02 -0.17123216100E+00 -0.48102776723E+03  0.48814410498E+03  0.00000000000E+00 0. -1.
<scales pt_clust_3="62.46855" pt_clust_4="14000.00000" pt_clust_5="192.93696" pt_clust_6="82.81637"></scales>
<clustering>
<clus scale="   62.469">  1  3  2 -1</clus>
<clus scale="   82.816">  2  6  1 -1</clus>
<clus scale="  192.937">  2  5  1 -1</clus>
<clus scale="   62.469">  1  3  2 -1</clus>
</clustering>
</event>
<event>
 6    0  0.3584505E+002  0.1329166E+03  0.7546771E-02  0.1223191E+00
         21   -1    0    0  504  502  0.00000000000E+00  0.00000000000E+00  0.14331287690E+04  0.14331287690E+04  0.00000000000E+00 0.  1.
         -1   -1    0    0    0  501 -0.00000000000E+00 -0.00000000000E+00 -0.27107935772E+03  0.27107935772E+03  0.00000000000E+00 0. -1.
         21    1    1    2  503  501 -0.10070638147E+03 -0.24648454121E+02 -0.10374948625E+02  0.10419674236E+03  0.00000000000E+00 0. -1.
         21    1    1    2  504  503  0.30926096514E+02 -0.81345861699E+01  0.45775781389E+02  0.55839207547E+02  0.00000000000E+00 0.  1.
         21    1    1    2  505  502  0.90453823953E+02  0.75338396551E+02  0.13300964927E+04  0.13352956407E+04  0.00000000000E+00 0.  1.
         -1    1    1    2    0  505 -0.20673538994E+02 -0.42555356260E+02 -0.20344791416E+03  0.20887653611E+03  0.00000000000E+00 0. -1.
<scales pt_clust_3="14000.00000" pt_clust_4="31.97804" pt_clust_5="132.91664" pt_clust_6="47.29911"></scales>
<clustering>
<clus scale="   31.978">  1  4  2 -1</clus>
<clus scale="   47.299">  2  6  1 -1</clus>
<clus scale="  132.917">  1  5  2 -1</clus>
<clus scale="   31.978">  1  3  2 -1</clus>
</clustering>
</event>
<event>
 6    0  0.3584505E+002  0.2874688E+03  0.7546771E-02  0.1091678E+00
          2   -1    0    0  505    0 -0.00000000000E+00  0.00000000000E+00  0.25354339801E+04  0.25354339801E+04  0.00000000000E+00 0. -1.
         21   -1    0    0  503  502  0.00000000000E+00 -0.00000000000E+00 -0.20500093711E+03  0.20500093711E+03  0.00000000000E+00 0. -1.
         21    1    1    2  503  504 -0.22149662636E+02 -0.31381507276E+02 -0.56251173683E+02  0.68114617333E+02  0.00000000000E+00 0. -1.
         21    1    1    2  504  501 -0.10421302086E+02 -0.41071921314E+02  0.78668794642E+02  0.89354829237E+02  0.00000000000E+00 0.  1.
         21    1    1    2  505  502  0.26327566025E+03 -0.10090537368E+03  0.26412098897E+02  0.28318468653E+03  0.00000000000E+00 0. -1.
          2    1    1    2  501    0 -0.23070469553E+03  0.17335880227E+03  0.22816033232E+04  0.22997807842E+04  0.00000000000E+00 0. -1.
<scales pt_clust_3="38.41102" pt_clust_4="43.71820" pt_clust_5="287.46876" pt_clust_6="14000.00000"></scales>
<clustering>
<clus scale="   38.411">  2  3  1 -1</clus>
<clus scale="   43.718">  2  4  1 -1</clus>
<clus scale="  287.469">  2  5  1 -1</clus>
<clus scale="   38.411">  2  3  1 -1</clus>
</clustering>
</event>
<event>
 6    0  0.3584505E+002  0.1592054E+03  0.7546771E-02  0.1189597E+00
          1   -1    0    0  503    0 -0.00000000000E+00  0.00000000000E+00  0.13569979514E+04  0.13569979514E+04  0.00000000000E+00 0. -1.
         21   -1    0    0  505  502  0.00000000000E+00 -0.00000000000E+00 -0.78988313843E+03  0.78988313843E+03  0.00000000000E+00 0.  1.
         21    1    1    2  503  504 -0.14612756738E+03 -0.59855457549E+01  0.17102658289E+03  0.22503151949E+03  0.00000000000E+00 0.  1.
         21    1    1    2  504  502  0.10503015399E+03  0.71503135450E+01 -0.13084054363E+03  0.16793364192E+03  0.00000000000E+00 0. -1.
         21    1    1    2  505  501  0.70224873823E+02  0.28768753745E+02 -0.61076203760E+03  0.61545872377E+03  0.00000000000E+00 0.  1.
          1    1    1    2  501    0 -0.29127460433E+02 -0.29933521535E+02  0.11376908114E+04  0.11384572047E+04  0.00000000000E+00 0. -1.
<scales pt_clust_3="14000.00000" pt_clust_4="159.20545" pt_clust_5="75.47859" pt_clust_6="41.76631"></scales>
<clustering>
<clus scale="   41.766">  1  6  2 -1</clus>
<clus scale="   75.479">  2  5  1 -1</clus>
<clus scale="  159.205">  2  4  1 -1</clus>
<clus scale="   75.479">  2  3  1 -1</clus>
</clustering>
</event>
<event>
 6    0  0.3584505E+002  0.1044975E+03  0.7546771E-02  0.1271113E+00
         21   -1    0    0  503  502  0.00000000000E+00  0.00000000000E+00  0.23958430737E+02  0.23958430737E+02  0.00000000000E+00 0.  1.
          1   -1    0    0  505    0 -0.00000000000E+00 -0.00000000000E+00 -0.25389464147E+04  0.25389464147E+04  0.00000000000E+00 0. -1.
         21    1    1    2  503  501 -0.12819103110E+02  0.29772883944E+02 -0.45525356146E+02  0.55886600139E+02  0.00000000000E+00 0.  1.
         21    1    1    2  504  502  0.68796470911E+02  0.61984958767E+02 -0.15130215815E+03  0.17739062147E+03  0.00000000000E+00 0.  1.
         21    1    1    2  505  504 -0.11195841861E+03 -0.57157112900E+02 -0.78037206218E+03  0.79043164062E+03  0.00000000000E+00 0.  1.
          1    1    1    2  501    0  0.55981050808E+02 -0.34600729811E+02 -0.15377884075E+04  0.15391959832E+04  0.00000000000E+00 0. -1.
<scales pt_clust_3="32.41534" pt_clust_4="104.49747" pt_clust_5="14000.00000" pt_clust_6="64.81937"></scales>
<clustering>
<clus scale="   32.415">  1  3  2 -1</clus>
<clus scale="   64.819">  2  6  1 -1</clus>
<clus scale="  104.497">  1  4  2 -1</clus>
<clus scale="   32.415">  1  3  2 -1</clus>
</clustering>
</event>
<event>
 6    0  0.3584505E+002  0.5968121E+02  0.7546771E-02  0.1399174E+00
         21   -1    0    0  505  502  0.00000000000E+00  0.00000000000E+00  0.66637432416E+03  0.66637432416E+03  0.00000000000E+00 0.  1.
          1   -1    0    0  504    0 -0.00000000000E+00 -0.00000000000E+00 -0.38214728634E+03  0.38214728634E+03  0.00000000000E+00 0.  1.
         21    1    1    2  503  501  0.22927608662E+02  0.59535741068E+02  0.87587867074E+02  0.10835965191E+03  0.00000000000E+00 0.  1.
         21    1    1    2  504  502  0.15802433856E+02 -0.82750551276E+02 -0.52239350781E+02  0.99127798433E+02  0.00000000000E+00 0.  1.
         21    1    1    2  505  503 -0.46274893470E+02 -0.33491935905E+02  0.54067433803E+03  0.54368356177E+03  0.00000000000E+00 0.  1.
          1    1    1    2  501    0  0.75448509518E+01  0.56706746112E+02 -0.29179581651E+03  0.29735059839E+03  0.00000000000E+00 0.  1.
<scales pt_clust_3="35.79028" pt_clust_4="14000.00000" pt_clust_5="57.12334" pt_clust_6="59.68121"></scales>
<clustering>
<clus scale="   57.123">  1  5  2 -1</clus>
<clus scale="   35.790">  1  3  2 -1</clus>
<clus scale="   59.681">  2  6  1 -1</clus>
<clus scale="   57.123">  1  3  2 -1</clus>
</clustering>
</event>
<event>
 6    0  0.3584505E+002  0.6563055E+02  0.7546771E-02  0.1375615E+00
          2   -1    0    0  504    0 -0.00000000000E+00  0.00000000000E+00  0.11864308680E+04  0.11864308680E+04  0.00000000000E+00 0. -1.
         21   -1    0    0  505  502  0.00000000000E+00 -0.00000000000E+00 -0.13698068439E+03  0.13698068439E+03  0.00000000000E+00 0.  1.
         21    1    1    2  503  502  0.51362431284E+02 -0.34672716359E+02 -0.11109017186E+03  0.12720582884E+03  0.00000000000E+00 0.  1.
         21    1    1    2  504  503 -0.28109260318E+02 -0.10944307724E+02  0.34266728269E+03  0.34399240545E+03  0.00000000000E+00 0.  1.
         21    1    1    2  505  501 -0.66658852964E+02 -0.29119498728E+02  0.75553249522E+02  0.10487917523E+03  0.00000000000E+00 0.  1.
          2    1    1    2  501    0  0.43405681999E+02  0.74736522810E+02  0.74231982331E+03  0.74733414290E+03  0.00000000000E+00 0. -1.
<scales pt_clust_3="61.80644" pt_clust_4="30.16469" pt_clust_5="14000.00000" pt_clust_6="65.63055"></scales>
<clustering>
<clus scale="   30.165">  1  4  2 -1</clus>
<clus scale="   61.806">  2  3  1 -1</clus>
<clus scale="   65.631">  1  6  2 -1</clus>
<clus scale="   61.806">  2  3  1 -1</clus>
</clustering>
</event>
<event>
 6    0  0.3584505E+002  0.1924933E+03  0.7546771E-02  0.1156232E+00
          1   -1    0    0  504    0 -0.00000000000E+00  0.00000000000E+00  0.13152082779E+04  0.13152082779E+04  0.00000000000E+00 0.  1.
         21   -1    0    0  505  502  0.00000000000E+00 -0.00000000000E+00 -0.61598500997E+03  0.61598500997E+03  0.00000000000E+00 0. -1.
         21    1    1    2  503  502 -0.70184630824E+01 -0.50722463958E+02 -0.40492024693E+03  0.40814511334E+03  0.00000000000E+00 0. -1.
         21    1    1    2  504  503 -0.69278892851E+02 -0.45624828962E+02  0.47235329787E+02  0.95458715644E+02  0.00000000000E+00 0.  1.
         21    1    1    2  505  501 -0.75237476943E+02  0.21498341128E+03 -0.10431996255E+03  0.25052185463E+03  0.00000000000E+00 0. -1.
          1    1    1    2  501    0  0.15153483288E+03 -0.11863611836E+03  0.11612281476E+04  0.11770676043E+04  0.00000000000E+00 0.  1.
<scales pt_clust_3="51.20573" pt_clust_4="86.95227" pt_clust_5="14000.00000" pt_clust_6="192.49332"></scales>
<clustering>
<clus scale="   51.206">  2  3  1 -1</clus>
<clus scale="   86.952">  2  4  1 -1</clus>
<clus scale="  192.493">  1  6  2 -1</clus>
<clus scale="   51.206">  2  3  1 -1</clus>
</clustering>
</event>
<event>
 6    0  0.3584505E+002  0.1023987E+03  0.7546771E-02  0.1275331E+00
         21   -1    0    0  504  502  0.00000000000E+00  0.00000000000E+00  0.22044896386E+03  0.22044896386E+03  0.00000000000E+00 0. -1.
          1   -1    0    0  505    0 -0.00000000000E+00 -0.00000000000E+00 -0.35761249620E+03  0.35761249620E+03  0.00000000000E+00 0. -1.
         21    1    1    2  503  502  0.42633266799E+02 -0.12673053936E+02  0.10126634473E+03  0.11060322919E+03  0.00000000000E+00 0. -1.
         21    1    1    2  504  501  0.44602844937E+02  0.84615445566E+02 -0.21199939173E+03  0.23257886727E+03  0.00000000000E+00 0. -1.
         21    1    1    2  505  503 -0.30678659693E+01 -0.94452393034E+02  0.60173007627E+02  0.11203328612E+03  0.00000000000E+00 0. -1.
          1    1    1    2  501    0 -0.84168245767E+02  0.22510001404E+02 -0.86603492967E+02  0.12284607748E+03  0.00000000000E+00 0. -1.
<scales pt_clust_3="44.47698" pt_clust_4="14000.00000" pt_clust_5="102.39872" pt_clust_6="80.09097"></scales>
<clustering>
<clus scale="   44.477">  1  3  2 -1</clus>
<clus scale="   80.091">  2  6  1 -1</clus>
<clus scale="  102.399">  1  5  2 -1</clus>
<clus scale="   44.477">  1  3  2 -1</clus>
</clustering>
</event>
<event>
 6    0  0.3584505E+002  0.1709755E+03  0.7546771E-02  0.1176834E+00
         21   -1    0    0  503  502  0.00000000000E+00  0.00000000000E+00  0.21332880661E+03  0.21332880661E+03  0.00000000000E+00 0. -1.
          2   -1    0    0  504    0 -0.00000000000E+00 -0.00000000000E+00 -0.11443822483E+04  0.11443822483E+04  0.00000000000E+00 0.  1.
         21    1    1    2  503  505  0.24330614293E+02  0.27551742312E+02  0.63415521170E+01  0.37300034578E+02  0.00000000000E+00 0. -1.
         21    1    1    2  504  502 -0.19461820777E+03  0.55059249967E+02 -0.54618772996E+02  0.20950173786E+03  0.00000000000E+00 0. -1.
         21    1    1    2  505  501  0.49496190229E+02  0.37270725205E+02  0.97745251400E+02  0.11572862211E+03  0.00000000000E+00 0. -1.
          2    1    1    2  501    0  0.12079140325E+03 -0.11988171748E+03 -0.98052147218E+03  0.99518066033E+03  0.00000000000E+00 0.  1.
<scales pt_clust_3="36.75700" pt_clust_4="170.97552" pt_clust_5="82.13242" pt_clust_6="14000.00000"></scales>
<clustering>
<clus scale="   36.757">  1  3  2 -1</clus>
<clus scale="   82.132">  1  5  2 -1</clus>
<clus scale="  170.976">  1  4  2 -1</clus>
<clus scale="   36.757">  1  3  2 -1</clus>
</clustering>
</event>
<event>
 6    0  0.3584505E+002  0.6650061E+02  0.7546771E-02  0.1372414E+00
         21   -1    0    0  505  502  0.00000000000E+00  0.00000000000E+00  0.19030270732E+03  0.19030270732E+03  0.00000000000E+00 0.  1.
          1   -1    0    0  504    0 -0.00000000000E+00 -0.00000000000E+00 -0.21033461659E+04  0.21033461659E+04  0.00000000000E+00 0.  1.
         21    1    1    2  503  501 -0.13302037899E+02  0.11344953342E+03 -0.94912299728E+02  0.14851291353E+03  0.00000000000E+00 0.  1.
         21    1    1    2  504  502  0.44013248750E+02  0.29507064292E+02  0.10296543360E+03  0.11580031704E+03  0.00000000000E+00 0.  1.
         21    1    1    2  505  503 -0.20953384449E+02 -0.78090753339E+02  0.23056529648E+02  0.84076237049E+02  0.00000000000E+00 0.  1.
          1    1    1    2  501    0 -0.97578264015E+01 -0.64865844368E+02 -0.19441531221E+04  0.19452594056E+04  0.00000000000E+00 0.  1.
<scales pt_clust_3="66.50061" pt_clust_4="52.98899" pt_clust_5="59.12686" pt_clust_6="14000.00000"></scales>
<clustering>
<clus scale="   52.989">  1  4  2 -1</clus>
<clus scale="   59.127">  1  5  2 -1</clus>
<clus scale="   66.501">  1  3  2 -1</clus>
<clus scale="   52.989">  1  3  2 -1</clus>
</clustering>
</event>
<event>
 6    0  0.3584505E+002  0.1174963E+03  0.7546771E-02  0.1247285E+00
          1   -1    0    0  503    0 -0.00000000000E+00  0.00000000000E+00  0.15962391705E+04  0.15962391705E+04  0.00000000000E+00 0.  1.
         21   -1    0    0  505  502  0.00000000000E+00 -0.00000000000E+00 -0.13296060130E+03  0.13296060130E+03  0.00000000000E+00 0.  1.
         21    1    1    2  503  502  0.10750213044E+03 -0.89941866564E+02  0.41190207992E+01  0.14022558162E+03  0.00000000000E+00 0.  1.
         21    1    1    2  504  501 -0.12847586066E+03  0.10657248963E+03  0.84074969069E+03  0.85716030281E+03  0.00000000000E+00 0.  1.
         21    1    1    2  505  504 -0.30342579794E+02  0.10522457643E+02 -0.50794659608E+02  0.60095687932E+02  0.00000000000E+00 0.  1.
          1    1    1    2  501    0  0.51316310014E+02 -0.27153080707E+02  0.66920451726E+03  0.67171819939E+03  0.00000000000E+00 0.  1.
<scales pt_clust_3="117.49631" pt_clust_4="14000.00000" pt_clust_5="32.11533" pt_clust_6="57.54274"></scales>
<clustering>
<clus scale="   32.115">  2  5  1 -1</clus>
<clus scale="   57.543">  1  6  2 -1</clus>
<clus scale="  117.496">  2  3  1 -1</clus>
<clus scale="   32.115">  2  3  1 -1</clus>
</clustering>
</event>
<event>
 6    0  0.3584505E+002  0.1026508E+03  0.7546771E-02  0.1274818E+00
         21   -1    0    0  504  502  0.00000000000E+00  0.00000000000E+00  0.84794663513E+03  0.84794663513E+03  0.00000000000E+00 0.  1.
          1   -1    0    0  505    0 -0.00000000000E+00 -0.00000000000E+00 -0.26974685919E+03  0.26974685919E+03  0.00000000000E+00 0.  1.
         21    1    1    2  503  501  0.83444131951E+02  0.19275661032E+02  0.20699528140E+03  0.22401232285E+03  0.00000000000E+00 0.  1.
         21    1    1    2  504  503 -0.72177948274E+02 -0.12814060742E+03  0.43750342147E+03  0.46156138843E+03  0.00000000000E+00 0.  1.
         21    1    1    2  505  502  0.33777265589E+01  0.40991024502E+02  0.17565168848E+03  0.18040285140E+03  0.00000000000E+00 0.  1.
          1    1    1    2  501    0 -0.14643910236E+02  0.67873921885E+02 -0.24195061541E+03  0.25171693165E+03  0.00000000000E+00 0.  1.
<scales pt_clust_3="102.65076" pt_clust_4="14000.00000" pt_clust_5="41.12995" pt_clust_6="69.72261"></scales>
<clustering>
<clus scale="   41.130">  1  5  2 -1</clus>
<clus scale="   69.723">  2  6  1 -1</clus>
<clus scale="  102.651">  2  3  1 -1</clus>
<clus scale="   41.130">  1  3  2 -1</clus>
</clustering>
</event>
<event>
 6    0  0.3584505E+002  0.1390791E+03  0.7546771E-02  0.1214574E+00
          1   -1    0    0  503    0 -0.00000000000E+00  0.00000000000E+00  0.48808735903E+03  0.48808735903E+03  0.00000000000E+00 0. -1.
         21   -1    0    0  505  502  0.00000000000E+00 -0.00000000000E+00 -0.13214688040E+04  0.13214688040E+04  0.00000000000E+00 0. -1.
         21    1    1    2  503  504  0.65078576669E+02  0.21443678000E+02 -0.35614078164E+03  0.36267245390E+03  0.00000000000E+00 0. -1.
         21    1    1    2  504  502  0.62608889549E+02  0.21364375205E+02 -0.78834540735E+03  0.79111616774E+03  0.00000000000E+00 0. -1.
         21    1    1    2  505  501 -0.90177029067E+02 -0.48702908514E+02 -0.15625514846E+03  0.18686771067E+03  0.00000000000E+00 0.  1.
          1    1    1    2  501    0 -0.37510437151E+02  0.58948553093E+01  0.46735989245E+03  0.46889983076E+03  0.00000000000E+00 0. -1.
<scales pt_clust_3="56.59907" pt_clust_4="56.59907" pt_clust_5="126.88599" pt_clust_6="37.97081"></scales>
<clustering>
<clus scale="   37.971">  1  6  2 -1</clus>
<clus scale="   56.599">  3  4 -1 -1</clus>
<clus scale="  126.886">  1  5  2 -1</clus>
<clus scale="  139.079">  2  3  1 -1</clus>
</clustering>
</event>
<event>
 6    0  0.3584505E+002  0.7476226E+02  0.7546771E-02  0.1344609E+00
          2   -1    0    0  503    0 -0.00000000000E+00  0.00000000000E+00  0.14813004567E+04  0.14813004567E+04  0.00000000000E+00 0. -1.
         21   -1    0    0  505  502  0.00000000000E+00 -0.00000000000E+00 -0.27877769572E+02  0.27877769572E+02  0.00000000000E+00 0. -1.
         21    1    1    2  503  502  0.78779373906E+02  0.56660934464E+02  0.92680296379E+02  0.13418751277E+03  0.00000000000E+00 0. -1.
         21    1    1    2  504  501  0.10744682654E+02 -0.65896727580E+02  0.87258542938E+03  0.87513607997E+03  0.00000000000E+00 0. -1.
         21    1    1    2  505  504 -0.47995661436E+02  0.15996804252E+02  0.13443957194E+03  0.14364358589E+03  0.00000000000E+00 0. -1.
          2    1    1    2  501    0 -0.41528395125E+02 -0.67610111356E+01  0.35371738938E+03  0.35621104759E+03  0.00000000000E+00 0. -1.
<scales pt_clust_3="14000.00000" pt_clust_4="74.76226" pt_clust_5="55.24361" pt_clust_6="42.07516"></scales>
<clustering>
<clus scale="   42.075">  1  6  2 -1</clus>
<clus scale="   55.244">  2  5  1 -1</clus>
<clus scale="   74.762">  1  4  2 -1</clus>
<clus scale="   55.244">  2  3  1 -1</clus>
</clustering>
</event>
<event>
 6    0  0.3584505E+002  0.6909312E+02  0.7546771E-02  0.1363204E+00
          1   -1    0    0  504    0 -0.00000000000E+00  0.00000000000E+00  0.85581572111E+03  0.85581572111E+03  0.00000000000E+00 0. -1.
         21   -1    0    0  501  502  0.00000000000E+00 -0.00000000000E+00 -0.11467920307E+03  0.11467920307E+03  0.00000000000E+00 0. -1.
         21    1    1    2  503  505 -0.83903119677E+02  0.72361071096E+02 -0.51147070032E+00  0.11079765207E+03  0.00000000000E+00 0. -1.
         21    1    1    2  504  503  0.62591185602E+02 -0.17304780518E+02  0.62632613173E+03  0.62968367871E+03  0.00000000000E+00 0. -1.
         21    1    1    2  505  502  0.46689902981E+02 -0.34075898571E+02 -0.40610720048E+02  0.70642370336E+02  0.00000000000E+00 0.  1.
          1    1    1    2  501    0 -0.25377968907E+02 -0.20980392007E+02  0.15593257706E+03  0.15937122307E+03  0.00000000000E+00 0. -1.
<scales pt_clust_3="69.09312" pt_clust_4="53.75776" pt_clust_5="14000.00000" pt_clust_6="32.92747"></scales>
<clustering>
<clus scale="   32.927">  1  6  2 -1</clus>
<clus scale="   53.758">  1  4  2 -1</clus>
<clus scale="   69.093">  1  3  2 -1</clus>
<clus scale="   69.093">  2  3  1 -1</clus>
</clustering>
</event>
<event>
 6    0  0.3584505E+002  0.6431750E+02  0.7546771E-02  0.1380557E+00
         21   -1    0    0  503  502  0.00000000000E+00  0.00000000000E+00  0.19420077209E+04  0.19420077209E+04  0.00000000000E+00 0. -1.
         -2   -1    0    0    0  501 -0.00000000000E+00 -0.00000000000E+00 -0.76366474523E+03  0.76366474523E+03  0.00000000000E+00 0. -1.
         21    1    1    2  503  504  0.32860992161E+02  0.99481708745E+01  0.11576441811E+04  0.11581532113E+04  0.00000000000E+00 0. -1.
         21    1    1    2  504  505 -0.38432097529E+02  0.45268992770E+02  0.71105500466E+03  0.71353032695E+03  0.00000000000E+00 0.  1.
         21    1    1    2  505  501  0.62285252580E+02 -0.84269021068E+02  0.31425653184E+02  0.10939969049E+03  0.00000000000E+00 0. -1.
         -2    1    1    2    0  502 -0.56714147213E+02  0.29051857424E+02 -0.72178186321E+03  0.72458923741E+03  0.00000000000E+00 0. -1.
<scales pt_clust_3="34.33382" pt_clust_4="54.97976" pt_clust_5="64.31750" pt_clust_6="14000.00000"></scales>
<clustering>
<clus scale="   34.334">  1  3  2 -1</clus>
<clus scale="   54.980">  1  4  2 -1</clus>
<clus scale="   64.318">  1  5  2 -1</clus>
<clus scale="   34.334">  1  3  2 -1</clus>
</clustering>
</event>
<event>
 6    0  0.3584505E+002  0.1212646E+03  0.7546771E-02  0.1241025E+00
          2   -1    0    0  504    0 -0.00000000000E+00  0.00000000000E+00  0.88109916037E+02  0.88109916037E+02  0.00000000000E+00 0. -1.
         21   -1    0    0  505  502  0.00000000000E+00 -0.00000000000E+00 -0.76268456059E+03  0.76268456059E+03  0.00000000000E+00 0. -1.
         21    1    1    2  503  502 -0.20654194432E+02  0.28140211960E+02 -0.65647624035E+02  0.74351044500E+02  0.00000000000E+00 0.  1.
         21    1    1    2  504  503  0.15099214842E+03 -0.11575213466E+02 -0.55240287712E+03  0.57278403706E+03  0.00000000000E+00 0. -1.
         21    1    1    2  505  501 -0.88596397604E+02 -0.40199458343E+02 -0.99568861346E+02  0.13920946904E+03  0.00000000000E+00 0. -1.
          2    1    1    2  501    0 -0.41741556385E+02  0.23634459849E+02  0.43044717955E+02  0.64449926033E+02  0.00000000000E+00 0. -1.
<scales pt_clust_3="34.90655" pt_clust_4="121.26458" pt_clust_5="14000.00000" pt_clust_6="48.46060"></scales>
<clustering>
<clus scale="   34.907">  2  3  1 -1</clus>
<clus scale="   48.461">  1  6  2 -1</clus>
<clus scale="  121.265">  2  4  1 -1</clus>
<clus scale="   34.907">  2  3  1 -1</clus>
</clustering>
</event>
<event>
 6    0  0.3584505E+002  0.1350493E+03  0.7546771E-02  0.1220150E+00
         21   -1    0    0  505  502  0.00000000000E+00  0.00000000000E+00  0.22390245570E+03  0.22390245570E+03  0.00000000000E+00 0. -1.
          3   -1    0    0  503    0 -0.00000000000E+00 -0.00000000000E+00 -0.74777810268E+03  0.74777810268E+03  0.00000000000E+00 0.  1.
         21    1    1    2  503  504 -0.91223352931E+02 -0.16066507594E+02 -0.86149862131E+02  0.12649755544E+03  0.00000000000E+00 0.  1.
         21    1    1    2  504  502 -0.35607596115E+02 -0.23670663957E+02  0.19306995016E+03  0.19774783662E+03  0.00000000000E+00 0. -1.
         21    1    1    2  505  501  0.94753322544E+02  0.21017424777E+02 -0.31907841137E+03  0.33351305354E+03  0.00000000000E+00 0.  1.
          3    1    1    2  501    0  0.32077626501E+02  0.18719746774E+02 -0.31171732364E+03  0.31392211279E+03  0.00000000000E+00 0.  1.
<scales pt_clust_3="120.97276" pt_clust_4="42.75747" pt_clust_5="37.13620" pt_clust_6="37.13620"></scales>
<clustering>
<clus scale="   37.136">  5  6 -1 -1</clus>
<clus scale="   42.757">  1  4  2 -1</clus>
<clus scale="  120.973">  1  3  2 -1</clus>
<clus scale="   42.757">  1  3  2 -1</clus>
</clustering>
</event>
<event>
 6    0  0.3584505E+002  0.1006920E+03  0.7546771E-02  0.1278847E+00
         21   -1    0    0  505  502  0.00000000000E+00  0.00000000000E+00  0.11605735506E+03  0.11605735506E+03  0.00000000000E+00 0.  1.
         -3   -1    0    0    0  501 -0.00000000000E+00 -0.00000000000E+00 -0.76241258946E+03  0.76241258946E+03  0.00000000000E+00 0.  1.
         21    1    1    2  503  504  0.43428869606E+02 -0.56269243734E+02  0.71078908978E+02  0.10052117094E+03  0.00000000000E+00 0.  1.
         21    1    1    2  504  502 -0.34825050214E+02  0.45865416271E+01 -0.16098729132E+02  0.38639223157E+02  0.00000000000E+00 0.  1.
         21    1    1    2  505  501 -0.14657175698E+02 -0.50962201982E+02 -0.31605426484E+02  0.61732340094E+02  0.00000000000E+00 0.  1.
         -3    1    1    2    0  503  0.60533563068E+01  0.10264490409E+03 -0.66972998775E+03  0.67757721033E+03  0.00000000000E+00 0.  1.
<scales pt_clust_3="14000.00000" pt_clust_4="35.12578" pt_clust_5="54.00951" pt_clust_6="100.69205"></scales>
<clustering>
<clus scale="   35.126">  1  4  2 -1</clus>
<clus scale="   54.010">  1  5  2 -1</clus>
<clus scale="  100.692">  2  6  1 -1</clus>
<clus scale="   35.126">  1  3  2 -1</clus>
</clustering>
</event>
<event>
 6    0  0.3584505E+002  0.1163687E+03  0.7546771E-02  0.1249211E+00
          1   -1    0    0  505    0 -0.00000000000E+00  0.00000000000E+00  0.22845097569E+04  0.22845097569E+04  0.00000000000E+00 0. -1.
         21   -1    0    0  503  502  0.00000000000E+00 -0.00000000000E+00 -0.32908773703E+02  0.32908773703E+02  0.00000000000E+00 0.  1.
         21    1    1    2  503  501 -0.36550724151E+02 -0.90891305885E+02  0.53530279650E+03  0.54419322750E+03  0.00000000000E+00 0.  1.
         21    1    1    2  504  502  0.73290454947E+01  0.54648481237E+02  0.19325759060E+03  0.20096932038E+03  0.00000000000E+00 0.  1.
         21    1    1    2  505  504 -0.33177097288E+02  0.96624802485E+02  0.88716190299E+02  0.13530570816E+03  0.00000000000E+00 0.  1.
          1    1    1    2  501    0  0.62398775944E+02 -0.60381977838E+02  0.14343244058E+04  0.14369502746E+04  0.00000000000E+00 0. -1.
<scales pt_clust_3="116.36867" pt_clust_4="55.13775" pt_clust_5="14000.00000" pt_clust_6="85.37500"></scales>
<clustering>
<clus scale="   55.138">  2  4  1 -1</clus>
<clus scale="   85.375">  1  6  2 -1</clus>
<clus scale="  116.369">  1  3  2 -1</clus>
<clus scale="   55.138">  2  3  1 -1</clus>
</clustering>
</event>
<event>
 6    0  0.3584505E+002  0.1010644E+03  0.7546771E-02  0.1278073E+00
         21   -1    0    0  505  502  0.00000000000E+00  0.00000000000E+00  0.24986670989E+04  0.24986670989E+04  0.00000000000E+00 0. -1.
          2   -1    0    0  504    0 -0.00000000000E+00 -0.00000000000E+00 -0.84652696502E+03  0.84652696502E+03  0.00000000000E+00 0. -1.
         21    1    1    2  503  501  0.81171219373E+02  0.22183526006E+02  0.24565746680E+03  0.25966991869E+03  0.00000000000E+00 0. -1.
         21    1    1    2  504  502 -0.21084878245E+02  0.54620501961E+02  0.22187666851E+03  0.22947162647E+03  0.00000000000E+00 0. -1.
         21    1    1    2  505  503 -0.95272700640E+02 -0.26655860662E+01  0.20171867469E+04  0.20194371406E+04  0.00000000000E+00 0. -1.
          2    1    1    2  501    0  0.35186359512E+02 -0.74138441900E+02 -0.83258074835E+03  0.83661537817E+03  0.00000000000E+00 0. -1.
<scales pt_clust_3="14000.00000" pt_clust_4="58.54888" pt_clust_5="101.06440" pt_clust_6="82.01272"></scales>
<clustering>
<clus scale="   58.549">  1  4  2 -1</clus>
<clus scale="   82.013">  2  6  1 -1</clus>
<clus scale="  101.064">  1  5  2 -1</clus>
<clus scale="   58.549">  1  3  2 -1</clus>
</clustering>
</event>
<event>
 6    0  0.3584505E+002  0.9900833E+02  0.7546771E-02  0.1282395E+00
         21   -1    0    0  504  502  0.00000000000E+00  0.00000000000E+00  0.44649907425E+03  0.44649907425E+03  0.00000000000E+00 0. -1.
          2   -1    0    0  503    0 -0.00000000000E+00 -0.00000000000E+00 -0.45226364631E+03  0.45226364631E+03  0.00000000000E+00 0. -1.
         21    1    1    2  503  502  0.53025536573E+02  0.12939171397E+03 -0.55024204920E+02  0.15027170825E+03  0.00000000000E+00 0. -1.
         21    1    1    2  504  505 -0.13916838120E+01 -0.33244123622E+02  0.37989873259E+03  0.38135305894E+03  0.00000000000E+00 0. -1.
         21    1    1    2  505  501 -0.30288899932E+02 -0.62030752646E+02 -0.54149298374E+02  0.87734703780E+02  0.00000000000E+00 0.  1.
          2    1    1    2  501    0 -0.21344952828E+02 -0.34116837702E+02 -0.27648980136E+03  0.27940324959E+03  0.00000000000E+00 0. -1.
<scales pt_clust_3="14000.00000" pt_clust_4="33.27324" pt_clust_5="99.00833" pt_clust_6="40.88501"></scales>
<clustering>
<clus scale="   33.273">  1  4  2 -1</clus>
<clus scale="   40.885">  2  6  1 -1</clus>
<clus scale="   99.008">  2  5  1 -1</clus>
<clus scale="   33.273">  1  3  2 -1</clus>
</clustering>
</event>
<event>
 6    0  0.3584505E+002  0.1607887E+03  0.7546771E-02  0.1187809E+00
          1   -1    0    0  503    0 -0.00000000000E+00  0.00000000000E+00  0.86808547785E+03  0.86808547785E+03  0.00000000000E+00 0. -1.
         21   -1    0    0  505  502  0.00000000000E+00 -0.00000000000E+00 -0.39702787804E+03  0.39702787804E+03  0.00000000000E+00 0.  1.
         21    1    1    2  503  504  0.72147693341E+02  0.43353450458E+02  0.91572423408E+02  0.12437974132E+03  0.00000000000E+00 0.  1.
         21    1    1    2  504  502  0.16263065777E+03 -0.19642551230E+02 -0.23060527269E+03  0.28286631553E+03  0.00000000000E+00 0.  1.
         21    1    1    2  505  501 -0.15454448902E+03 -0.92094031951E+02 -0.52133110460E+02  0.18730502133E+03  0.00000000000E+00 0.  1.
          1    1    1    2  501    0 -0.80233862091E+02  0.68383132723E+02  0.66222355955E+03  0.67056227772E+03  0.00000000000E+00 0. -1.
<scales pt_clust_3="84.17132" pt_clust_4="14000.00000" pt_clust_5="160.78870" pt_clust_6="107.73810"></scales>
<clustering>
<clus scale="   84.171">  1  3  2 -1</clus>
<clus scale="  107.738">  1  6  2 -1</clus>
<clus scale="  160.789">  1  5  2 -1</clus>
<clus scale="  160.789">  2  3  1 -1</clus>
</clustering>
</event>
<event>
 6    0  0.3584505E+002  0.1176706E+03  0.7546771E-02  0.1246990E+00
          1   -1    0    0  505    0 -0.00000000000E+00  0.00000000000E+00  0.84708632238E+03  0.84708632238E+03  0.00000000000E+00 0.  1.
         21   -1    0    0  504  502  0.00000000000E+00 -0.00000000000E+00 -0.14122740709E+03  0.14122740709E+03  0.00000000000E+00 0. -1.
         21    1    1    2  503  501 -0.46159993967E+02 -0.35114362193E+02  0.45037798128E+02  0.73431374327E+02  0.00000000000E+00 0.  1.
         21    1    1    2  504  503 -0.16037389878E+02  0.29197037439E+02 -0.53614143859E+01  0.33740326518E+02  0.00000000000E+00 0.  1.
         21    1    1    2  505  502  0.15260368965E+03 -0.66246125968E+02 -0.35400181903E+02  0.17008706059E+03  0.00000000000E+00 0. -1.
          1    1    1    2  501    0 -0.90406305809E+02  0.72163450723E+02  0.70158271345E+03  0.71105496803E+03  0.00000000000E+00 0.  1.
<scales pt_clust_3="57.55324" pt_clust_4="33.31163" pt_clust_5="117.67061" pt_clust_6="14000.00000"></scales>
<clustering>
<clus scale="   33.312">  2  4  1 -1</clus>
<clus scale="   57.553">  2  3  1 -1</clus>
<clus scale="  117.671">  2  5  1 -1</clus>
<clus scale="   33.312">  2  3  1 -1</clus>
</clustering>
</event>
<event>
 6    0  0.3584505E+002  0.1030803E+03  0.7546771E-02  0.1273949E+00
         21   -1    0    0  505  502  0.00000000000E+00  0.00000000000E+00  0.14531065187E+03  0.14531065187E+03  0.00000000000E+00 0.  1.
          1   -1    0    0  503    0 -0.00000000000E+00 -0.00000000000E+00 -0.12441439026E+04  0.12441439026E+04  0.00000000000E+00 0. -1.
         21    1    1    2  503  502 -0.16291279278E+02  0.25278294483E+02  0.78765686021E+02  0.84311513134E+02  0.00000000000E+00 0.  1.
         21    1    1    2  504  501  0.45597817563E+02 -0.69481368314E+02 -0.12388908218E+03  0.14918219127E+03  0.00000000000E+00 0. -1.
         21    1    1    2  505  504 -0.45830169236E+02  0.83514263968E+02  0.59450171088E+01  0.95448310235E+02  0.00000000000E+00 0.  1.
          1    1    1    2  501    0  0.16523630951E+02 -0.39311190136E+02 -0.10596548717E+04  0.10605125398E+04  0.00000000000E+00 0. -1.
<scales pt_clust_3="30.07321" pt_clust_4="103.08030" pt_clust_5="14000.00000" pt_clust_6="42.44356"></scales>
<clustering>
<clus scale="   30.073">  1  3  2 -1</clus>
<clus scale="   42.444">  2  6  1 -1</clus>
<clus scale="  103.080">  2  4  1 -1</clus>
<clus scale="   30.073">  1  3  2 -1</clus>
</clustering>
</event>
<event>
 6    0  0.3584505E+002  0.1556364E+03  0.7546771E-02  0.1193713E+00
         21   -1    0    0  505  502  0.00000000000E+00  0.00000000000E+00  0.13539090051E+04  0.13539090051E+04  0.00000000000E+00 0. -1.
          1   -1    0    0  503    0 -0.00000000000E+00 -0.00000000000E+00 -0.73673879293E+03  0.73673879293E+03  0.00000000000E+00 0. -1.
         21    1    1    2  503  504 -0.15232637036E+02  0.36482183730E+02 -0.53502482382E+01  0.39894963554E+02  0.00000000000E+00 0.  1.
         21    1    1    2  504  502  0.45911263537E+02 -0.11038801939E+03  0.25712521385E+03  0.28356081278E+03  0.00000000000E+00 0. -1.
         21    1    1    2  505  501  0.20084670074E+02 -0.35374903914E+02  0.10607221037E+04  0.10615018413E+04  0.00000000000E+00 0. -1.
          1    1    1    2  501    0 -0.50763296575E+02  0.10928073958E+03 -0.69532685719E+03  0.70569018036E+03  0.00000000000E+00 0. -1.
<scales pt_clust_3="39.53458" pt_clust_4="14000.00000" pt_clust_5="40.65753" pt_clust_6="155.63638"></scales>
<clustering>
<clus scale="   39.535">  2  3  1 -1</clus>
<clus scale="   40.658">  1  5  2 -1</clus>
<clus scale="  155.636">  2  6  1 -1</clus>
<clus scale="   40.658">  1  3  2 -1</clus>
</clustering>
</event>
<event>
 6    0  0.3584505E+002  0.1570579E+03  0.7546771E-02  0.1192059E+00
         21   -1    0    0  503  502  0.00000000000E+00  0.00000000000E+00  0.52508859122E+02  0.52508859122E+02  0.00000000000E+00 0.  1.
          2   -1    0    0  505    0 -0.00000000000E+00 -0.00000000000E+00 -0.26151796213E+04  0.26151796213E+04  0.00000000000E+00 0.  1.
         21    1    1    2  503  504  0.18689297527E+02 -0.26327024576E+02 -0.52973427293E+01  0.32717944695E+02  0.00000000000E+00 0.  1.
         21    1    1    2  504  501 -0.19208459577E+03  0.19932188902E+02 -0.13826534706E+04  0.13960746412E+04  0.00000000000E+00 0.  1.
         21    1    1    2  505  502  0.13636098212E+03  0.98117293691E+01 -0.11535436105E+03  0.17887765677E+03  0.00000000000E+00 0.  1.
          2    1    1    2  501    0  0.37034316123E+02 -0.34168936953E+01 -0.10593655877E+04  0.10600182377E+04  0.00000000000E+00 0.  1.
<scales pt_clust_3="32.28625" pt_clust_4="14000.00000" pt_clust_5="157.05788" pt_clust_6="37.36905"></scales>
<clustering>
<clus scale="   32.286">  1  3  2 -1</clus>
<clus scale="   37.369">  2  6  1 -1</clus>
<clus scale="  157.058">  1  5  2 -1</clus>
<clus scale="   32.286">  1  3  2 -1</clus>
</clustering>
</event>
<event>
 6    0  0.3584505E+002  0.1131758E+03  0.7546771E-02  0.1254799E+00
         21   -1    0    0  504  502  0.00000000000E+00  0.00000000000E+00  0.38456540822E+03  0.38456540822E+03  0.00000000000E+00 0. -1.
          2   -1    0    0  503    0 -0.00000000000E+00 -0.00000000000E+00 -0.17840667688E+04  0.17840667688E+04  0.00000000000E+00 0. -1.
         21    1    1    2  503  502 -0.92648051379E+02 -0.15862065194E+03 -0.91201331470E+03  0.93032922067E+03  0.00000000000E+00 0. -1.
         21    1    1    2  504  505  0.21890545688E+02  0.32823135897E+02  0.32038071384E+03  0.32280079932E+03  0.00000000000E+00 0. -1.
         21    1    1    2  505  501 -0.12890380548E+02  0.82898730921E+02  0.16742923948E+02  0.85549324961E+02  0.00000000000E+00 0. -1.
          2    1    1    2  501    0  0.83647886238E+02  0.42898785120E+02 -0.82461168364E+03  0.82995283205E+03  0.00000000000E+00 0. -1.
<scales pt_clust_3="113.17577" pt_clust_4="39.45319" pt_clust_5="14000.00000" pt_clust_6="95.47147"></scales>
<clustering>
<clus scale="   39.453">  1  4  2 -1</clus>
<clus scale="   95.471">  2  6  1 -1</clus>
<clus scale="  113.176">  2  3  1 -1</clus>
<clus scale="   39.453">  1  3  2 -1</clus>
</clustering>
</event>
<event>
 6    0  0.3584505E+002  0.9176562E+02  0.7546771E-02  0.1298631E+00
          3   -1    0    0  505    0 -0.00000000000E+00  0.00000000000E+00  0.78902701726E+03  0.78902701726E+03  0.00000000000E+00 0. -1.
         21   -1    0    0  503  502  0.00000000000E+00 -0.00000000000E+00 -0.60296697556E+03  0.60296697556E+03  0.00000000000E+00 0. -1.
         21    1    1    2  503  504 -0.18219162629E+02  0.29403650033E+02 -0.77812484409E+02  0.85154537472E+02  0.00000000000E+00 0.  1.
         21    1    1    2  504  501  0.33343638922E+02  0.26848850785E+02 -0.38605153579E+03  0.38841787720E+03  0.00000000000E+00 0. -1.
         21    1    1    2  505  502  0.76858270123E+02 -0.59251293896E+02 -0.11357866013E+03  0.14939217366E+03  0.00000000000E+00 0. -1.
          3    1    1    2  501    0 -0.91982746415E+02  0.29987930778E+01  0.76350272204E+03  0.76902940448E+03  0.00000000000E+00 0. -1.
<scales pt_clust_3="34.59064" pt_clust_4="52.56094" pt_clust_5="91.76562" pt_clust_6="14000.00000"></scales>
<clustering>
<clus scale="   34.591">  2  3  1 -1</clus>
<clus scale="   52.561">  2  4  1 -1</clus>
<clus scale="   91.766">  2  5  1 -1</clus>
<clus scale="   34.591">  2  3  1 -1</clus>
</clustering>
</event>
<event>
 6    0  0.3584505E+002  0.8514765E+02  0.7546771E-02  0.1315047E+00
         21   -1    0    0  503  502  0.00000000000E+00  0.00000000000E+00  0.40037782317E+03  0.40037782317E+03  0.00000000000E+00 0.  1.
          2   -1    0    0  504    0 -0.00000000000E+00 -0.00000000000E+00 -0.10898014766E+04  0.10898014766E+04  0.00000000000E+00 0. -1.
         21    1    1    2  503  501  0.62019301352E+02  0.30226077515E+02  0.45293100869E+02  0.82531657493E+02  0.00000000000E+00 0. -1.
         21    1    1    2  504  505  0.33175831836E+01 -0.75348732155E+02 -0.76851294519E+02  0.10767803520E+03  0.00000000000E+00 0. -1.
         21    1    1    2  505  502 -0.13580981219E+03  0.10127621072E+02  0.30493235126E+03  0.33396199281E+03  0.00000000000E+00 0.  1.
          2    1    1    2  501    0  0.70472927658E+02  0.34995033568E+02 -0.96279781103E+03  0.96600761427E+03  0.00000000000E+00 0. -1.
<scales pt_clust_3="68.99282" pt_clust_4="74.22005" pt_clust_5="85.14765" pt_clust_6="14000.00000"></scales>
<clustering>
<clus scale="   68.993">  1  3  2 -1</clus>
<clus scale="   74.220">  2  4  1 -1</clus>
<clus scale="   85.148">  1  5  2 -1</clus>
<clus scale="   68.993">  1  3  2 -1</clus>
</clustering>
</event>
<event>
 6    0  0.3584505E+002  0.7779306E+02  0.7546771E-02  0.1335434E+00
         21   -1    0    0  505  502  0.00000000000E+00  0.00000000000E+00  0.10293210351E+04  0.10293210351E+04  0.00000000000E+00 0.  1.
          2   -1    0    0  502    0 -0.00000000000E+00 -0.00000000000E+00 -0.40965778752E+03  0.40965778752E+03  0.00000000000E+00 0. -1.
         21    1    1    2  503  504 -0.59274600924E+02 -0.35117655379E+02  0.22960458713E+03  0.23971857347E+03  0.00000000000E+00 0.  1.
         21    1    1    2  504  501  0.13602356045E+03  0.25904933246E+02  0.26723489865E+02  0.14102347136E+03  0.00000000000E+00 0.  1.
         21    1    1    2  505  503 -0.15099027018E+02  0.38224536605E+02  0.70684299275E+03  0.70803680146E+03  0.00000000000E+00 0.  1.
          2    1    1    2  501    0 -0.61649932503E+02 -0.29011814472E+02 -0.34350782215E+03  0.35019997635E+03  0.00000000000E+00 0. -1.
<scales pt_clust_3="14000.00000" pt_clust_4="77.79306" pt_clust_5="41.09861" pt_clust_6="68.10932"></scales>
<clustering>
<clus scale="   41.099">  1  5  2 -1</clus>
<clus scale="   68.109">  2  6  1 -1</clus>
<clus scale="   77.793">  2  4  1 -1</clus>
<clus scale="   41.099">  1  3  2 -1</clus>
</clustering>
</event>
<event>
 6    0  0.3584505E+002  0.1127573E+03  0.7546771E-02  0.1255547E+00
          2   -1    0    0  505    0 -0.00000000000E+00  0.00000000000E+00  0.18353509045E+04  0.18353509045E+04  0.00000000000E+00 0.  1.
         21   -1    0    0  503  502  0.00000000000E+00 -0.00000000000E+00 -0.45379571227E+03  0.45379571227E+03  0.00000000000E+00 0.  1.
         21    1    1    2  503  501  0.11647901863E+03  0.32978241945E+02  0.86045834133E+03  0.86893238137E+03  0.00000000000E+00 0.  1.
         21    1    1    2  504  502 -0.26368877067E+02 -0.11008564578E+03 -0.43788638225E+03  0.45228160569E+03  0.00000000000E+00 0.  1.
         21    1    1    2  505  504 -0.82763677247E+02  0.45087236435E+02  0.58889455754E+03  0.59638870300E+03  0.00000000000E+00 0. -1.
          2    1    1    2  501    0 -0.73464643170E+01  0.32020167401E+02  0.37008867561E+03  0.37154392671E+03  0.00000000000E+00 0.  1.
<scales pt_clust_3="14000.00000" pt_clust_4="112.75730" pt_clust_5="103.53706" pt_clust_6="32.85212"></scales>
<clustering>
<clus scale="   32.852">  1  6  2 -1</clus>
<clus scale="  103.537">  1  5  2 -1</clus>
<clus scale="  112.757">  2  4  1 -1</clus>
<clus scale="  112.757">  2  3  1 -1</clus>
</clustering>
</event>
<event>
 6    0  0.3584505E+002  0.6543574E+02  0.7546771E-02  0.1376340E+00
         21   -1    0    0  504  502  0.00000000000E+00  0.00000000000E+00  0.58764493284E+03  0.58764493284E+03  0.00000000000E+00 0.  1.
          2   -1    0    0  503    0 -0.00000000000E+00 -0.00000000000E+00 -0.29332472993E+04  0.29332472993E+04  0.00000000000E+00 0. -1.
         21    1    1    2  503  505 -0.92222611296E+02 -0.75927297547E+02 -0.10334706988E+04  0.10403516952E+04  0.00000000000E+00 0.  1.
         21    1    1    2  504  501  0.47915497773E+01  0.73923143100E+02 -0.68145200020E+01  0.74391045953E+02  0.00000000000E+00 0.  1.
         21    1    1    2  505  502  0.45315269329E+02 -0.48076747816E+02  0.54785411169E+03  0.55182331866E+03  0.00000000000E+00 0.  1.
          2    1    1    2  501    0  0.42115792189E+02  0.50080902262E+02 -0.18531712594E+04  0.18543261723E+04  0.00000000000E+00 0. -1.
<scales pt_clust_3="58.77101" pt_clust_4="65.39067" pt_clust_5="14000.00000" pt_clust_6="65.43574"></scales>
<clustering>
<clus scale="   65.436">  2  6  1 -1</clus>
<clus scale="   58.771">  2  3  1 -1</clus>
<clus scale="   65.391">  2  4  1 -1</clus>
<clus scale="   65.436">  1  3  2 -1</clus>
</clustering>
</event>
<event>
 6    0  0.3584505E+002  0.9898803E+02  0.7546771E-02  0.1282438E+00
         21   -1    0    0  505  502  0.00000000000E+00  0.00000000000E+00  0.84783278802E+03  0.84783278802E+03  0.00000000000E+00 0. -1.
         -1   -1    0    0    0  501 -0.00000000000E+00 -0.00000000000E+00 -0.18145781225E+03  0.18145781225E+03  0.00000000000E+00 0.  1.
         21    1    1    2  503  502 -0.25359672573E+02 -0.44604058020E+02  0.57124621902E+03  0.57354588111E+03  0.00000000000E+00 0. -1.
         21    1    1    2  504  503  0.33667604094E+02 -0.75504050571E+02  0.56578154899E+02  0.10017712728E+03  0.00000000000E+00 0.  1.
         21    1    1    2  505  501 -0.46700080881E+02  0.11482469438E+03  0.17458780554E+03  0.21411798111E+03  0.00000000000E+00 0. -1.
         -1    1    1    2    0  504  0.38392149359E+02  0.52834142132E+01 -0.13603720369E+03  0.14144961077E+03  0.00000000000E+00 0.  1.
<scales pt_clust_3="50.68154" pt_clust_4="14000.00000" pt_clust_5="98.98803" pt_clust_6="38.75399"></scales>
<clustering>
<clus scale="   38.754">  2  6  1 -1</clus>
<clus scale="   50.682">  1  3  2 -1</clus>
<clus scale="   98.988">  1  5  2 -1</clus>
<clus scale="   50.682">  1  3  2 -1</clus>
</clustering>
</event>
<event>
 6    0  0.3584505E+002  0.1024023E+03  0.7546771E-02  0.1275324E+00
          1   -1    0    0  505    0 -0.00000000000E+00  0.00000000000E+00  0.16352084187E+04  0.16352084187E+04  0.00000000000E+00 0. -1.
         21   -1    0    0  504  502  0.00000000000E+00 -0.00000000000E+00 -0.24872509781E+03  0.24872509781E+03  0.00000000000E+00 0.  1.
         21    1    1    2  503  501  0.61557385650E+02  0.87803594190E+02  0.37181895926E+02  0.11349571034E+03  0.00000000000E+00 0.  1.
         21    1    1    2  504  503 -0.34753746431E+02 -0.89785369803E+02 -0.30990596814E+02  0.10114174515E+03  0.00000000000E+00 0.  1.
         21    1    1    2  505  502  0.33926667130E+02 -0.26526880110E+02 -0.14053722654E+03  0.14698777552E+03  0.00000000000E+00 0.  1.
          1    1    1    2  501    0 -0.60730306348E+02  0.28508655724E+02  0.15208292483E+04  0.15223082855E+04  0.00000000000E+00 0. -1.
<scales pt_clust_3="14000.00000" pt_clust_4="102.40232" pt_clust_5="43.06616" pt_clust_6="66.79309"></scales>
<clustering>
<clus scale="   43.066">  2  5  1 -1</clus>
<clus scale="   66.793">  1  6  2 -1</clus>
<clus scale="  102.402">  2  4  1 -1</clus>
<clus scale="   43.066">  2  3  1 -1</clus>
</clustering>
</event>
<event>
 6    0  0.3584505E+002  0.1395788E+03  0.7546771E-02  0.1213897E+00
          2   -1    0    0  505    0 -0.00000000000E+00  0.00000000000E+00  0.27797394208E+04  0.27797394208E+04  0.00000000000E+00 0. -1.
         21   -1    0    0  503  502  0.00000000000E+00 -0.00000000000E+00 -0.24297725267E+03  0.24297725267E+03  0.00000000000E+00 0. -1.
         21    1    1    2  503  504  0.11032393749E+02  0.31545509918E+02  0.13263417721E+02  0.35954848873E+02  0.00000000000E+00 0. -1.
         21    1    1    2  504  501  0.88969195518E+02 -0.68726348550E+02 -0.44116521714E+02  0.12076877173E+03  0.00000000000E+00 0. -1.
         21    1    1    2  505  502  0.31423669459E+02 -0.11882016000E+02 -0.14546215224E+03  0.14929121555E+03  0.00000000000E+00 0. -1.
          2    1    1    2  501    0 -0.13142525873E+03  0.49062854632E+02  0.27130774244E+04  0.27167018373E+04  0.00000000000E+00 0. -1.
<scales pt_clust_3="33.41905" pt_clust_4="139.57882" pt_clust_5="39.30560" pt_clust_6="14000.00000"></scales>
<clustering>
<clus scale="   33.419">  2  3  1 -1</clus>
<clus scale="   39.306">  2  5  1 -1</clus>
<clus scale="  139.579">  2  4  1 -1</clus>
<clus scale="   33.419">  2  3  1 -1</clus>
</clustering>
</event>
<event>
 6    0  0.3584505E+002  0.2039362E+03  0.7546771E-02  0.1146460E+00
         21   -1    0    0  503  502  0.00000000000E+00  0.00000000000E+00  0.35337319659E+03  0.35337319659E+03  0.00000000000E+00 0.  1.
          2   -1    0    0  505    0 -0.00000000000E+00 -0.00000000000E+00 -0.91317359918E+03  0.91317359918E+03  0.00000000000E+00 0.  1.
         21    1    1    2  503  504 -0.14636450354E+01  0.19227914412E+03  0.93048011270E+02  0.21361494312E+03  0.00000000000E+00 0.  1.
         21    1    1    2  504  501 -0.79338265935E+02 -0.23353188804E+03 -0.35622676323E+03  0.43327728998E+03  0.00000000000E+00 0.  1.
         21    1    1    2  505  502  0.44982742506E+02  0.24194399804E+01  0.15681168392E+03  0.16315393047E+03  0.00000000000E+00 0.  1.
          2    1    1    2  501    0  0.35819168465E+02  0.38833303934E+02 -0.45343333456E+03  0.45650063221E+03  0.00000000000E+00 0.  1.
<scales pt_clust_3="14000.00000" pt_clust_4="203.93624" pt_clust_5="45.04776" pt_clust_6="53.08683"></scales>
<clustering>
<clus scale="   45.048">  1  5  2 -1</clus>
<clus scale="   53.087">  2  6  1 -1</clus>
<clus scale="  203.936">  2  4  1 -1</clus>
<clus scale="   45.048">  1  3  2 -1</clus>
</clustering>
</event>
<event>
 6    0  0.3584505E+002  0.1078425E+03  0.7546771E-02  0.1264618E+00
          1   -1    0    0  503    0 -0.00000000000E+00  0.00000000000E+00  0.19060918216E+04  0.19060918216E+04  0.00000000000E+00 0.  1.
         21   -1    0    0  505  502  0.00000000000E+00 -0.00000000000E+00 -0.31545151297E+02  0.31545151297E+02  0.00000000000E+00 0.  1.
         21    1    1    2  503  504  0.27253670367E+02  0.13267836482E+02  0.33065174829E+03  0.33203821569E+03  0.00000000000E+00 0.  1.
         21    1    1    2  504  502 -0.30431019185E+02  0.13110550593E+02 -0.33988549445E+01  0.33308942950E+02  0.00000000000E+00 0. -1.
         21    1    1    2  505  501  0.54440309484E+02  0.88920513373E+02  0.28090246944E+03  0.29962777297E+03  0.00000000000E+00 0.  1.
          1    1    1    2  501    0 -0.51262960666E+02 -0.11529890045E+03  0.12663913076E+04  0.12726620413E+04  0.00000000000E+00 0.  1.
<scales pt_clust_3="30.31168" pt_clust_4="32.94796" pt_clust_5="107.84249" pt_clust_6="14000.00000"></scales>
<clustering>
<clus scale="   30.312">  1  3  2 -1</clus>
<clus scale="   32.948">  2  4  1 -1</clus>
<clus scale="  107.842">  2  5  1 -1</clus>
<clus scale="   32.948">  2  3  1 -1</clus>
</clustering>
</event>
<event>
 6    0  0.3584505E+002  0.1345800E+03  0.7546771E-02  0.1220814E+00
          3   -1    0    0  505    0 -0.00000000000E+00  0.00000000000E+00  0.23303202268E+03  0.23303202268E+03  0.00000000000E+00 0. -1.
         21   -1    0    0  503  502  0.00000000000E+00 -0.00000000000E+00 -0.44939808744E+03  0.44939808744E+03  0.00000000000E+00 0.  1.
         21    1    1    2  503  504  0.17613009944E+03  0.96681927098E+01 -0.52971649616E+02  0.18417731006E+03  0.00000000000E+00 0. -1.
         21    1    1    2  504  501 -0.10191120315E+03  0.33935072893E+02 -0.28720219203E+02  0.11118603101E+03  0.00000000000E+00 0. -1.
         21    1    1    2  505  502 -0.47725345024E+02 -0.29146346439E+01 -0.25388455039E+03  0.25834776674E+03  0.00000000000E+00 0.  1.
          3    1    1    2  501    0 -0.26493551263E+02 -0.40688630959E+02  0.11921035445E+03  0.12871900231E+03  0.00000000000E+00 0. -1.
<scales pt_clust_3="134.58004" pt_clust_4="14000.00000" pt_clust_5="47.81426" pt_clust_6="49.26352"></scales>
<clustering>
<clus scale="   47.814">  2  5  1 -1</clus>
<clus scale="   49.264">  1  6  2 -1</clus>
<clus scale="  134.580">  2  3  1 -1</clus>
<clus scale="   47.814">  2  3  1 -1</clus>
</clustering>
</event>
<event>
 6    0  0.3584505E+002  0.8719878E+02  0.7546771E-02  0.1309781E+00
         21   -1    0    0  503  502  0.00000000000E+00  0.00000000000E+00  0.91329929731E+02  0.91329929731E+02  0.00000000000E+00 0.  1.
          2   -1    0    0  504    0 -0.00000000000E+00 -0.00000000000E+00 -0.12813173327E+04  0.12813173327E+04  0.00000000000E+00 0. -1.
         21    1    1    2  503  505  0.33018233231E+02 -0.81995999039E+01  0.18264587380E+02  0.38613887612E+02  0.00000000000E+00 0.  1.
         21    1    1    2  504  502 -0.77488862107E+02 -0.83796816517E+02 -0.32949792364E+02  0.11879444021E+03  0.00000000000E+00 0.  1.
         21    1    1    2  505  501  0.63874128461E+02  0.26741912621E+02 -0.44331543956E+02  0.82221164956E+02  0.00000000000E+00 0. -1.
          2    1    1    2  501    0 -0.19403499585E+02  0.65254503800E+02 -0.11309706540E+04  0.11330177696E+04  0.00000000000E+00 0. -1.
<scales pt_clust_3="34.02113" pt_clust_4="87.19878" pt_clust_5="14000.00000" pt_clust_6="67.79884"></scales>
<clustering>
<clus scale="   34.021">  1  3  2 -1</clus>
<clus scale="   67.799">  2  6  1 -1</clus>
<clus scale="   87.199">  1  4  2 -1</clus>
<clus scale="   34.021">  1  3  2 -1</clus>
</clustering>
</event>
<event>
 6    0  0.3584505E+002  0.9877926E+02  0.7546771E-02  0.1282884E+00
         21   -1    0    0  504  502  0.00000000000E+00  0.00000000000E+00  0.35476399833E+02  0.35476399833E+02  0.00000000000E+00 0. -1.
          1   -1    0    0  505    0 -0.00000000000E+00 -0.00000000000E+00 -0.14889550709E+04  0.14889550709E+04  0.00000000000E+00 0.  1.
         21    1    1    2  503  502 -0.77171294739E+01  0.30673591226E+02  0.50085428369E+01  0.32023566125E+02  0.00000000000E+00 0. -1.
         21    1    1    2  504  501 -0.12858864709E+03 -0.82490201185E+01 -0.38398538852E+03  0.40502822752E+03  0.00000000000E+00 0. -1.
         21    1    1    2  505  503  0.78344538192E+02 -0.10104956465E+02 -0.28763656507E+03  0.29828638986E+03  0.00000000000E+00 0.  1.
          1    1    1    2  501    0  0.57961238369E+02 -0.12319614642E+02 -0.78686526031E+03  0.78909328723E+03  0.00000000000E+00 0.  1.
<scales pt_clust_3="31.62947" pt_clust_4="14000.00000" pt_clust_5="98.77926" pt_clust_6="58.37116"></scales>
<clustering>
<clus scale="   31.629">  1  3  2 -1</clus>
<clus scale="   58.371">  2  6  1 -1</clus>
<clus scale="   98.779">  1  5  2 -1</clus>
<clus scale="   31.629">  1  3  2 -1</clus>
</clustering>
</event>
<event>
 6    0  0.3584505E+002  0.9257673E+02  0.7546771E-02  0.1296729E+00
         21   -1    0    0  503  502  0.00000000000E+00  0.00000000000E+00  0.25694637276E+03  0.25694637276E+03  0.00000000000E+00 0. -1.
         -3   -1    0    0    0  501 -0.00000000000E+00 -0.00000000000E+00 -0.15852507431E+03  0.15852507431E+03  0.00000000000E+00 0.  1.
         21    1    1    2  503  504  0.65055902041E+02  0.26734611853E+02  0.10430009479E+03  0.12579952160E+03  0.00000000000E+00 0. -1.
         21    1    1    2  504  501  0.46523693084E+02  0.51675546443E+02  0.71688271339E+02  0.99870037378E+02  0.00000000000E+00 0. -1.
         21    1    1    2  505  502 -0.47569939505E+02 -0.28321285142E+02  0.23469035427E+02  0.60131439035E+02  0.00000000000E+00 0.  1.
         -3    1    1    2    0  505 -0.64009655620E+02 -0.50088873155E+02 -0.10103610311E+03  0.12967044906E+03  0.00000000000E+00 0.  1.
<scales pt_clust_3="36.62258" pt_clust_4="36.62258" pt_clust_5="55.36239" pt_clust_6="84.93389"></scales>
<clustering>
<clus scale="   36.623">  3  4 -1 -1</clus>
<clus scale="   55.362">  1  5  2 -1</clus>
<clus scale="   84.934">  2  6  1 -1</clus>
<clus scale="   55.362">  1  3  2 -1</clus>
</clustering>
</event>
<event>
 6    0  0.3584505E+002  0.9479726E+02  0.7546771E-02  0.1291633E+00
          1   -1    0    0  505    0 -0.00000000000E+00  0.00000000000E+00  0.32291486218E+03  0.32291486218E+03  0.00000000000E+00 0.  1.
         21   -1    0    0  503  502  0.00000000000E+00 -0.00000000000E+00 -0.35096568768E+03  0.35096568768E+03  0.00000000000E+00 0.  1.
         21    1    1    2  503  501 -0.61841606006E+01 -0.71120718601E+02 -0.26640705307E+03  0.27580630592E+03  0.00000000000E+00 0.  1.
         21    1    1    2  504  502  0.24314519304E+02 -0.21468850472E+02 -0.37943872893E+02  0.49918382182E+02  0.00000000000E+00 0.  1.
         21    1    1    2  505  504 -0.31820057684E+02  0.11991883714E+03  0.75911911654E+02  0.14544986044E+03  0.00000000000E+00 0.  1.
          1    1    1    2  501    0  0.13689698980E+02 -0.27329268066E+02  0.20038818882E+03  0.20270600131E+03  0.00000000000E+00 0.  1.
<scales pt_clust_3="94.79726" pt_clust_4="33.83948" pt_clust_5="14000.00000" pt_clust_6="30.56627"></scales>
<clustering>
<clus scale="   30.566">  1  6  2 -1</clus>
<clus scale="   33.839">  2  4  1 -1</clus>
<clus scale="   94.797">  2  3  1 -1</clus>
<clus scale="   33.839">  2  3  1 -1</clus>
</clustering>
</event>
<event>
 6    0  0.3584505E+002  0.1920526E+03  0.7546771E-02  0.1156623E+00
          2   -1    0    0  504    0 -0.00000000000E+00  0.00000000000E+00  0.29950771918E+04  0.29950771918E+04  0.00000000000E+00 0. -1.
         21   -1    0    0  503  502  0.00000000000E+00 -0.00000000000E+00 -0.54913359130E+03  0.54913359130E+03  0.00000000000E+00 0.  1.
         21    1    1    2  503  501 -0.13825320528E+03 -0.20617785065E+03 -0.14355761880E+02  0.24865506785E+03  0.00000000000E+00 0.  1.
         21    1    1    2  504  505 -0.33183810425E+02  0.53829041071E+02 -0.89430995420E+02  0.10952914625E+03  0.00000000000E+00 0.  1.
         21    1    1    2  505  502  0.32031150029E+02  0.22009544529E+02 -0.31377290562E+03  0.31617060414E+03  0.00000000000E+00 0.  1.
          2    1    1    2  501    0  0.13940586567E+03  0.13033926505E+03  0.28635032634E+04  0.28698559649E+04  0.00000000000E+00 0. -1.
<scales pt_clust_3="192.05256" pt_clust_4="66.14271" pt_clust_5="38.86405" pt_clust_6="14000.00000"></scales>
<clustering>
<clus scale="   38.864">  2  5  1 -1</clus>
<clus scale="   66.143">  2  4  1 -1</clus>
<clus scale="  192.053">  2  3  1 -1</clus>
<clus scale="   38.864">  2  3  1 -1</clus>
</clustering>
</event>
<event>
 6    0  0.3584505E+002  0.1089900E+03  0.7546771E-02  0.1262452E+00
         21   -1    0    0  505  502  0.00000000000E+00  0.00000000000E+00  0.25096042105E+02  0.25096042105E+02  0.00000000000E+00 0.  1.
          2   -1    0    0  504    0 -0.00000000000E+00 -0.00000000000E+00 -0.28515095949E+04  0.28515095949E+04  0.00000000000E+00 0. -1.
         21    1    1    2  503  501  0.11610626010E+03  0.11972686830E+02 -0.21322312086E+03  0.24308045609E+03  0.00000000000E+00 0.  1.
         21    1    1    2  504  502 -0.51346319814E+02 -0.82580472606E+02 -0.56860187909E+03  0.57685706715E+03  0.00000000000E+00 0. -1.
         21    1    1    2  505  503  0.14109359291E+02  0.32182900694E+02 -0.55782714338E+02  0.65928175582E+02  0.00000000000E+00 0.  1.
          2    1    1    2  501    0 -0.78869299572E+02  0.38424885083E+02 -0.19888058385E+04  0.19907399382E+04  0.00000000000E+00 0. -1.
<scales pt_clust_3="14000.00000" pt_clust_4="108.99003" pt_clust_5="35.13991" pt_clust_6="87.81617"></scales>
<clustering>
<clus scale="   35.140">  1  5  2 -1</clus>
<clus scale="   87.816">  2  6  1 -1</clus>
<clus scale="  108.990">  2  4  1 -1</clus>
<clus scale="   35.140">  1  3  2 -1</clus>
</clustering>
</event>
<event>
 6    0  0.3584505E+002  0.7077447E+02  0.7546771E-02  0.1357479E+00
         21   -1    0    0  505  502  0.00000000000E+00  0.00000000000E+00  0.95802976589E+03  0.95802976589E+03  0.00000000000E+00 0. -1.
          1   -1    0    0  504    0 -0.00000000000E+00 -0.00000000000E+00 -0.95645378356E+03  0.95645378356E+03  0.00000000000E+00 0.  1.
         21    1    1    2  503  502  0.58204805608E+02 -0.89841592509E+02  0.36109347009E+03  0.37662687807E+03  0.00000000000E+00 0. -1.
         21    1    1    2  504  503  0.13021189984E+01  0.71403503012E+02  0.51042585501E+02  0.87780984791E+02  0.00000000000E+00 0. -1.
         21    1    1    2  505  501 -0.31730796960E+02  0.53395792261E+02  0.51736344793E+03  0.52107858463E+03  0.00000000000E+00 0. -1.
          1    1    1    2  501    0 -0.27776127646E+02 -0.34957702764E+02 -0.92792352120E+03  0.92899710196E+03  0.00000000000E+00 0.  1.
<scales pt_clust_3="14000.00000" pt_clust_4="51.33455" pt_clust_5="70.77447" pt_clust_6="44.64924"></scales>
<clustering>
<clus scale="   44.649">  2  6  1 -1</clus>
<clus scale="   51.335">  2  4  1 -1</clus>
<clus scale="   70.774">  1  5  2 -1</clus>
<clus scale="   70.774">  1  3  2 -1</clus>
</clustering>
</event>
<event>
 6    0  0.3584505E+002  0.8196096E+02  0.7546771E-02  0.1323577E+00
          2   -1    0    0  504    0 -0.00000000000E+00  0.00000000000E+00  0.12813740584E+04  0.12813740584E+04  0.00000000000E+00 0.  1.
         21   -1    0    0  503  502  0.00000000000E+00 -0.00000000000E+00 -0.88598520265E+03  0.88598520265E+03  0.00000000000E+00 0.  1.
         21    1    1    2  503  505 -0.35052991832E+02  0.52548085822E+02 -0.57874772239E+03  0.58218462684E+03  0.00000000000E+00 0.  1.
         21    1    1    2  504  502 -0.54740425654E+02 -0.12451505477E+01  0.13969582630E+02  0.56508528910E+02  0.00000000000E+00 0.  1.
         21    1    1    2  505  501  0.11816535469E+03 -0.21253783038E+02 -0.27120950096E+03  0.29659630435E+03  0.00000000000E+00 0.  1.
          2    1    1    2  501    0 -0.28371937205E+02 -0.30049152236E+02  0.12313764965E+04  0.12320698009E+04  0.00000000000E+00 0.  1.
<scales pt_clust_3="62.86175" pt_clust_4="14000.00000" pt_clust_5="81.96096" pt_clust_6="41.32697"></scales>
<clustering>
<clus scale="   41.327">  1  6  2 -1</clus>
<clus scale="   62.862">  2  3  1 -1</clus>
<clus scale="   81.961">  2  5  1 -1</clus>
<clus scale="   62.862">  2  3  1 -1</clus>
</clustering>
</event>
<event>
 6    0  0.3584505E+002  0.1345412E+03  0.7546771E-02  0.1220869E+00
         21   -1    0    0  503  502  0.00000000000E+00  0.00000000000E+00  0.86608980262E+02  0.86608980262E+02  0.00000000000E+00 0. -1.
          2   -1    0    0  504    0 -0.00000000000E+00 -0.00000000000E+00 -0.21664042408E+04  0.21664042408E+04  0.00000000000E+00 0. -1.
         21    1    1    2  503  505  0.37129367768E+02 -0.16460884722E+02 -0.44714009158E+00  0.40617122140E+02  0.00000000000E+00 0. -1.
         21    1    1    2  504  502 -0.12729118791E+03  0.46770264428E+02 -0.93150852907E+02  0.16452229500E+03  0.00000000000E+00 0. -1.
         21    1    1    2  505  501  0.17546935240E+03 -0.40982188485E+02 -0.24280418129E+03  0.30236220640E+03  0.00000000000E+00 0. -1.
          2    1    1    2  501    0 -0.85307532255E+02  0.10672808779E+02 -0.17433930863E+04  0.17455115975E+04  0.00000000000E+00 0. -1.
<scales pt_clust_3="40.61466" pt_clust_4="14000.00000" pt_clust_5="134.54115" pt_clust_6="85.35361"></scales>
<clustering>
<clus scale="   40.615">  1  3  2 -1</clus>
<clus scale="   85.354">  2  6  1 -1</clus>
<clus scale="  134.541">  2  5  1 -1</clus>
<clus scale="   40.615">  1  3  2 -1</clus>
</clustering>
</event>
<event>
 6    0  0.3584505E+002  0.1936098E+03  0.7546771E-02  0.1155245E+00
          2   -1    0    0  505    0 -0.00000000000E+00  0.00000000000E+00  0.22887309273E+04  0.22887309273E+04  0.00000000000E+00 0. -1.
         21   -1    0    0  501  502  0.00000000000E+00 -0.00000000000E+00 -0.23195564439E+03  0.23195564439E+03  0.00000000000E+00 0. -1.
         21    1    1    2  503  502 -0.22153173511E+02 -0.20260431831E+02 -0.97366139271E+02  0.10188922058E+03  0.00000000000E+00 0. -1.
         21    1    1    2  504  503  0.20532139346E+03  0.88794613830E+02 -0.22810032930E+02  0.22485919074E+03  0.00000000000E+00 0. -1.
         21    1    1    2  505  504 -0.77623274945E+02 -0.46464616625E+02  0.28716940082E+03  0.30108237773E+03  0.00000000000E+00 0. -1.
          2    1    1    2  501    0 -0.10554494501E+03 -0.22069565373E+02  0.18897820543E+04  0.18928557827E+04  0.00000000000E+00 0. -1.
<scales pt_clust_3="30.02080" pt_clust_4="193.60975" pt_clust_5="92.01414" pt_clust_6="14000.00000"></scales>
<clustering>
<clus scale="   30.021">  2  3  1 -1</clus>
<clus scale="   92.014">  1  5  2 -1</clus>
<clus scale="  193.610">  2  4  1 -1</clus>
<clus scale="   30.021">  2  3  1 -1</clus>
</clustering>
</event>
<event>
 6    0  0.3584505E+002  0.1077650E+03  0.7546771E-02  0.1264766E+00
         21   -1    0    0  503  502  0.00000000000E+00  0.00000000000E+00  0.10630161428E+03  0.10630161428E+03  0.00000000000E+00 0.  1.
         -1   -1    0    0    0  501 -0.00000000000E+00 -0.00000000000E+00 -0.10878607563E+04  0.10878607563E+04  0.00000000000E+00 0.  1.
         21    1    1    2  503  505  0.49331633359E+02  0.19846575738E+02 -0.55221263088E+02  0.76660840821E+02  0.00000000000E+00 0.  1.
         21    1    1    2  504  502 -0.63144028838E+01  0.77638419853E+02  0.43082255011E+02  0.89015035909E+02  0.00000000000E+00 0.  1.
         21    1    1    2  505  501  0.46544078357E+02 -0.32006876774E+02 -0.39090691455E+01  0.56622188341E+02  0.00000000000E+00 0.  1.
         -1    1    1    2    0  504 -0.89561308832E+02 -0.65478118817E+02 -0.96551106476E+03  0.97186430547E+03  0.00000000000E+00 0.  1.
<scales pt_clust_3="53.17421" pt_clust_4="107.76500" pt_clust_5="65.74003" pt_clust_6="14000.00000"></scales>
<clustering>
<clus scale="   53.174">  1  3  2 -1</clus>
<clus scale="   65.740">  1  5  2 -1</clus>
<clus scale="  107.765">  1  4  2 -1</clus>
<clus scale="   53.174">  1  3  2 -1</clus>
</clustering>
</event>
<event>
 6    0  0.3584505E+002  0.1178096E+03  0.7546771E-02  0.1246755E+00
         21   -1    0    0  503  502  0.00000000000E+00  0.00000000000E+00  0.14595280172E+03  0.14595280172E+03  0.00000000000E+00 0.  1.
          2   -1    0    0  505    0 -0.00000000000E+00 -0.00000000000E+00 -0.37223344603E+04  0.37223344603E+04  0.00000000000E+00 0. -1.
         21    1    1    2  503  501 -0.11711401933E+02 -0.53215759178E+02 -0.47534204529E+01  0.54696151292E+02  0.00000000000E+00 0. -1.
         21    1    1    2  504  502 -0.40782869479E+02 -0.56437298090E+02  0.10313375254E+03  0.12443866751E+03  0.00000000000E+00 0.  1.
         21    1    1    2  505  504  0.74862542784E+02  0.38518570573E+01 -0.21486373043E+03  0.22756462768E+03  0.00000000000E+00 0.  1.
          2    1    1    2  501    0 -0.22368271373E+02  0.10580120021E+03 -0.34598982602E+04  0.34615878155E+04  0.00000000000E+00 0. -1.
<scales pt_clust_3="54.48921" pt_clust_4="117.80964" pt_clust_5="74.25534" pt_clust_6="14000.00000"></scales>
<clustering>
<clus scale="   54.489">  1  3  2 -1</clus>
<clus scale="   74.255">  2  5  1 -1</clus>
<clus scale="  117.810">  1  4  2 -1</clus>
<clus scale="   54.489">  1  3  2 -1</clus>
</clustering>
</event>
<event>
 6    0  0.3584505E+002  0.7745465E+02  0.7546771E-02  0.1336434E+00
         21   -1    0    0  504  502  0.00000000000E+00  0.00000000000E+00  0.25090482950E+02  0.25090482950E+02  0.00000000000E+00 0.  1.
          1   -1    0    0  503    0 -0.00000000000E+00 -0.00000000000E+00 -0.32902104051E+04  0.32902104051E+04  0.00000000000E+00 0.  1.
         21    1    1    2  503  502 -0.13784149632E+02 -0.29295209003E+02 -0.10334089195E+02  0.33985371133E+02  0.00000000000E+00 0.  1.
         21    1    1    2  504  505 -0.39485590869E+01 -0.52872958330E+02 -0.15331879797E+03  0.16222760139E+03  0.00000000000E+00 0.  1.
         21    1    1    2  505  501 -0.60066091572E+02  0.66201090468E+02 -0.23356257592E+03  0.25008397911E+03  0.00000000000E+00 0.  1.
          1    1    1    2  501    0  0.77798800290E+02  0.15967076865E+02 -0.28679044591E+04  0.28690039364E+04  0.00000000000E+00 0.  1.
<scales pt_clust_3="32.37610" pt_clust_4="63.29431" pt_clust_5="14000.00000" pt_clust_6="77.45465"></scales>
<clustering>
<clus scale="   32.376">  1  3  2 -1</clus>
<clus scale="   63.294">  1  4  2 -1</clus>
<clus scale="   77.455">  2  6  1 -1</clus>
<clus scale="   32.376">  1  3  2 -1</clus>
</clustering>
</event>
<event>
 6    0  0.3584505E+002  0.9743940E+02  0.7546771E-02  0.1285775E+00
          2   -1    0    0  503    0 -0.00000000000E+00  0.00000000000E+00  0.10018511288E+04  0.10018511288E+04  0.00000000000E+00 0.  1.
         21   -1    0    0  504  502  0.00000000000E+00 -0.00000000000E+00 -0.46335749253E+03  0.46335749253E+03  0.00000000000E+00 0.  1.
         21    1    1    2  503  502 -0.83748842576E+02  0.51963283132E+02 -0.40833238140E+03  0.42005878770E+03  0.00000000000E+00 0.  1.
         21    1    1    2  504  505  0.56279806014E+02 -0.67059442102E+02  0.46943466278E+02  0.99338181814E+02  0.00000000000E+00 0.  1.
         21    1    1    2  505  501  0.76591257263E+02  0.51812917410E+02  0.76124061648E+02  0.11977341884E+03  0.00000000000E+00 0.  1.
          2    1    1    2  501    0 -0.49122220701E+02 -0.36716758440E+02  0.82375848973E+03  0.82603823296E+03  0.00000000000E+00 0.  1.
<scales pt_clust_3="97.43940" pt_clust_4="14000.00000" pt_clust_5="58.58312" pt_clust_6="61.32791"></scales>
<clustering>
<clus scale="   61.328">  1  6  2 -1</clus>
<clus scale="   58.583">  1  5  2 -1</clus>
<clus scale="   97.439">  2  3  1 -1</clus>
<clus scale="   97.439">  2  3  1 -1</clus>
</clustering>
</event>
<event>
 6    0  0.3584505E+002  0.8596278E+02  0.7546771E-02  0.1312934E+00
          1   -1    0    0  505    0 -0.00000000000E+00  0.00000000000E+00  0.15004727468E+04  0.15004727468E+04  0.00000000000E+00 0. -1.
         21   -1    0    0  504  502  0.00000000000E+00 -0.00000000000E+00 -0.16065628988E+03  0.16065628988E+03  0.00000000000E+00 0. -1.
         21    1    1    2  503  501 -0.25229146864E+02  0.14420677632E+03  0.72867076407E+02  0.16352894243E+03  0.00000000000E+00 0. -1.
         21    1    1    2  504  503  0.36994271517E+02 -0.33350203923E+02 -0.10217486444E+03  0.11366844395E+03  0.00000000000E+00 0. -1.
         21    1    1    2  505  502 -0.20118529044E+02 -0.27074998797E+02  0.40784814498E+02  0.52926476024E+02  0.00000000000E+00 0.  1.
          1    1    1    2  501    0  0.83534043910E+01 -0.83781573597E+02  0.13283394304E+04  0.13310051742E+04  0.00000000000E+00 0. -1.
<scales pt_clust_3="85.96278" pt_clust_4="57.06964" pt_clust_5="33.73145" pt_clust_6="14000.00000"></scales>
<clustering>
<clus scale="   33.731">  2  5  1 -1</clus>
<clus scale="   57.070">  2  4  1 -1</clus>
<clus scale="   85.963">  2  3  1 -1</clus>
<clus scale="   33.731">  2  3  1 -1</clus>
</clustering>
</event>
<event>
 6    0  0.3584505E+002  0.1551708E+03  0.7546771E-02  0.1194259E+00
         21   -1    0    0  505  502  0.00000000000E+00  0.00000000000E+00  0.50361471221E+02  0.50361471221E+02  0.00000000000E+00 0.  1.
          2   -1    0    0  504    0 -0.00000000000E+00 -0.00000000000E+00 -0.31934659784E+04  0.31934659784E+04  0.00000000000E+00 0.  1.
         21    1    1    2  503  501 -0.13490573031E+03  0.40610623506E+01 -0.39352003438E+03  0.41602171308E+03  0.00000000000E+00 0.  1.
         21    1    1    2  504  502  0.16472261506E+03 -0.12613028292E+03 -0.35417807991E+03  0.41046863518E+03  0.00000000000E+00 0.  1.
         21    1    1    2  505  503 -0.11453565350E+02  0.98143043406E+02 -0.21386819598E+03  0.23559042082E+03  0.00000000000E+00 0. -1.
          2    1    1    2  501    0 -0.18363319404E+02  0.23926177168E+02 -0.21815381969E+04  0.21817466805E+04  0.00000000000E+00 0.  1.
<scales pt_clust_3="14000.00000" pt_clust_4="155.17077" pt_clust_5="104.61655" pt_clust_6="30.16079"></scales>
<clustering>
<clus scale="   30.161">  2  6  1 -1</clus>
<clus scale="  104.617">  1  5  2 -1</clus>
<clus scale="  155.171">  1  4  2 -1</clus>
<clus scale="  104.617">  1  3  2 -1</clus>
</clustering>
</event>
<event>
 6    0  0.3584505E+002  0.9062741E+02  0.7546771E-02  0.1301339E+00
          1   -1    0    0  505    0 -0.00000000000E+00  0.00000000000E+00  0.18805535450E+04  0.18805535450E+04  0.00000000000E+00 0.  1.
         21   -1    0    0  504  502  0.00000000000E+00 -0.00000000000E+00 -0.46554106372E+03  0.46554106372E+03  0.00000000000E+00 0.  1.
         21    1    1    2  503  502  0.42616498548E+02  0.78981448196E+02 -0.43028282218E+03  0.43954242363E+03  0.00000000000E+00 0.  1.
         21    1    1    2  504  501  0.13133558206E+02  0.37669198132E+02  0.34334805895E+02  0.52633997900E+02  0.00000000000E+00 0.  1.
         21    1    1    2  505  503 -0.29596291265E+02 -0.13603480698E+03  0.20602043772E+03  0.24864800406E+03  0.00000000000E+00 0. -1.
          1    1    1    2  501    0 -0.26153765489E+02  0.19384160652E+02  0.16049400598E+04  0.16052701831E+04  0.00000000000E+00 0.  1.
<scales pt_clust_3="90.62741" pt_clust_4="41.71287" pt_clust_5="14000.00000" pt_clust_6="32.55403"></scales>
<clustering>
<clus scale="   32.554">  1  6  2 -1</clus>
<clus scale="   41.713">  1  4  2 -1</clus>
<clus scale="   90.627">  2  3  1 -1</clus>
<clus scale="   90.627">  2  3  1 -1</clus>
</clustering>
</event>
<event>
 6    0  0.3584505E+002  0.1303001E+03  0.7546771E-02  0.1227011E+00
          1   -1    0    0  505    0 -0.00000000000E+00  0.00000000000E+00  0.75077763398E+03  0.75077763398E+03  0.00000000000E+00 0.  1.
         21   -1    0    0  503  502  0.00000000000E+00 -0.00000000000E+00 -0.52732326979E+02  0.52732326979E+02  0.00000000000E+00 0.  1.
         21    1    1    2  503  504 -0.22218611946E+02  0.13140898212E+03  0.14222321621E+03  0.19490877489E+03  0.00000000000E+00 0.  1.
         21    1    1    2  504  501  0.33112251460E+02  0.34547075621E+02  0.91672417762E+02  0.10341060782E+03  0.00000000000E+00 0.  1.
         21    1    1    2  505  502 -0.36954739561E+02 -0.12865957251E+03  0.22547156802E+03  0.26221435193E+03  0.00000000000E+00 0. -1.
          1    1    1    2  501    0  0.26061100047E+02 -0.37296485234E+02  0.23867810502E+03  0.24297622633E+03  0.00000000000E+00 0.  1.
<scales pt_clust_3="130.30006" pt_clust_4="46.93475" pt_clust_5="14000.00000" pt_clust_6="45.49955"></scales>
<clustering>
<clus scale="   45.500">  1  6  2 -1</clus>
<clus scale="   46.935">  1  4  2 -1</clus>
<clus scale="  130.300">  2  3  1 -1</clus>
<clus scale="  130.300">  2  3  1 -1</clus>
</clustering>
</event>
<event>
 6    0  0.3584505E+002  0.1577338E+03  0.7546771E-02  0.1191279E+00
         21   -1    0    0  504  502  0.00000000000E+00  0.00000000000E+00  0.60280568955E+03  0.60280568955E+03  0.00000000000E+00 0.  1.
          2   -1    0    0  502    0 -0.00000000000E+00 -0.00000000000E+00 -0.26721162871E+03  0.26721162871E+03  0.00000000000E+00 0.  1.
         21    1    1    2  503  501 -0.15098444935E+03  0.42530815612E+02  0.44713986913E+02  0.16310890487E+03  0.00000000000E+00 0.  1.
         21    1    1    2  504  505  0.13934771314E+03  0.14483573252E+02  0.41976809141E+03  0.44253000985E+03  0.00000000000E+00 0.  1.
         21    1    1    2  505  503 -0.37795670776E+02  0.25216428899E+02  0.46154196473E+02  0.64765661179E+02  0.00000000000E+00 0.  1.
          2    1    1    2  501    0  0.49432406983E+02 -0.82230817763E+02 -0.17504221395E+03  0.19961274236E+03  0.00000000000E+00 0.  1.
<scales pt_clust_3="31.57598" pt_clust_4="146.41644" pt_clust_5="31.57598" pt_clust_6="95.94514"></scales>
<clustering>
<clus scale="   31.576">  3  5 -1 -1</clus>
<clus scale="   95.945">  2  6  1 -1</clus>
<clus scale="  146.416">  1  4  2 -1</clus>
<clus scale="  146.416">  1  3  2 -1</clus>
</clustering>
</event>
<event>
 6    0  0.3584505E+002  0.9141938E+02  0.7546771E-02  0.1299450E+00
         21   -1    0    0  504  502  0.00000000000E+00  0.00000000000E+00  0.24815834907E+03  0.24815834907E+03  0.00000000000E+00 0. -1.
          1   -1    0    0  503    0 -0.00000000000E+00 -0.00000000000E+00 -0.30371302731E+03  0.30371302731E+03  0.00000000000E+00 0.  1.
         21    1    1    2  503  502  0.54838133254E+02 -0.10655208007E+03  0.10795312137E+02  0.12032084354E+03  0.00000000000E+00 0.  1.
         21    1    1    2  504  505 -0.34171629349E+02  0.34166589903E+01  0.52368420451E+02  0.62624478214E+02  0.00000000000E+00 0. -1.
         21    1    1    2  505  501 -0.23988867106E+02  0.67443125647E+02  0.11337440812E+03  0.13408130876E+03  0.00000000000E+00 0. -1.
          1    1    1    2  501    0  0.33223632004E+01  0.35692295437E+02 -0.23209281895E+03  0.23484474586E+03  0.00000000000E+00 0.  1.
<scales pt_clust_3="91.41938" pt_clust_4="34.34201" pt_clust_5="14000.00000" pt_clust_6="35.84914"></scales>
<clustering>
<clus scale="   34.342">  1  4  2 -1</clus>
<clus scale="   35.849">  2  6  1 -1</clus>
<clus scale="   91.419">  2  3  1 -1</clus>
<clus scale="   34.342">  1  3  2 -1</clus>
</clustering>
</event>
<event>
 6    0  0.3584505E+002  0.9199236E+02  0.7546771E-02  0.1298097E+00
          2   -1    0    0  503    0 -0.00000000000E+00  0.00000000000E+00  0.30584757328E+04  0.30584757328E+04  0.00000000000E+00 0.  1.
         21   -1    0    0  505  502  0.00000000000E+00 -0.00000000000E+00 -0.17119943883E+02  0.17119943883E+02  0.00000000000E+00 0.  1.
         21    1    1    2  503  504 -0.29645560561E+02  0.45902841389E+02  0.36721754054E+03  0.37126089505E+03  0.00000000000E+00 0.  1.
         21    1    1    2  504  502 -0.92255482326E+02 -0.88127986565E+02  0.86709802919E+03  0.87643402961E+03  0.00000000000E+00 0.  1.
         21    1    1    2  505  501  0.22849962921E+02  0.67402260304E+02  0.13387367121E+03  0.15161578197E+03  0.00000000000E+00 0.  1.
          2    1    1    2  501    0  0.99051079966E+02 -0.25177115127E+02  0.16731665480E+04  0.16762849700E+04  0.00000000000E+00 0.  1.
<scales pt_clust_3="54.64366" pt_clust_4="14000.00000" pt_clust_5="73.00781" pt_clust_6="91.99236"></scales>
<clustering>
<clus scale="   54.644">  1  3  2 -1</clus>
<clus scale="   73.008">  2  5  1 -1</clus>
<clus scale="   91.992">  1  6  2 -1</clus>
<clus scale="   73.008">  2  3  1 -1</clus>
</clustering>
</event>
<event>
 6    0  0.3584505E+002  0.1016504E+03  0.7546771E-02  0.1276863E+00
          2   -1    0    0  503    0 -0.00000000000E+00  0.00000000000E+00  0.34301477909E+03  0.34301477909E+03  0.00000000000E+00 0.  1.
         21   -1    0    0  505  502  0.00000000000E+00 -0.00000000000E+00 -0.25672014469E+03  0.25672014469E+03  0.00000000000E+00 0.  1.
         21    1    1    2  503  502  0.69259509906E+02  0.60831432722E+02 -0.39775268809E+01  0.92266806813E+02  0.00000000000E+00 0.  1.
         21    1    1    2  504  501 -0.77018463019E+02 -0.10037268521E+03  0.10270017001E+03  0.16295350411E+03  0.00000000000E+00 0.  1.
         21    1    1    2  505  504 -0.29989271207E+02  0.28116397934E+02 -0.17369591973E+03  0.17849414767E+03  0.00000000000E+00 0.  1.
          2    1    1    2  501    0  0.37748224320E+02  0.11424854559E+02  0.16126791100E+03  0.16602046518E+03  0.00000000000E+00 0.  1.
<scales pt_clust_3="101.65044" pt_clust_4="14000.00000" pt_clust_5="40.84699" pt_clust_6="39.43927"></scales>
<clustering>
<clus scale="   39.439">  1  6  2 -1</clus>
<clus scale="   40.847">  2  5  1 -1</clus>
<clus scale="  101.650">  2  3  1 -1</clus>
<clus scale="   40.847">  2  3  1 -1</clus>
</clustering>
</event>
<event>
 6    0  0.3584505E+002  0.1354817E+03  0.7546771E-02  0.1219541E+00
          2   -1    0    0  502    0 -0.00000000000E+00  0.00000000000E+00  0.49127956993E+03  0.49127956993E+03  0.00000000000E+00 0.  1.
         21   -1    0    0  505  502  0.00000000000E+00 -0.00000000000E+00 -0.41060796924E+03  0.41060796924E+03  0.00000000000E+00 0. -1.
         21    1    1    2  503  504  0.48844314205E+02  0.62428983282E+02 -0.21137888418E+03  0.22575246989E+03  0.00000000000E+00 0. -1.
         21    1    1    2  504  501 -0.13017814530E+03 -0.25161500078E+02  0.94338071622E+02  0.16272406815E+03  0.00000000000E+00 0. -1.
         21    1    1    2  505  503  0.55880227736E+02 -0.84757907004E+00 -0.15145018205E+03  0.16143257380E+03  0.00000000000E+00 0. -1.
          2    1    1    2  501    0  0.25453603357E+02 -0.36419904134E+02  0.34916259530E+03  0.35197842732E+03  0.00000000000E+00 0.  1.
<scales pt_clust_3="50.34800" pt_clust_4="121.85022" pt_clust_5="50.34800" pt_clust_6="44.43304"></scales>
<clustering>
<clus scale="   44.433">  1  6  2 -1</clus>
<clus scale="   50.348">  3  5 -1 -1</clus>
<clus scale="  121.850">  1  4  2 -1</clus>
<clus scale="  135.482">  2  3  1 -1</clus>
</clustering>
</event>
<event>
 6    0  0.3584505E+002  0.1121895E+03  0.7546771E-02  0.1256568E+00
          1   -1    0    0  503    0 -0.00000000000E+00  0.00000000000E+00  0.20156616410E+04  0.20156616410E+04  0.00000000000E+00 0. -1.
         21   -1    0    0  505  502  0.00000000000E+00 -0.00000000000E+00 -0.30890398888E+03  0.30890398888E+03  0.00000000000E+00 0.  1.
         21    1    1    2  503  502 -0.64583811405E+02 -0.10171133805E+03 -0.37248555879E+02  0.12610995162E+03  0.00000000000E+00 0.  1.
         21    1    1    2  504  501 -0.58127296992E+02  0.10886242919E+02 -0.16595778609E+02  0.61422412913E+02  0.00000000000E+00 0.  1.
         21    1    1    2  505  504  0.33555399500E+02  0.22757253347E+02 -0.18439737716E+03  0.18880214543E+03  0.00000000000E+00 0.  1.
          1    1    1    2  501    0  0.89155708897E+02  0.68067841779E+02  0.19449993638E+04  0.19482311200E+04  0.00000000000E+00 0. -1.
<scales pt_clust_3="112.18947" pt_clust_4="50.77734" pt_clust_5="40.54451" pt_clust_6="14000.00000"></scales>
<clustering>
<clus scale="   40.545">  2  5  1 -1</clus>
<clus scale="   50.777">  2  4  1 -1</clus>
<clus scale="  112.189">  2  3  1 -1</clus>
<clus scale="   40.545">  2  3  1 -1</clus>
</clustering>
</event>
<event>
 6    0  0.3584505E+002  0.1161081E+03  0.7546771E-02  0.1249659E+00
         21   -1    0    0  505  502  0.00000000000E+00  0.00000000000E+00  0.83205348960E+03  0.83205348960E+03  0.00000000000E+00 0.  1.
         -1   -1    0    0    0  501 -0.00000000000E+00 -0.00000000000E+00 -0.27980390411E+03  0.27980390411E+03  0.00000000000E+00 0.  1.
         21    1    1    2  503  502  0.22821584133E+02 -0.20353325006E+02  0.46565167027E+03  0.46665464807E+03  0.00000000000E+00 0.  1.
         21    1    1    2  504  503 -0.16181415371E+02 -0.67378081434E+02  0.26724434709E+03  0.27608184495E+03  0.00000000000E+00 0.  1.
         21    1    1    2  505  501 -0.56707836949E+02 -0.19635069573E+02  0.69810942310E+02  0.92059124452E+02  0.00000000000E+00 0.  1.
         -1    1    1    2    0  504  0.50067668187E+02  0.10736647601E+03 -0.25045737418E+03  0.27706177623E+03  0.00000000000E+00 0.  1.
<scales pt_clust_3="30.57912" pt_clust_4="14000.00000" pt_clust_5="57.02051" pt_clust_6="116.10809"></scales>
<clustering>
<clus scale="   30.579">  1  3  2 -1</clus>
<clus scale="   57.021">  1  5  2 -1</clus>
<clus scale="  116.108">  2  6  1 -1</clus>
<clus scale="   30.579">  1  3  2 -1</clus>
</clustering>
</event>
<event>
 6    0  0.3584505E+002  0.1889932E+03  0.7546771E-02  0.1159373E+00
         -3   -1    0    0    0  501 -0.00000000000E+00  0.00000000000E+00  0.63631251810E+03  0.63631251810E+03  0.00000000000E+00 0. -1.
         21   -1    0    0  503  502  0.00000000000E+00 -0.00000000000E+00 -0.13187641472E+03  0.13187641472E+03  0.00000000000E+00 0. -1.
         21    1    1    2  503  504 -0.29350260436E+02 -0.47564881884E+02 -0.20716579699E+02  0.59607318768E+02  0.00000000000E+00 0. -1.
         21    1    1    2  504  501 -0.91721138794E+01 -0.17433814773E+03  0.10938897250E+03  0.20601908828E+03  0.00000000000E+00 0. -1.
         21    1    1    2  505  502  0.10066272377E+02  0.20063552495E+03  0.19850490428E+03  0.28241837890E+03  0.00000000000E+00 0. -1.
         -3    1    1    2    0  505  0.28456101938E+02  0.21267504664E+02  0.21725880629E+03  0.22014414687E+03  0.00000000000E+00 0. -1.
<scales pt_clust_3="54.35630" pt_clust_4="14000.00000" pt_clust_5="188.99321" pt_clust_6="35.52543"></scales>
<clustering>
<clus scale="   35.525">  1  6  2 -1</clus>
<clus scale="   54.356">  2  3  1 -1</clus>
<clus scale="  188.993">  2  5  1 -1</clus>
<clus scale="   54.356">  2  3  1 -1</clus>
</clustering>
</event>
<event>
 6    0  0.3584505E+002  0.1044254E+03  0.7546771E-02  0.1271256E+00
          3   -1    0    0  504    0 -0.00000000000E+00  0.00000000000E+00  0.12074949530E+04  0.12074949530E+04  0.00000000000E+00 0.  1.
         21   -1    0    0  505  502  0.00000000000E+00 -0.00000000000E+00 -0.36038571247E+03  0.36038571247E+03  0.00000000000E+00 0.  1.
         21    1    1    2  503  501  0.62179295029E+02  0.32840994743E+02 -0.15893995805E+02  0.72093097927E+02  0.00000000000E+00 0. -1.
         21    1    1    2  504  502 -0.48069129212E+01  0.57525841690E+02  0.25072870249E+03  0.25728818692E+03  0.00000000000E+00 0. -1.
         21    1    1    2  505  503  0.45361307303E+02 -0.10318290933E+02 -0.30676770215E+03  0.31027494003E+03  0.00000000000E+00 0.  1.
          3    1    1    2  501    0 -0.10273368941E+03 -0.80048545500E+02  0.91904223601E+03  0.92822444061E+03  0.00000000000E+00 0.  1.
<scales pt_clust_3="14000.00000" pt_clust_4="56.90637" pt_clust_5="46.52005" pt_clust_6="104.42544"></scales>
<clustering>
<clus scale="   46.520">  2  5  1 -1</clus>
<clus scale="   56.906">  1  4  2 -1</clus>
<clus scale="  104.425">  1  6  2 -1</clus>
<clus scale="   46.520">  2  3  1 -1</clus>
</clustering>
</event>
<event>
 6    0  0.3584505E+002  0.1181485E+03  0.7546771E-02  0.1246183E+00
         21   -1    0    0  504  502  0.00000000000E+00  0.00000000000E+00  0.21622192124E+03  0.21622192124E+03  0.00000000000E+00 0. -1.
          2   -1    0    0  503    0 -0.00000000000E+00 -0.00000000000E+00 -0.27758046495E+04  0.27758046495E+04  0.00000000000E+00 0. -1.
         21    1    1    2  503  505  0.90900611638E+02  0.38815320807E+02  0.19375738534E+02  0.10072223970E+03  0.00000000000E+00 0. -1.
         21    1    1    2  504  501 -0.10408453482E+03  0.68059012513E+01 -0.50185851279E+03  0.51258353226E+03  0.00000000000E+00 0.  1.
         21    1    1    2  505  502  0.28641130533E+02 -0.95522085220E+01  0.14912467320E+03  0.15215034408E+03  0.00000000000E+00 0. -1.
          2    1    1    2  501    0 -0.15457207347E+02 -0.36069013537E+02 -0.22262246273E+04  0.22265704548E+04  0.00000000000E+00 0. -1.
<scales pt_clust_3="14000.00000" pt_clust_4="118.14849" pt_clust_5="30.19204" pt_clust_6="39.23503"></scales>
<clustering>
<clus scale="   30.192">  1  5  2 -1</clus>
<clus scale="   39.235">  2  6  1 -1</clus>
<clus scale="  118.148">  2  4  1 -1</clus>
<clus scale="   30.192">  1  3  2 -1</clus>
</clustering>
</event>
<event>
 6    0  0.3584505E+002  0.6954159E+02  0.7546771E-02  0.1361659E+00
          1   -1    0    0  503    0 -0.00000000000E+00  0.00000000000E+00  0.29867492041E+04  0.29867492041E+04  0.00000000000E+00 0.  1.
         21   -1    0    0  505  502  0.00000000000E+00 -0.00000000000E+00 -0.30763074207E+02  0.30763074207E+02  0.00000000000E+00 0.  1.
         21    1    1    2  503  502  0.10686619331E+03 -0.27464769646E+02  0.45753134287E+03  0.47064809206E+03  0.00000000000E+00 0.  1.
         21    1    1    2  504  501 -0.36673802614E+02  0.36711068373E+02  0.44331094033E+03  0.44633760783E+03  0.00000000000E+00 0. -1.
         21    1    1    2  505  504 -0.53737924449E+02 -0.43810618108E+02  0.30877539184E+02  0.75898334692E+02  0.00000000000E+00 0.  1.
          1    1    1    2  501    0 -0.16454466252E+02  0.34564319381E+02  0.20242663075E+04  0.20246282438E+04  0.00000000000E+00 0.  1.
<scales pt_clust_3="14000.00000" pt_clust_4="68.82426" pt_clust_5="69.54159" pt_clust_6="38.28109"></scales>
<clustering>
<clus scale="   38.281">  1  6  2 -1</clus>
<clus scale="   68.824">  1  4  2 -1</clus>
<clus scale="   69.542">  2  5  1 -1</clus>
<clus scale="   69.542">  2  3  1 -1</clus>
</clustering>
</event>
<event>
 6    0  0.3584505E+002  0.2785679E+03  0.7546771E-02  0.1096474E+00
          2   -1    0    0  503    0 -0.00000000000E+00  0.00000000000E+00  0.14632383641E+04  0.14632383641E+04  0.00000000000E+00 0.  1.
         21   -1    0    0  504  502  0.00000000000E+00 -0.00000000000E+00 -0.26331229288E+03  0.26331229288E+03  0.00000000000E+00 0.  1.
         21    1    1    2  503  505 -0.59529091568E+02 -0.97004408287E+02  0.10586299673E+02  0.11430502050E+03  0.00000000000E+00 0.  1.
         21    1    1    2  504  501 -0.63992805430E+02  0.27541486010E+03 -0.14807358671E+02  0.28313898032E+03  0.00000000000E+00 0.  1.
         21    1    1    2  505  502 -0.24635421505E+02 -0.16599706624E+03  0.64470453045E+02  0.17977310508E+03  0.00000000000E+00 0.  1.
          2    1    1    2  501    0  0.14815731850E+03 -0.12413385567E+02  0.11396766772E+04  0.11493335511E+04  0.00000000000E+00 0.  1.
<scales pt_clust_3="55.82438" pt_clust_4="270.19454" pt_clust_5="55.82438" pt_clust_6="148.67644"></scales>
<clustering>
<clus scale="   55.824">  3  5 -1 -1</clus>
<clus scale="  148.676">  1  6  2 -1</clus>
<clus scale="  270.195">  2  4  1 -1</clus>
<clus scale="  270.195">  2  3  1 -1</clus>
</clustering>
</event>
<event>
 6    0  0.3584505E+002  0.8600672E+02  0.7546771E-02  0.1312821E+00
         -3   -1    0    0    0  501 -0.00000000000E+00  0.00000000000E+00  0.32098593539E+03  0.32098593539E+03  0.00000000000E+00 0. -1.
         21   -1    0    0  503  502  0.00000000000E+00 -0.00000000000E+00 -0.10316231161E+03  0.10316231161E+03  0.00000000000E+00 0. -1.
         21    1    1    2  503  504  0.32729863287E+01 -0.31625692751E+02 -0.11473545658E+02  0.33801466410E+02  0.00000000000E+00 0.  1.
         21    1    1    2  504  501 -0.86739725900E+02  0.29919008465E+02 -0.78590691005E+01  0.92090673165E+02  0.00000000000E+00 0. -1.
         21    1    1    2  505  502  0.90628177439E+02  0.64793298210E+02  0.18559498829E+03  0.21646509584E+03  0.00000000000E+00 0. -1.
         -3    1    1    2    0  505 -0.71614378673E+01 -0.63086613925E+02  0.51561250253E+02  0.81791011587E+02  0.00000000000E+00 0. -1.
<scales pt_clust_3="31.79460" pt_clust_4="86.00672" pt_clust_5="14000.00000" pt_clust_6="69.33272"></scales>
<clustering>
<clus scale="   31.795">  2  3  1 -1</clus>
<clus scale="   69.333">  1  6  2 -1</clus>
<clus scale="   86.007">  2  4  1 -1</clus>
<clus scale="   31.795">  2  3  1 -1</clus>
</clustering>
</event>
<event>
 6    0  0.3584505E+002  0.1560309E+03  0.7546771E-02  0.1193252E+00
         21   -1    0    0  503  502  0.00000000000E+00  0.00000000000E+00  0.11372546720E+03  0.11372546720E+03  0.00000000000E+00 0.  1.
          2   -1    0    0  502    0 -0.00000000000E+00 -0.00000000000E+00 -0.36368010477E+04  0.36368010477E+04  0.00000000000E+00 0.  1.
         21    1    1    2  503  504 -0.32643329561E+01  0.31900926243E+02  0.52619920965E+02  0.61621271061E+02  0.00000000000E+00 0.  1.
         21    1    1    2  504  505  0.17027948957E+03 -0.92738868931E+02 -0.13709806671E+03  0.23746890802E+03  0.00000000000E+00 0.  1.
         21    1    1    2  505  501 -0.88371901013E+02  0.38994827053E+02 -0.39129086493E+03  0.40303688467E+03  0.00000000000E+00 0.  1.
          2    1    1    2  501    0 -0.78643255600E+02  0.21843115635E+02 -0.30473065699E+04  0.30483994512E+04  0.00000000000E+00 0.  1.
<scales pt_clust_3="32.06751" pt_clust_4="14000.00000" pt_clust_5="156.03090" pt_clust_6="81.73365"></scales>
<clustering>
<clus scale="   32.068">  1  3  2 -1</clus>
<clus scale="   81.734">  2  6  1 -1</clus>
<clus scale="  156.031">  2  5  1 -1</clus>
<clus scale="   32.068">  1  3  2 -1</clus>
</clustering>
</event>
<event>
 6    0  0.3584505E+002  0.1122795E+03  0.7546771E-02  0.1256406E+00
         21   -1    0    0  503  502  0.00000000000E+00  0.00000000000E+00  0.13654536486E+03  0.13654536486E+03  0.00000000000E+00 0.  1.
          2   -1    0    0  504    0 -0.00000000000E+00 -0.00000000000E+00 -0.88974289565E+03  0.88974289565E+03  0.00000000000E+00 0.  1.
         21    1    1    2  503  501  0.95130320019E+02  0.23324969100E+01 -0.21644246267E+03  0.23643721783E+03  0.00000000000E+00 0.  1.
         21    1    1    2  504  505 -0.97307297266E+02 -0.46497772182E+02 -0.42130952560E+02  0.11578328931E+03  0.00000000000E+00 0.  1.
         21    1    1    2  505  502 -0.30069928199E+02  0.83877214254E+01  0.85978605136E+02  0.91470623665E+02  0.00000000000E+00 0.  1.
          2    1    1    2  501    0  0.32246905445E+02  0.35777553847E+02 -0.58060272070E+03  0.58259712972E+03  0.00000000000E+00 0.  1.
<scales pt_clust_3="112.27946" pt_clust_4="14000.00000" pt_clust_5="31.21785" pt_clust_6="47.87896"></scales>
<clustering>
<clus scale="   31.218">  1  5  2 -1</clus>
<clus scale="   47.879">  2  6  1 -1</clus>
<clus scale="  112.279">  2  3  1 -1</clus>
<clus scale="   31.218">  1  3  2 -1</clus>
</clustering>
</event>
<event>
 6    0  0.3584505E+002  0.3817808E+03  0.7546771E-02  0.1050278E+00
          2   -1    0    0  503    0 -0.00000000000E+00  0.00000000000E+00  0.92838814070E+03  0.92838814070E+03  0.00000000000E+00 0.  1.
         21   -1    0    0  505  502  0.00000000000E+00 -0.00000000000E+00 -0.34647308241E+03  0.34647308241E+03  0.00000000000E+00 0.  1.
         21    1    1    2  503  502 -0.74420632912E+02  0.10067821031E+02 -0.51364357798E+02  0.90984003404E+02  0.00000000000E+00 0. -1.
         21    1    1    2  504  501  0.40646659819E+03 -0.70360800738E+02  0.20701779508E+03  0.46154317805E+03  0.00000000000E+00 0.  1.
         21    1    1    2  505  504  0.34275375315E+02  0.26955373471E+02 -0.83215242952E+02  0.93947699128E+02  0.00000000000E+00 0.  1.
          2    1    1    2  501    0 -0.36632134060E+03  0.33337606236E+02  0.50947686396E+03  0.62838634253E+03  0.00000000000E+00 0.  1.
<scales pt_clust_3="67.27889" pt_clust_4="381.78080" pt_clust_5="43.60497" pt_clust_6="14000.00000"></scales>
<clustering>
<clus scale="   43.605">  2  5  1 -1</clus>
<clus scale="   67.279">  2  3  1 -1</clus>
<clus scale="  381.781">  2  4  1 -1</clus>
<clus scale="   43.605">  2  3  1 -1</clus>
</clustering>
</event>
<event>
 6    0  0.3584505E+002  0.1059509E+03  0.7546771E-02  0.1268257E+00
          2   -1    0    0  503    0 -0.00000000000E+00  0.00000000000E+00  0.23572072467E+04  0.23572072467E+04  0.00000000000E+00 0.  1.
         21   -1    0    0  505  502  0.00000000000E+00 -0.00000000000E+00 -0.65481909866E+03  0.65481909866E+03  0.00000000000E+00 0.  1.
         21    1    1    2  503  502  0.46476685363E+02  0.70462751705E+02  0.73336440766E+03  0.73820622869E+03  0.00000000000E+00 0. -1.
         21    1    1    2  504  501 -0.79151492617E+02 -0.68649479349E+01  0.39348378277E+02  0.88658790691E+02  0.00000000000E+00 0. -1.
         21    1    1    2  505  504  0.43159119093E+02 -0.97165794086E+02 -0.62304065235E+03  0.63204711500E+03  0.00000000000E+00 0.  1.
          2    1    1    2  501    0 -0.10484311839E+02  0.33567990315E+02  0.15527160145E+04  0.15531142110E+04  0.00000000000E+00 0.  1.
<scales pt_clust_3="105.95090" pt_clust_4="80.09567" pt_clust_5="14000.00000" pt_clust_6="35.16718"></scales>
<clustering>
<clus scale="   35.167">  1  6  2 -1</clus>
<clus scale="   80.096">  1  4  2 -1</clus>
<clus scale="  105.951">  1  3  2 -1</clus>
<clus scale="  105.951">  2  3  1 -1</clus>
</clustering>
</event>
<event>
 6    0  0.3584505E+002  0.1130898E+03  0.7546771E-02  0.1254953E+00
         21   -1    0    0  504  502  0.00000000000E+00  0.00000000000E+00  0.17710464588E+03  0.17710464588E+03  0.00000000000E+00 0.  1.
          2   -1    0    0  505    0 -0.00000000000E+00 -0.00000000000E+00 -0.37180229662E+04  0.37180229662E+04  0.00000000000E+00 0. -1.
         21    1    1    2  503  501 -0.22310964278E+02 -0.20319090765E+03 -0.72258872570E+03  0.75094526471E+03  0.00000000000E+00 0.  1.
         21    1    1    2  504  503 -0.26671336124E+02  0.25732647619E+02 -0.26052940923E+01  0.37152616078E+02  0.00000000000E+00 0.  1.
         21    1    1    2  505  502  0.39296747356E+02  0.71039131893E+02  0.13329683904E+03  0.15607318767E+03  0.00000000000E+00 0.  1.
          2    1    1    2  501    0  0.96855530465E+01  0.10641912814E+03 -0.29490211396E+04  0.29509565437E+04  0.00000000000E+00 0. -1.
<scales pt_clust_3="14000.00000" pt_clust_4="37.06116" pt_clust_5="95.54255" pt_clust_6="113.08982"></scales>
<clustering>
<clus scale="   37.061">  1  4  2 -1</clus>
<clus scale="   95.543">  1  5  2 -1</clus>
<clus scale="  113.090">  2  6  1 -1</clus>
<clus scale="   37.061">  1  3  2 -1</clus>
</clustering>
</event>
<event>
 6    0  0.1024490E+003  0.8842467E+02  0.7546771E-02  0.1306712E+00
         21   -1    0    0  505  502  0.00000000000E+00  0.00000000000E+00  0.19253439955E+03  0.19253439955E+03  0.00000000000E+00 0.  1.
          2   -1    0    0  504    0 -0.00000000000E+00 -0.00000000000E+00 -0.15773624095E+04  0.15773624095E+04  0.00000000000E+00 0. -1.
         21    1    1    2  503  502  0.25737551479E+02 -0.39019043465E+02 -0.32805589487E+02  0.57106164384E+02  0.00000000000E+00 0.  1.
         21    1    1    2  504  503 -0.45245245614E+02  0.18828624357E+02 -0.18794496323E+02  0.52486973983E+02  0.00000000000E+00 0.  1.
         21    1    1    2  505  501 -0.67703857834E+02  0.45210445715E+01  0.15512455416E+03  0.16931591630E+03  0.00000000000E+00 0.  1.
          2    1    1    2  501    0  0.87211551970E+02  0.15669374536E+02 -0.14883524783E+04  0.14909877544E+04  0.00000000000E+00 0. -1.
<scales pt_clust_3="46.74299" pt_clust_4="45.45299" pt_clust_5="14000.00000" pt_clust_6="88.42467"></scales>
<clustering>
<clus scale="   46.743">  1  3  2 -1</clus>
<clus scale="   45.453">  1  4  2 -1</clus>
<clus scale="   88.425">  2  6  1 -1</clus>
<clus scale="   46.743">  1  3  2 -1</clus>
</clustering>
</event>
<event>
 6    0  0.3584505E+002  0.1314969E+03  0.7546771E-02  0.1225251E+00
          2   -1    0    0  504    0 -0.00000000000E+00  0.00000000000E+00  0.70931011157E+03  0.70931011157E+03  0.00000000000E+00 0.  1.
         21   -1    0    0  503  502  0.00000000000E+00 -0.00000000000E+00 -0.31186428540E+03  0.31186428540E+03  0.00000000000E+00 0. -1.
         21    1    1    2  503  505  0.68352987153E+01 -0.33851026079E+02 -0.18323217826E+03  0.18645815731E+03  0.00000000000E+00 0. -1.
         21    1    1    2  504  502  0.41288196070E+02  0.26034304301E+02  0.28372049308E+02  0.56457712645E+02  0.00000000000E+00 0.  1.
         21    1    1    2  505  501 -0.38068605121E+02 -0.12397238515E+03 -0.66327657331E+02  0.14566306705E+03  0.00000000000E+00 0.  1.
          2    1    1    2  501    0 -0.10054889664E+02  0.13178910693E+03  0.61863361246E+03  0.63259545997E+03  0.00000000000E+00 0.  1.
<scales pt_clust_3="34.53423" pt_clust_4="47.58797" pt_clust_5="131.49691" pt_clust_6="14000.00000"></scales>
<clustering>
<clus scale="   34.534">  2  3  1 -1</clus>
<clus scale="   47.588">  2  4  1 -1</clus>
<clus scale="  131.497">  2  5  1 -1</clus>
<clus scale="   34.534">  2  3  1 -1</clus>
</clustering>
</event>
<event>
 6    0  0.3584505E+002  0.1336937E+03  0.7546771E-02  0.1222076E+00
         21   -1    0    0  505  502  0.00000000000E+00  0.00000000000E+00  0.19566526399E+04  0.19566526399E+04  0.00000000000E+00 0.  1.
         -2   -1    0    0    0  501 -0.00000000000E+00 -0.00000000000E+00 -0.29307687088E+03  0.29307687088E+03  0.00000000000E+00 0. -1.
         21    1    1    2  503  501 -0.74489164768E+01  0.68744406377E+02  0.10455261728E+03  0.12534962922E+03  0.00000000000E+00 0.  1.
         21    1    1    2  504  502 -0.62323311735E+02  0.45669228503E+02  0.88530023152E+03  0.88866550150E+03  0.00000000000E+00 0.  1.
         21    1    1    2  505  503 -0.27434754839E+02 -0.21117200386E+02  0.93823003156E+03  0.93886857123E+03  0.00000000000E+00 0.  1.
         -2    1    1    2    0  504  0.97206983051E+02 -0.93296434494E+02 -0.26450711137E+03  0.29684580881E+03  0.00000000000E+00 0. -1.
<scales pt_clust_3="67.19297" pt_clust_4="133.69375" pt_clust_5="34.62083" pt_clust_6="14000.00000"></scales>
<clustering>
<clus scale="   34.621">  1  5  2 -1</clus>
<clus scale="   67.193">  1  3  2 -1</clus>
<clus scale="  133.694">  1  4  2 -1</clus>
<clus scale="   34.621">  1  3  2 -1</clus>
</clustering>
</event>
<event>
 6    0  0.3584505E+002  0.1073130E+03  0.7546771E-02  0.1265628E+00
         21   -1    0    0  505  502  0.00000000000E+00  0.00000000000E+00  0.19176325058E+03  0.19176325058E+03  0.00000000000E+00 0.  1.
          1   -1    0    0  503    0 -0.00000000000E+00 -0.00000000000E+00 -0.23889303768E+04  0.23889303768E+04  0.00000000000E+00 0.  1.
         21    1    1    2  503  504  0.14413869838E+03 -0.21039818013E+02 -0.24690449457E+03  0.28667135844E+03  0.00000000000E+00 0. -1.
         21    1    1    2  504  502 -0.11875071464E+03  0.41038720143E+02  0.13099221969E+03  0.18150721858E+03  0.00000000000E+00 0.  1.
         21    1    1    2  505  501  0.20819387633E+02 -0.21786610505E+02  0.60586106470E+00  0.30140842163E+02  0.00000000000E+00 0. -1.
          1    1    1    2  501    0 -0.46207371374E+02  0.17877083742E+01 -0.20818607125E+04  0.20823742082E+04  0.00000000000E+00 0.  1.
<scales pt_clust_3="14000.00000" pt_clust_4="107.31300" pt_clust_5="30.13475" pt_clust_6="46.21044"></scales>
<clustering>
<clus scale="   30.135">  1  5  2 -1</clus>
<clus scale="   46.210">  2  6  1 -1</clus>
<clus scale="  107.313">  1  4  2 -1</clus>
<clus scale="   30.135">  1  3  2 -1</clus>
</clustering>
</event>
<event>
 6    0  0.3584505E+002  0.1381396E+03  0.7546771E-02  0.1215854E+00
         21   -1    0    0  504  502  0.00000000000E+00  0.00000000000E+00  0.18322290824E+03  0.18322290824E+03  0.00000000000E+00 0.  1.
          1   -1    0    0  503    0 -0.00000000000E+00 -0.00000000000E+00 -0.95508530594E+03  0.95508530594E+03  0.00000000000E+00 0. -1.
         21    1    1    2  503  502  0.69131312540E+02  0.18448986316E+03  0.46967495008E+02  0.20253788181E+03  0.00000000000E+00 0.  1.
         21    1    1    2  504  505  0.34008159447E+02 -0.22671341202E+02  0.28803608478E+02  0.50001924785E+02  0.00000000000E+00 0. -1.
         21    1    1    2  505  501 -0.15727607786E+02 -0.57755917559E+02 -0.54108734696E+02  0.80689892986E+02  0.00000000000E+00 0. -1.
          1    1    1    2  501    0 -0.87411864201E+02 -0.10406260440E+03 -0.79352476649E+03  0.80507851460E+03  0.00000000000E+00 0. -1.
<scales pt_clust_3="138.13965" pt_clust_4="40.87230" pt_clust_5="61.15980" pt_clust_6="14000.00000"></scales>
<clustering>
<clus scale="   40.872">  1  4  2 -1</clus>
<clus scale="   61.160">  1  5  2 -1</clus>
<clus scale="  138.140">  1  3  2 -1</clus>
<clus scale="   40.872">  1  3  2 -1</clus>
</clustering>
</event>
<event>
 6    0  0.3584505E+002  0.9311319E+02  0.7546771E-02  0.1295483E+00
          2   -1    0    0  503    0 -0.00000000000E+00  0.00000000000E+00  0.16844042465E+04  0.16844042465E+04  0.00000000000E+00 0.  1.
         21   -1    0    0  504  502  0.00000000000E+00 -0.00000000000E+00 -0.50925166020E+02  0.50925166020E+02  0.00000000000E+00 0.  1.
         21    1    1    2  503  502  0.98066128298E+02  0.52270031862E+02  0.20886579013E+03  0.23658833453E+03  0.00000000000E+00 0.  1.
         21    1    1    2  504  505 -0.29957024834E+02 -0.97915501026E+01 -0.14142594490E+02  0.34544330493E+02  0.00000000000E+00 0.  1.
         21    1    1    2  505  501 -0.77986516092E+02 -0.12966024644E+02  0.11208407798E+03  0.13715996144E+03  0.00000000000E+00 0.  1.
          2    1    1    2  501    0  0.98774126281E+01 -0.29512457115E+02  0.13266718069E+04  0.13270367861E+04  0.00000000000E+00 0.  1.
<scales pt_clust_3="14000.00000" pt_clust_4="31.52286" pt_clust_5="93.11319" pt_clust_6="31.12151"></scales>
<clustering>
<clus scale="   31.122">  1  6  2 -1</clus>
<clus scale="   31.523">  2  4  1 -1</clus>
<clus scale="   93.113">  1  5  2 -1</clus>
<clus scale="   31.523">  2  3  1 -1</clus>
</clustering>
</event>
<event>
 6    0  0.3584505E+002  0.1616331E+03  0.7546771E-02  0.1186865E+00
          2   -1    0    0  504    0 -0.00000000000E+00  0.00000000000E+00  0.19876916408E+04  0.19876916408E+04  0.00000000000E+00 0. -1.
         21   -1    0    0  505  502  0.00000000000E+00 -0.00000000000E+00 -0.77748837106E+03  0.77748837106E+03  0.00000000000E+00 0. -1.
         21    1    1    2  503  502  0.13128970713E+03  0.14320897631E+03 -0.36181450887E+03  0.41067692524E+03  0.00000000000E+00 0. -1.
         21    1    1    2  504  503 -0.65895526243E+02 -0.32617323762E+02  0.22939319245E+03  0.24088866086E+03  0.00000000000E+00 0. -1.
         21    1    1    2  505  501 -0.25651478034E+02 -0.15023888086E+03 -0.36995214562E+03  0.40011786976E+03  0.00000000000E+00 0. -1.
          2    1    1    2  501    0 -0.39742702858E+02  0.39647228311E+02  0.17125767318E+04  0.17134965560E+04  0.00000000000E+00 0. -1.
<scales pt_clust_3="161.63311" pt_clust_4="99.92932" pt_clust_5="14000.00000" pt_clust_6="56.13720"></scales>
<clustering>
<clus scale="   56.137">  1  6  2 -1</clus>
<clus scale="   99.929">  1  4  2 -1</clus>
<clus scale="  161.633">  1  3  2 -1</clus>
<clus scale="  161.633">  2  3  1 -1</clus>
</clustering>
</event>
<event>
 6    0  0.3584505E+002  0.1782759E+03  0.7546771E-02  0.1169482E+00
          1   -1    0    0  505    0 -0.00000000000E+00  0.00000000000E+00  0.13027387660E+04  0.13027387660E+04  0.00000000000E+00 0. -1.
         21   -1    0    0  503  502  0.00000000000E+00 -0.00000000000E+00 -0.21556293921E+03  0.21556293921E+03  0.00000000000E+00 0. -1.
         21    1    1    2  503  501 -0.15706304197E+03 -0.69851078579E+02  0.13644537319E+03  0.21946597048E+03  0.00000000000E+00 0. -1.
         21    1    1    2  504  502  0.27246514543E+02 -0.75519733431E+02 -0.15252752420E+03  0.17236661026E+03  0.00000000000E+00 0. -1.
         21    1    1    2  505  504  0.14321508465E+02  0.55329163073E+02  0.12673152615E+03  0.13902266582E+03  0.00000000000E+00 0.  1.
          1    1    1    2  501    0  0.11549501896E+03  0.90041648937E+02  0.97652645160E+03  0.98744645861E+03  0.00000000000E+00 0. -1.
<scales pt_clust_3="14000.00000" pt_clust_4="79.88488" pt_clust_5="57.15262" pt_clust_6="178.27588"></scales>
<clustering>
<clus scale="   57.153">  1  5  2 -1</clus>
<clus scale="   79.885">  2  4  1 -1</clus>
<clus scale="  178.276">  1  6  2 -1</clus>
<clus scale="   79.885">  2  3  1 -1</clus>
</clustering>
</event>
<event>
 6    0  0.3584505E+002  0.8683368E+02  0.7546771E-02  0.1310706E+00
         21   -1    0    0  504  502  0.00000000000E+00  0.00000000000E+00  0.43850686201E+02  0.43850686201E+02  0.00000000000E+00 0. -1.
          1   -1    0    0  503    0 -0.00000000000E+00 -0.00000000000E+00 -0.12889280815E+04  0.12889280815E+04  0.00000000000E+00 0. -1.
         21    1    1    2  503  505 -0.11826352266E+02 -0.12238859078E+03 -0.23064192551E+03  0.26137047952E+03  0.00000000000E+00 0. -1.
         21    1    1    2  504  501  0.63938392506E+02  0.44220551085E+02 -0.20509173803E+03  0.21933124762E+03  0.00000000000E+00 0. -1.
         21    1    1    2  505  502 -0.23406239616E+02  0.48335131689E+02 -0.13789461796E+02  0.55446246626E+02  0.00000000000E+00 0. -1.
          1    1    1    2  501    0 -0.28705800625E+02  0.29832908007E+02 -0.79555426996E+03  0.79663079393E+03  0.00000000000E+00 0. -1.
<scales pt_clust_3="14000.00000" pt_clust_4="86.83368" pt_clust_5="56.47619" pt_clust_6="41.40079"></scales>
<clustering>
<clus scale="   41.401">  2  6  1 -1</clus>
<clus scale="   56.476">  1  5  2 -1</clus>
<clus scale="   86.834">  2  4  1 -1</clus>
<clus scale="   56.476">  1  3  2 -1</clus>
</clustering>
</event>
<event>
 6    0  0.3584505E+002  0.9395280E+02  0.7546771E-02  0.1293552E+00
          2   -1    0    0  505    0 -0.00000000000E+00  0.00000000000E+00  0.12412235333E+04  0.12412235333E+04  0.00000000000E+00 0.  1.
         21   -1    0    0  503  502  0.00000000000E+00 -0.00000000000E+00 -0.39725294364E+02  0.39725294364E+02  0.00000000000E+00 0.  1.
         21    1    1    2  503  501 -0.10699669744E+03 -0.56030305377E+02  0.19663012993E+03  0.23076199076E+03  0.00000000000E+00 0.  1.
         21    1    1    2  504  502  0.73044779628E+02  0.37181930542E+02  0.77937948745E+02  0.11310331403E+03  0.00000000000E+00 0.  1.
         21    1    1    2  505  504  0.67957604109E+02 -0.11708338064E+01  0.25212858368E+03  0.26112914336E+03  0.00000000000E+00 0.  1.
          2    1    1    2  501    0 -0.34005686296E+02  0.20019208642E+02  0.67480157656E+03  0.67595437948E+03  0.00000000000E+00 0.  1.
<scales pt_clust_3="93.95280" pt_clust_4="14000.00000" pt_clust_5="53.12688" pt_clust_6="39.46081"></scales>
<clustering>
<clus scale="   39.461">  1  6  2 -1</clus>
<clus scale="   53.127">  1  5  2 -1</clus>
<clus scale="   93.953">  1  3  2 -1</clus>
<clus scale="   93.953">  2  3  1 -1</clus>
</clustering>
</event>
<event>
 6    0  0.3584505E+002  0.1494687E+03  0.7546771E-02  0.1201127E+00
          2   -1    0    0  505    0 -0.00000000000E+00  0.00000000000E+00  0.42606549009E+03  0.42606549009E+03  0.00000000000E+00 0. -1.
         21   -1    0    0  503  502  0.00000000000E+00 -0.00000000000E+00 -0.57368623318E+03  0.57368623318E+03  0.00000000000E+00 0. -1.
         21    1    1    2  503  504 -0.44114052781E+02  0.64839830392E+02 -0.41457484838E+03  0.42192719534E+03  0.00000000000E+00 0. -1.
         21    1    1    2  504  501 -0.58399461843E+02  0.84607691216E+02  0.74367200147E+02  0.12688356479E+03  0.00000000000E+00 0. -1.
         21    1    1    2  505  502  0.13254797237E+03 -0.18717588517E+03 -0.22554269879E+02  0.23046143290E+03  0.00000000000E+00 0. -1.
          2    1    1    2  501    0 -0.30034457742E+02  0.37728363559E+02  0.21514117502E+03  0.22047953025E+03  0.00000000000E+00 0. -1.
<scales pt_clust_3="79.27244" pt_clust_4="149.46874" pt_clust_5="14000.00000" pt_clust_6="48.22342"></scales>
<clustering>
<clus scale="   48.223">  1  6  2 -1</clus>
<clus scale="   79.272">  2  3  1 -1</clus>
<clus scale="  149.469">  1  4  2 -1</clus>
<clus scale="   79.272">  2  3  1 -1</clus>
</clustering>
</event>
<event>
 6    0  0.3584505E+002  0.1553428E+03  0.7546771E-02  0.1194057E+00
         21   -1    0    0  503  502  0.00000000000E+00  0.00000000000E+00  0.68468713644E+03  0.68468713644E+03  0.00000000000E+00 0. -1.
          2   -1    0    0  505    0 -0.00000000000E+00 -0.00000000000E+00 -0.14419008500E+03  0.14419008500E+03  0.00000000000E+00 0.  1.
         21    1    1    2  503  501  0.28177289755E+02  0.58223830551E+02  0.32863844431E+03  0.33494357910E+03  0.00000000000E+00 0. -1.
         21    1    1    2  504  502  0.35472621348E+02 -0.77790872189E+02  0.17033932269E+03  0.19059174042E+03  0.00000000000E+00 0. -1.
         21    1    1    2  505  504  0.36569931235E+02 -0.86911310805E+02  0.10743685905E+03  0.14294619442E+03  0.00000000000E+00 0. -1.
          2    1    1    2  501    0 -0.10021984234E+03  0.10647835244E+03 -0.65917574615E+02  0.16039570749E+03  0.00000000000E+00 0.  1.
<scales pt_clust_3="64.68365" pt_clust_4="40.07271" pt_clust_5="40.07271" pt_clust_6="149.53383"></scales>
<clustering>
<clus scale="   40.073">  4  5 -1 -1</clus>
<clus scale="   64.684">  1  3  2 -1</clus>
<clus scale="  149.534">  2  6  1 -1</clus>
<clus scale="   64.684">  1  3  2 -1</clus>
</clustering>
</event>
<event>
 6    0  0.3584505E+002  0.7604186E+02  0.7546771E-02  0.1340675E+00
          1   -1    0    0  503    0 -0.00000000000E+00  0.00000000000E+00  0.12654742367E+04  0.12654742367E+04  0.00000000000E+00 0.  1.
         21   -1    0    0  505  502  0.00000000000E+00 -0.00000000000E+00 -0.93294425358E+02  0.93294425358E+02  0.00000000000E+00 0. -1.
         21    1    1    2  503  502 -0.22232501867E+02 -0.51372414908E+02  0.71825309535E+02  0.91061980225E+02  0.00000000000E+00 0. -1.
         21    1    1    2  504  501  0.91268929944E+02  0.66983768287E+01  0.63281334019E+02  0.11126281077E+03  0.00000000000E+00 0. -1.
         21    1    1    2  505  504  0.48848754680E+01  0.29956828882E+02 -0.54440963280E+02  0.62330506880E+02  0.00000000000E+00 0. -1.
          1    1    1    2  501    0 -0.73921303545E+02  0.14717209197E+02  0.10915141311E+04  0.10941133642E+04  0.00000000000E+00 0.  1.
<scales pt_clust_3="47.91086" pt_clust_4="76.04186" pt_clust_5="30.35249" pt_clust_6="14000.00000"></scales>
<clustering>
<clus scale="   30.352">  2  5  1 -1</clus>
<clus scale="   47.911">  2  3  1 -1</clus>
<clus scale="   76.042">  2  4  1 -1</clus>
<clus scale="   30.352">  2  3  1 -1</clus>
</clustering>
</event>
<event>
 6    0  0.3584505E+002  0.1526814E+03  0.7546771E-02  0.1197216E+00
         21   -1    0    0  505  502  0.00000000000E+00  0.00000000000E+00  0.11690415461E+03  0.11690415461E+03  0.00000000000E+00 0.  1.
          4   -1    0    0  503    0 -0.00000000000E+00 -0.00000000000E+00 -0.87974949252E+03  0.87974949252E+03  0.00000000000E+00 0.  1.
         21    1    1    2  503  504 -0.92026389670E+02  0.14234577887E+02 -0.14164249243E+03  0.16951128359E+03  0.00000000000E+00 0. -1.
         21    1    1    2  504  502 -0.41789496791E+02  0.14636882798E+02 -0.89069210661E+00  0.44287624824E+02  0.00000000000E+00 0.  1.
         21    1    1    2  505  501  0.14281634157E+03  0.10539146867E+03 -0.33266421844E+02  0.18058384177E+03  0.00000000000E+00 0.  1.
          4    1    1    2  501    0 -0.90004551079E+01 -0.13426292935E+03 -0.58704573154E+03  0.60227089695E+03  0.00000000000E+00 0.  1.
<scales pt_clust_3="99.49974" pt_clust_4="44.27867" pt_clust_5="152.68139" pt_clust_6="14000.00000"></scales>
<clustering>
<clus scale="   44.279">  1  4  2 -1</clus>
<clus scale="   99.500">  2  3  1 -1</clus>
<clus scale="  152.681">  1  5  2 -1</clus>
<clus scale="   44.279">  1  3  2 -1</clus>
</clustering>
</event>
<event>
 6    0  0.3584505E+002  0.7794051E+02  0.7546771E-02  0.1335000E+00
         21   -1    0    0  505  502  0.00000000000E+00  0.00000000000E+00  0.42828595629E+02  0.42828595629E+02  0.00000000000E+00 0.  1.
          2   -1    0    0  503    0 -0.00000000000E+00 -0.00000000000E+00 -0.31499921419E+04  0.31499921419E+04  0.00000000000E+00 0. -1.
         21    1    1    2  503  504 -0.58829312040E+02 -0.14526131556E+02 -0.10909270663E+04  0.10926086950E+04  0.00000000000E+00 0. -1.
         21    1    1    2  504  502  0.11401124330E+03  0.12170889113E+02 -0.12418304052E+03  0.16902106878E+03  0.00000000000E+00 0.  1.
         21    1    1    2  505  501 -0.38689049922E+02 -0.38162323929E+02 -0.18914046228E+02  0.57540826343E+02  0.00000000000E+00 0.  1.
          2    1    1    2  501    0 -0.16492881336E+02  0.40517566372E+02 -0.18731393932E+04  0.18736501474E+04  0.00000000000E+00 0. -1.
<scales pt_clust_3="14000.00000" pt_clust_4="77.94051" pt_clust_5="53.85659" pt_clust_6="43.74572"></scales>
<clustering>
<clus scale="   43.746">  2  6  1 -1</clus>
<clus scale="   53.857">  1  5  2 -1</clus>
<clus scale="   77.941">  1  4  2 -1</clus>
<clus scale="   53.857">  1  3  2 -1</clus>
</clustering>
</event>
<event>
 6    0  0.3584505E+002  0.9635723E+02  0.7546771E-02  0.1288148E+00
          2   -1    0    0  504    0 -0.00000000000E+00  0.00000000000E+00  0.86199081352E+03  0.86199081352E+03  0.00000000000E+00 0.  1.
         21   -1    0    0  503  502  0.00000000000E+00 -0.00000000000E+00 -0.12976294266E+04  0.12976294266E+04  0.00000000000E+00 0. -1.
         21    1    1    2  503  501 -0.15184458037E+02 -0.36133592556E+02 -0.74915960262E+02  0.84549425656E+02  0.00000000000E+00 0. -1.
         21    1    1    2  504  505 -0.49525960644E+02 -0.78496261844E+01  0.35263647622E+02  0.61302220617E+02  0.00000000000E+00 0.  1.
         21    1    1    2  505  502 -0.26365156569E+02 -0.51185160248E+02 -0.11988191173E+04  0.12002009491E+04  0.00000000000E+00 0. -1.
          2    1    1    2  501    0  0.91075575250E+02  0.95168378988E+02  0.80283281687E+03  0.81356764477E+03  0.00000000000E+00 0.  1.
<scales pt_clust_3="39.19444" pt_clust_4="50.36621" pt_clust_5="14000.00000" pt_clust_6="96.35723"></scales>
<clustering>
<clus scale="   39.194">  2  3  1 -1</clus>
<clus scale="   50.366">  1  4  2 -1</clus>
<clus scale="   96.357">  1  6  2 -1</clus>
<clus scale="   39.194">  2  3  1 -1</clus>
</clustering>
</event>
<event>
 6    0  0.3584505E+002  0.1184877E+03  0.7546771E-02  0.1245613E+00
         21   -1    0    0  505  502  0.00000000000E+00  0.00000000000E+00  0.69583014369E+03  0.69583014369E+03  0.00000000000E+00 0. -1.
          2   -1    0    0  504    0 -0.00000000000E+00 -0.00000000000E+00 -0.47789809585E+03  0.47789809585E+03  0.00000000000E+00 0.  1.
         21    1    1    2  503  502 -0.66085291091E+02  0.26144863431E+02  0.62995755621E+03  0.63395373822E+03  0.00000000000E+00 0. -1.
         21    1    1    2  504  503  0.37342161210E+02 -0.19587480361E+01 -0.27594342714E+02  0.46472803310E+02  0.00000000000E+00 0. -1.
         21    1    1    2  505  501 -0.35914956614E+02  0.39128232998E+02  0.35399805556E+02  0.63828277115E+02  0.00000000000E+00 0.  1.
          2    1    1    2  501    0  0.64658086495E+02 -0.63314348392E+02 -0.41983097121E+03  0.42947342089E+03  0.00000000000E+00 0.  1.
<scales pt_clust_3="118.48771" pt_clust_4="37.39350" pt_clust_5="52.25833" pt_clust_6="14000.00000"></scales>
<clustering>
<clus scale="   37.393">  2  4  1 -1</clus>
<clus scale="   52.258">  1  5  2 -1</clus>
<clus scale="  118.488">  1  3  2 -1</clus>
<clus scale="   52.258">  1  3  2 -1</clus>
</clustering>
</event>
<event>
 6    0  0.3584505E+002  0.1188448E+03  0.7546771E-02  0.1245015E+00
         21   -1    0    0  503  502  0.00000000000E+00  0.00000000000E+00  0.39493802959E+03  0.39493802959E+03  0.00000000000E+00 0. -1.
          1   -1    0    0  504    0 -0.00000000000E+00 -0.00000000000E+00 -0.51554961704E+03  0.51554961704E+03  0.00000000000E+00 0.  1.
         21    1    1    2  503  505  0.36621294210E+02 -0.20155287750E+02  0.14448692324E+02  0.44228040017E+02  0.00000000000E+00 0.  1.
         21    1    1    2  504  502  0.22787686855E+01  0.13413531058E+03  0.33281999532E+03  0.35884066606E+03  0.00000000000E+00 0. -1.
         21    1    1    2  505  501 -0.81919438923E+02 -0.81040306620E+02 -0.17474471870E+03  0.20931804147E+03  0.00000000000E+00 0.  1.
          1    1    1    2  501    0  0.43019376028E+02 -0.32939716209E+02 -0.29313555639E+03  0.29810089909E+03  0.00000000000E+00 0.  1.
<scales pt_clust_3="41.80137" pt_clust_4="14000.00000" pt_clust_5="118.84483" pt_clust_6="54.46270"></scales>
<clustering>
<clus scale="   41.801">  1  3  2 -1</clus>
<clus scale="   54.463">  2  6  1 -1</clus>
<clus scale="  118.845">  2  5  1 -1</clus>
<clus scale="   41.801">  1  3  2 -1</clus>
</clustering>
</event>
<event>
 6    0  0.3584505E+002  0.7076343E+02  0.7546771E-02  0.1357516E+00
         21   -1    0    0  505  502  0.00000000000E+00  0.00000000000E+00  0.97172882865E+03  0.97172882865E+03  0.00000000000E+00 0.  1.
          1   -1    0    0  504    0 -0.00000000000E+00 -0.00000000000E+00 -0.66949386027E+02  0.66949386027E+02  0.00000000000E+00 0.  1.
         21    1    1    2  503  502  0.74190385767E+01  0.31015810333E+02  0.68243558256E+02  0.75327324840E+02  0.00000000000E+00 0.  1.
         21    1    1    2  504  503 -0.68150591323E+02 -0.91651407927E+01  0.17679307766E+03  0.18969526935E+03  0.00000000000E+00 0.  1.
         21    1    1    2  505  501  0.35571265139E+02 -0.87997425589E+02  0.69013793262E+03  0.69663421381E+03  0.00000000000E+00 0.  1.
          1    1    1    2  501    0  0.25160287607E+02  0.66146756049E+02 -0.30395125911E+02  0.77021406683E+02  0.00000000000E+00 0.  1.
<scales pt_clust_3="31.89079" pt_clust_4="66.70085" pt_clust_5="70.76343" pt_clust_6="14000.00000"></scales>
<clustering>
<clus scale="   31.891">  1  3  2 -1</clus>
<clus scale="   66.701">  1  4  2 -1</clus>
<clus scale="   70.763">  1  5  2 -1</clus>
<clus scale="   31.891">  1  3  2 -1</clus>
</clustering>
</event>
<event>
 6    0  0.3584505E+002  0.8473060E+02  0.7546771E-02  0.1316139E+00
          2   -1    0    0  503    0 -0.00000000000E+00  0.00000000000E+00  0.12134701531E+04  0.12134701531E+04  0.00000000000E+00 0.  1.
         21   -1    0    0  505  502  0.00000000000E+00 -0.00000000000E+00 -0.32857385708E+03  0.32857385708E+03  0.00000000000E+00 0. -1.
         21    1    1    2  503  502  0.11826468087E+03  0.36909609600E+02 -0.22054365984E+03  0.25295920604E+03  0.00000000000E+00 0. -1.
         21    1    1    2  504  501 -0.32351066090E+02 -0.54010111745E+02 -0.24623043719E+02  0.67601611888E+02  0.00000000000E+00 0. -1.
         21    1    1    2  505  504 -0.31345870407E+02  0.47161418650E+01 -0.39464040459E+02  0.50618337339E+02  0.00000000000E+00 0. -1.
          2    1    1    2  501    0 -0.54567744375E+02  0.12384360280E+02  0.11695270401E+04  0.11708648550E+04  0.00000000000E+00 0.  1.
<scales pt_clust_3="14000.00000" pt_clust_4="84.73060" pt_clust_5="31.69867" pt_clust_6="56.03002"></scales>
<clustering>
<clus scale="   31.699">  2  5  1 -1</clus>
<clus scale="   56.030">  1  6  2 -1</clus>
<clus scale="   84.731">  1  4  2 -1</clus>
<clus scale="   31.699">  2  3  1 -1</clus>
</clustering>
</event>
<event>
 6    0  0.3584505E+002  0.8700520E+02  0.7546771E-02  0.1310270E+00
         21   -1    0    0  503  502  0.00000000000E+00  0.00000000000E+00  0.11132077079E+03  0.11132077079E+03  0.00000000000E+00 0.  1.
          2   -1    0    0  504    0 -0.00000000000E+00 -0.00000000000E+00 -0.56569371616E+03  0.56569371616E+03  0.00000000000E+00 0. -1.
         21    1    1    2  503  501 -0.43962382125E+02 -0.43791269678E+02 -0.78372770446E+02  0.99963280706E+02  0.00000000000E+00 0. -1.
         21    1    1    2  504  505  0.36128209963E+02  0.39406665111E+02 -0.11232637045E+03  0.12439994497E+03  0.00000000000E+00 0.  1.
         21    1    1    2  505  502  0.81375719131E+02  0.48010894441E+02  0.63925237834E+02  0.11407668334E+03  0.00000000000E+00 0.  1.
          2    1    1    2  501    0 -0.73541546969E+02 -0.43626289875E+02 -0.32759904231E+03  0.33857457793E+03  0.00000000000E+00 0. -1.
<scales pt_clust_3="14000.00000" pt_clust_4="53.46151" pt_clust_5="87.00520" pt_clust_6="48.77832"></scales>
<clustering>
<clus scale="   53.462">  2  4  1 -1</clus>
<clus scale="   48.778">  2  6  1 -1</clus>
<clus scale="   87.005">  1  5  2 -1</clus>
<clus scale="   87.005">  1  3  2 -1</clus>
</clustering>
</event>
<event>
 6    0  0.3584505E+002  0.1045166E+03  0.7546771E-02  0.1271075E+00
          2   -1    0    0  503    0 -0.00000000000E+00  0.00000000000E+00  0.98442227902E+03  0.98442227902E+03  0.00000000000E+00 0.  1.
         21   -1    0    0  505  502  0.00000000000E+00 -0.00000000000E+00 -0.12770311353E+03  0.12770311353E+03  0.00000000000E+00 0. -1.
         21    1    1    2  503  502 -0.11416725352E+03  0.49193040547E+02  0.36669896511E+03  0.38719794424E+03  0.00000000000E+00 0.  1.
         21    1    1    2  504  501  0.78495204491E+02  0.15863228782E+02 -0.86559582523E+02  0.11792243418E+03  0.00000000000E+00 0. -1.
         21    1    1    2  505  504  0.27335686420E+02 -0.21577574696E+02  0.67695272683E+01  0.35477570115E+02  0.00000000000E+00 0. -1.
          2    1    1    2  501    0  0.83363626054E+01 -0.43478694633E+02  0.56981025565E+03  0.57152744402E+03  0.00000000000E+00 0.  1.
<scales pt_clust_3="14000.00000" pt_clust_4="104.51657" pt_clust_5="34.82573" pt_clust_6="44.47051"></scales>
<clustering>
<clus scale="   34.826">  2  5  1 -1</clus>
<clus scale="   44.471">  1  6  2 -1</clus>
<clus scale="  104.517">  2  4  1 -1</clus>
<clus scale="   34.826">  2  3  1 -1</clus>
</clustering>
</event>
<event>
 6    0  0.3584505E+002  0.1387617E+03  0.7546771E-02  0.1215005E+00
          2   -1    0    0  502    0 -0.00000000000E+00  0.00000000000E+00  0.50520539108E+04  0.50520539108E+04  0.00000000000E+00 0. -1.
         21   -1    0    0  503  502  0.00000000000E+00 -0.00000000000E+00 -0.71384454209E+03  0.71384454209E+03  0.00000000000E+00 0. -1.
         21    1    1    2  503  504  0.13604207146E+02  0.64994094624E+02 -0.68317103845E+03  0.68639054085E+03  0.00000000000E+00 0. -1.
         21    1    1    2  504  505 -0.38861985924E+02 -0.66785566889E+02  0.40455994568E+02  0.87219570000E+02  0.00000000000E+00 0. -1.
         21    1    1    2  505  501  0.33053534177E+02  0.13952069508E+03  0.11532865748E+04  0.11621654288E+04  0.00000000000E+00 0. -1.
          2    1    1    2  501    0 -0.77957553987E+01 -0.13772922282E+03  0.38276378378E+04  0.38301229132E+04  0.00000000000E+00 0. -1.
<scales pt_clust_3="66.40261" pt_clust_4="31.45740" pt_clust_5="14000.00000" pt_clust_6="138.76169"></scales>
<clustering>
<clus scale="   66.403">  2  3  1 -1</clus>
<clus scale="   31.457">  2  4  1 -1</clus>
<clus scale="  138.762">  1  6  2 -1</clus>
<clus scale="   66.403">  2  3  1 -1</clus>
</clustering>
</event>
<event>
 6    0  0.3584505E+002  0.8377551E+02  0.7546771E-02  0.1318666E+00
         21   -1    0    0  501  502  0.00000000000E+00  0.00000000000E+00  0.54937415131E+03  0.54937415131E+03  0.00000000000E+00 0. -1.
          2   -1    0    0  505    0 -0.00000000000E+00 -0.00000000000E+00 -0.35367670239E+04  0.35367670239E+04  0.00000000000E+00 0.  1.
         21    1    1    2  503  502  0.17107358528E+02  0.60653353137E+02  0.37827819339E+03  0.38349169816E+03  0.00000000000E+00 0. -1.
         21    1    1    2  504  503 -0.72750585218E+02  0.31285288468E+02  0.13695179629E+03  0.15819990971E+03  0.00000000000E+00 0. -1.
         21    1    1    2  505  504  0.35288317935E+02 -0.46743751480E+02 -0.20617260576E+02  0.62091183905E+02  0.00000000000E+00 0. -1.
          2    1    1    2  501    0  0.20354908755E+02 -0.45194890124E+02 -0.34820056017E+04  0.34823583835E+04  0.00000000000E+00 0.  1.
<scales pt_clust_3="61.22528" pt_clust_4="14000.00000" pt_clust_5="83.77551" pt_clust_6="49.56713"></scales>
<clustering>
<clus scale="   49.567">  2  6  1 -1</clus>
<clus scale="   61.225">  1  3  2 -1</clus>
<clus scale="   83.776">  2  5  1 -1</clus>
<clus scale="   61.225">  1  3  2 -1</clus>
</clustering>
</event>
<event>
 6    0  0.3584505E+002  0.1106147E+03  0.7546771E-02  0.1259436E+00
          1   -1    0    0  504    0 -0.00000000000E+00  0.00000000000E+00  0.24276765694E+04  0.24276765694E+04  0.00000000000E+00 0. -1.
         21   -1    0    0  505  502  0.00000000000E+00 -0.00000000000E+00 -0.73519506173E+02  0.73519506173E+02  0.00000000000E+00 0.  1.
         21    1    1    2  503  502 -0.25083614747E+00  0.55624584575E+02 -0.44632888537E+02  0.71317964546E+02  0.00000000000E+00 0.  1.
         21    1    1    2  504  503  0.10734667426E+03 -0.82903435337E+02  0.34188257124E+03  0.36780426939E+03  0.00000000000E+00 0.  1.
         21    1    1    2  505  501 -0.10395464497E+03 -0.51513521360E+01  0.11863557580E+04  0.11909127126E+04  0.00000000000E+00 0. -1.
          1    1    1    2  501    0 -0.31411931438E+01  0.32430202898E+02  0.87055162255E+03  0.87116112900E+03  0.00000000000E+00 0. -1.
<scales pt_clust_3="55.90321" pt_clust_4="110.61474" pt_clust_5="14000.00000" pt_clust_6="32.58198"></scales>
<clustering>
<clus scale="   32.582">  1  6  2 -1</clus>
<clus scale="   55.903">  2  3  1 -1</clus>
<clus scale="  110.615">  2  4  1 -1</clus>
<clus scale="   55.903">  2  3  1 -1</clus>
</clustering>
</event>
<event>
 6    0  0.3584505E+002  0.1276076E+03  0.7546771E-02  0.1231049E+00
          4   -1    0    0  504    0 -0.00000000000E+00  0.00000000000E+00  0.40980143052E+03  0.40980143052E+03  0.00000000000E+00 0.  1.
         21   -1    0    0  505  502  0.00000000000E+00 -0.00000000000E+00 -0.19538729700E+03  0.19538729700E+03  0.00000000000E+00 0.  1.
         21    1    1    2  503  502 -0.18284461978E+02 -0.25983123088E+02 -0.73687756500E+02  0.80245434096E+02  0.00000000000E+00 0.  1.
         21    1    1    2  504  503  0.11023421398E+03  0.39169150223E+02  0.21511811746E+02  0.11894772930E+03  0.00000000000E+00 0.  1.
         21    1    1    2  505  501 -0.13757954298E+03 -0.63381460492E+02  0.23094768207E+02  0.15322763621E+03  0.00000000000E+00 0.  1.
          4    1    1    2  501    0  0.45629790971E+02  0.50195433357E+02  0.24349531007E+03  0.25276792791E+03  0.00000000000E+00 0.  1.
<scales pt_clust_3="31.77175" pt_clust_4="127.60762" pt_clust_5="14000.00000" pt_clust_6="66.60145"></scales>
<clustering>
<clus scale="   31.772">  2  3  1 -1</clus>
<clus scale="   66.601">  1  6  2 -1</clus>
<clus scale="  127.608">  2  4  1 -1</clus>
<clus scale="   31.772">  2  3  1 -1</clus>
</clustering>
</event>
<event>
 6    0  0.3584505E+002  0.9115008E+02  0.7546771E-02  0.1300090E+00
          2   -1    0    0  503    0 -0.00000000000E+00  0.00000000000E+00  0.27085532710E+04  0.27085532710E+04  0.00000000000E+00 0.  1.
         21   -1    0    0  505  502  0.00000000000E+00 -0.00000000000E+00 -0.19181533630E+03  0.19181533630E+03  0.00000000000E+00 0. -1.
         21    1    1    2  503  504 -0.89094168233E+02 -0.14860628554E+02  0.15915441288E+03  0.18299927932E+03  0.00000000000E+00 0. -1.
         21    1    1    2  504  502 -0.58246562781E+02 -0.69003227894E+02 -0.99393687403E+02  0.13428779777E+03  0.00000000000E+00 0. -1.
         21    1    1    2  505  501  0.76258048124E+02  0.56045115757E+02 -0.26620787019E+02  0.98310788856E+02  0.00000000000E+00 0. -1.
          2    1    1    2  501    0  0.71082682890E+02  0.27818740691E+02  0.24835979962E+04  0.24847707413E+04  0.00000000000E+00 0.  1.
<scales pt_clust_3="35.46820" pt_clust_4="14000.00000" pt_clust_5="91.15008" pt_clust_6="76.33237"></scales>
<clustering>
<clus scale="   76.332">  1  6  2 -1</clus>
<clus scale="   35.468">  1  3  2 -1</clus>
<clus scale="   91.150">  1  5  2 -1</clus>
<clus scale="   91.150">  2  3  1 -1</clus>
</clustering>
</event>
<event>
 6    0  0.3584505E+002  0.9983011E+02  0.7546771E-02  0.1280654E+00
         21   -1    0    0  504  502  0.00000000000E+00  0.00000000000E+00  0.72460007566E+02  0.72460007566E+02  0.00000000000E+00 0.  1.
          2   -1    0    0  503    0 -0.00000000000E+00 -0.00000000000E+00 -0.98997379034E+03  0.98997379034E+03  0.00000000000E+00 0.  1.
         21    1    1    2  503  505  0.30323302424E+02 -0.25097745069E+02 -0.17276776857E+02  0.42987050329E+02  0.00000000000E+00 0. -1.
         21    1    1    2  504  501 -0.71143576084E+02  0.91187323608E+02 -0.12166540558E+03  0.16786603980E+03  0.00000000000E+00 0.  1.
         21    1    1    2  505  502 -0.35039664788E+02 -0.38866503968E+01  0.24248675901E+02  0.42788812121E+02  0.00000000000E+00 0.  1.
          2    1    1    2  501    0  0.75859938448E+02 -0.62202928143E+02 -0.80282027624E+03  0.80879189565E+03  0.00000000000E+00 0.  1.
<scales pt_clust_3="32.36880" pt_clust_4="14000.00000" pt_clust_5="35.25456" pt_clust_6="99.83011"></scales>
<clustering>
<clus scale="   35.255">  1  5  2 -1</clus>
<clus scale="   32.369">  1  3  2 -1</clus>
<clus scale="   99.830">  2  6  1 -1</clus>
<clus scale="   35.255">  1  3  2 -1</clus>
</clustering>
</event>
<event>
 6    0  0.3584505E+002  0.7333574E+02  0.7546771E-02  0.1349104E+00
         21   -1    0    0  503  502  0.00000000000E+00  0.00000000000E+00  0.15878194206E+03  0.15878194206E+03  0.00000000000E+00 0.  1.
          2   -1    0    0  505    0 -0.00000000000E+00 -0.00000000000E+00 -0.38315979968E+03  0.38315979968E+03  0.00000000000E+00 0. -1.
         21    1    1    2  503  504  0.51615403388E+02  0.76151762484E+00  0.17300152262E+02  0.54442860360E+02  0.00000000000E+00 0.  1.
         21    1    1    2  504  501 -0.52392866837E+02  0.15598027567E+01 -0.26150275272E+02  0.58577148931E+02  0.00000000000E+00 0. -1.
         21    1    1    2  505  502  0.53980100388E+02 -0.52667097263E+02  0.88453655737E+02  0.11623993972E+03  0.00000000000E+00 0.  1.
          2    1    1    2  501    0 -0.53202636938E+02  0.50345776882E+02 -0.30398139035E+03  0.31268179273E+03  0.00000000000E+00 0. -1.
<scales pt_clust_3="51.62102" pt_clust_4="45.61437" pt_clust_5="14000.00000" pt_clust_6="73.33574"></scales>
<clustering>
<clus scale="   51.621">  1  3  2 -1</clus>
<clus scale="   45.614">  1  4  2 -1</clus>
<clus scale="   73.336">  2  6  1 -1</clus>
<clus scale="   51.621">  1  3  2 -1</clus>
</clustering>
</event>
<event>
 6    0  0.3584505E+002  0.1392493E+03  0.7546771E-02  0.1214343E+00
          1   -1    0    0  505    0 -0.00000000000E+00  0.00000000000E+00  0.13963329187E+04  0.13963329187E+04  0.00000000000E+00 0.  1.
         21   -1    0    0  504  502  0.00000000000E+00 -0.00000000000E+00 -0.91709099801E+03  0.91709099801E+03  0.00000000000E+00 0.  1.
         21    1    1    2  503  502 -0.66355667420E+02 -0.12121916378E+03 -0.87543099607E+03  0.88627117134E+03  0.00000000000E+00 0.  1.
         21    1    1    2  504  501  0.11556055892E+03  0.18425853879E+03  0.36977010910E+03  0.42899345622E+03  0.00000000000E+00 0.  1.
         21    1    1    2  505  503 -0.59890294140E+01 -0.45604879037E+02  0.81722596321E+02  0.93777695721E+02  0.00000000000E+00 0.  1.
          1    1    1    2  501    0 -0.43215862088E+02 -0.17434495974E+02  0.90318021131E+03  0.90438159340E+03  0.00000000000E+00 0.  1.
<scales pt_clust_3="139.24932" pt_clust_4="14000.00000" pt_clust_5="45.99645" pt_clust_6="68.09224"></scales>
<clustering>
<clus scale="   45.996">  1  5  2 -1</clus>
<clus scale="   68.092">  1  6  2 -1</clus>
<clus scale="  139.249">  2  3  1 -1</clus>
<clus scale="  139.249">  2  3  1 -1</clus>
</clustering>
</event>
<event>
 6    0  0.3584505E+002  0.7179051E+02  0.7546771E-02  0.1354108E+00
         21   -1    0    0  505  502  0.00000000000E+00  0.00000000000E+00  0.12655131313E+04  0.12655131313E+04  0.00000000000E+00 0. -1.
          1   -1    0    0  503    0 -0.00000000000E+00 -0.00000000000E+00 -0.19594149500E+03  0.19594149500E+03  0.00000000000E+00 0. -1.
         21    1    1    2  503  502 -0.28735236059E+01  0.46618944477E+02  0.11017931392E+03  0.11967064944E+03  0.00000000000E+00 0. -1.
         21    1    1    2  504  501  0.34851022394E+01  0.60405025619E+02  0.52711995477E+03  0.53058115286E+03  0.00000000000E+00 0. -1.
         21    1    1    2  505  504  0.55956314353E+02 -0.62151504016E+02  0.61190937357E+03  0.61759776557E+03  0.00000000000E+00 0. -1.
          1    1    1    2  501    0 -0.56567892987E+02 -0.44872466080E+02 -0.17963700597E+03  0.19360505841E+03  0.00000000000E+00 0. -1.
<scales pt_clust_3="46.70742" pt_clust_4="14000.00000" pt_clust_5="65.94470" pt_clust_6="71.79051"></scales>
<clustering>
<clus scale="   46.707">  1  3  2 -1</clus>
<clus scale="   65.945">  1  5  2 -1</clus>
<clus scale="   71.791">  2  6  1 -1</clus>
<clus scale="   46.707">  1  3  2 -1</clus>
</clustering>
</event>
<event>
 6    0  0.3584505E+002  0.1012284E+03  0.7546771E-02  0.1277734E+00
         -3   -1    0    0    0  501 -0.00000000000E+00  0.00000000000E+00  0.23230052629E+03  0.23230052629E+03  0.00000000000E+00 0. -1.
         21   -1    0    0  503  502  0.00000000000E+00 -0.00000000000E+00 -0.51633383385E+03  0.51633383385E+03  0.00000000000E+00 0. -1.
         21    1    1    2  503  501 -0.29176346745E+02 -0.55386762529E+02 -0.13983409609E+02  0.64144278132E+02  0.00000000000E+00 0.  1.
         21    1    1    2  504  502  0.45085009272E+02 -0.39493970446E+02 -0.32364166292E+03  0.32914488868E+03  0.00000000000E+00 0. -1.
         21    1    1    2  505  504  0.86891649239E+02  0.83703847354E+02 -0.10903992544E+03  0.16262287081E+03  0.00000000000E+00 0. -1.
         -3    1    1    2    0  505 -0.10280031177E+03  0.11176885620E+02  0.16263169041E+03  0.19272232252E+03  0.00000000000E+00 0. -1.
<scales pt_clust_3="66.55518" pt_clust_4="59.93690" pt_clust_5="101.22845" pt_clust_6="14000.00000"></scales>
<clustering>
<clus scale="   59.937">  2  4  1 -1</clus>
<clus scale="   66.555">  2  3  1 -1</clus>
<clus scale="  101.228">  2  5  1 -1</clus>
<clus scale="   59.937">  2  3  1 -1</clus>
</clustering>
</event>
<event>
 6    0  0.3584505E+002  0.9477303E+02  0.7546771E-02  0.1291688E+00
          3   -1    0    0  503    0 -0.00000000000E+00  0.00000000000E+00  0.79677290622E+03  0.79677290622E+03  0.00000000000E+00 0. -1.
         21   -1    0    0  504  502  0.00000000000E+00 -0.00000000000E+00 -0.17556175415E+03  0.17556175415E+03  0.00000000000E+00 0.  1.
         21    1    1    2  503  502  0.37535640936E+01  0.74760867379E+02  0.31803645531E+03  0.32672689427E+03  0.00000000000E+00 0. -1.
         21    1    1    2  504  505 -0.82248619921E+02  0.35252949528E+02 -0.88739085288E+02  0.12602472451E+03  0.00000000000E+00 0.  1.
         21    1    1    2  505  501  0.89668940904E+02 -0.64353198767E+02 -0.13732186447E+02  0.11122241725E+03  0.00000000000E+00 0.  1.
          3    1    1    2  501    0 -0.11173885076E+02 -0.45660618140E+02  0.40564596850E+03  0.40836062435E+03  0.00000000000E+00 0. -1.
<scales pt_clust_3="37.39950" pt_clust_4="94.77303" pt_clust_5="14000.00000" pt_clust_6="47.00795"></scales>
<clustering>
<clus scale="   47.008">  1  6  2 -1</clus>
<clus scale="   37.400">  1  3  2 -1</clus>
<clus scale="   94.773">  2  4  1 -1</clus>
<clus scale="   94.773">  2  3  1 -1</clus>
</clustering>
</event>
<event>
 6    0  0.3584505E+002  0.1499434E+03  0.7546771E-02  0.1200543E+00
         21   -1    0    0  503  502  0.00000000000E+00  0.00000000000E+00  0.14076055913E+04  0.14076055913E+04  0.00000000000E+00 0.  1.
         -1   -1    0    0    0  501 -0.00000000000E+00 -0.00000000000E+00 -0.20126203010E+03  0.20126203010E+03  0.00000000000E+00 0.  1.
         21    1    1    2  503  501 -0.10784030574E+03 -0.94907494499E+02  0.20733510822E+03  0.25223959078E+03  0.00000000000E+00 0.  1.
         21    1    1    2  504  505  0.10923959440E+03  0.11045550609E+03  0.37520388160E+03  0.40609316736E+03  0.00000000000E+00 0.  1.
         21    1    1    2  505  502  0.79069780062E+02  0.19014994127E+02  0.77314449415E+03  0.77740980760E+03  0.00000000000E+00 0.  1.
         -1    1    1    2    0  504 -0.80469068724E+02 -0.34563005717E+02 -0.14933992274E+03  0.17312505570E+03  0.00000000000E+00 0.  1.
<scales pt_clust_3="149.94340" pt_clust_4="14000.00000" pt_clust_5="81.32404" pt_clust_6="86.07065"></scales>
<clustering>
<clus scale="   81.324">  1  5  2 -1</clus>
<clus scale="   86.071">  2  6  1 -1</clus>
<clus scale="  149.943">  1  3  2 -1</clus>
<clus scale="   81.324">  1  3  2 -1</clus>
</clustering>
</event>
<event>
 6    0  0.3584505E+002  0.7180914E+02  0.7546771E-02  0.1354047E+00
         21   -1    0    0  503  502  0.00000000000E+00  0.00000000000E+00  0.17390161801E+03  0.17390161801E+03  0.00000000000E+00 0. -1.
          2   -1    0    0  505    0 -0.00000000000E+00 -0.00000000000E+00 -0.15081664495E+04  0.15081664495E+04  0.00000000000E+00 0.  1.
         21    1    1    2  503  504 -0.41871877203E+02 -0.59538706438E+02  0.13866954891E+03  0.15661211786E+03  0.00000000000E+00 0. -1.
         21    1    1    2  504  501  0.54876335365E+02 -0.37957267324E+02 -0.45899587836E+02  0.80987273625E+02  0.00000000000E+00 0.  1.
         21    1    1    2  505  502 -0.50797635265E+02  0.83401870399E+02 -0.27669392522E+03  0.29342085813E+03  0.00000000000E+00 0.  1.
          2    1    1    2  501    0  0.37793177103E+02  0.14094103362E+02 -0.11503408673E+04  0.11510478178E+04  0.00000000000E+00 0.  1.
<scales pt_clust_3="14000.00000" pt_clust_4="71.06112" pt_clust_5="71.80914" pt_clust_6="40.33569"></scales>
<clustering>
<clus scale="   40.336">  2  6  1 -1</clus>
<clus scale="   71.061">  2  4  1 -1</clus>
<clus scale="   71.809">  2  5  1 -1</clus>
<clus scale="   71.809">  1  3  2 -1</clus>
</clustering>
</event>
<event>
 6    0  0.3584505E+002  0.6460734E+02  0.7546771E-02  0.1379455E+00
         21   -1    0    0  503  502  0.00000000000E+00  0.00000000000E+00  0.31937473020E+02  0.31937473020E+02  0.00000000000E+00 0. -1.
          2   -1    0    0  505    0 -0.00000000000E+00 -0.00000000000E+00 -0.20555354748E+04  0.20555354748E+04  0.00000000000E+00 0. -1.
         21    1    1    2  503  501  0.41844949268E+02 -0.19942822479E+02 -0.13135794376E+03  0.13929689636E+03  0.00000000000E+00 0. -1.
         21    1    1    2  504  502 -0.57578240872E+02  0.56273299857E+02 -0.40059493507E+02  0.89926086975E+02  0.00000000000E+00 0. -1.
         21    1    1    2  505  504 -0.36746355758E+02  0.39897482129E+02 -0.88164992425E+03  0.88331686991E+03  0.00000000000E+00 0. -1.
          2    1    1    2  501    0  0.52479647361E+02 -0.76227959507E+02 -0.97053064023E+03  0.97493309454E+03  0.00000000000E+00 0. -1.
<scales pt_clust_3="46.35424" pt_clust_4="43.50681" pt_clust_5="64.60734" pt_clust_6="14000.00000"></scales>
<clustering>
<clus scale="   46.354">  1  3  2 -1</clus>
<clus scale="   43.507">  1  4  2 -1</clus>
<clus scale="   64.607">  2  5  1 -1</clus>
<clus scale="   46.354">  1  3  2 -1</clus>
</clustering>
</event>
<event>
 6    0  0.3584505E+002  0.1028834E+03  0.7546771E-02  0.1274347E+00
         21   -1    0    0  503  502  0.00000000000E+00  0.00000000000E+00  0.70182241621E+02  0.70182241621E+02  0.00000000000E+00 0. -1.
          2   -1    0    0  504    0 -0.00000000000E+00 -0.00000000000E+00 -0.65633236018E+03  0.65633236018E+03  0.00000000000E+00 0.  1.
         21    1    1    2  503  505  0.42450052323E+02 -0.61777262807E+01 -0.27130409973E+02  0.50756579766E+02  0.00000000000E+00 0. -1.
         21    1    1    2  504  502  0.20775355362E+01  0.89501008339E+02 -0.52450641145E+02  0.10375845221E+03  0.00000000000E+00 0.  1.
         21    1    1    2  505  501  0.91171363225E+01 -0.12468662134E+03 -0.10074203393E+03  0.16055788089E+03  0.00000000000E+00 0. -1.
          2    1    1    2  501    0 -0.53644724181E+02  0.41363339280E+02 -0.40582703351E+03  0.41144168894E+03  0.00000000000E+00 0.  1.
<scales pt_clust_3="42.89722" pt_clust_4="102.88343" pt_clust_5="14000.00000" pt_clust_6="65.94928"></scales>
<clustering>
<clus scale="   42.897">  1  3  2 -1</clus>
<clus scale="   65.949">  2  6  1 -1</clus>
<clus scale="  102.883">  1  4  2 -1</clus>
<clus scale="   42.897">  1  3  2 -1</clus>
</clustering>
</event>
<event>
 6    0  0.3584505E+002  0.8315940E+02  0.7546771E-02  0.1320317E+00
          2   -1    0    0  505    0 -0.00000000000E+00  0.00000000000E+00  0.14651630866E+03  0.14651630866E+03  0.00000000000E+00 0. -1.
         21   -1    0    0  503  502  0.00000000000E+00 -0.00000000000E+00 -0.81004350841E+03  0.81004350841E+03  0.00000000000E+00 0. -1.
         21    1    1    2  503  504 -0.28923147033E+02  0.12124432757E+02 -0.16573609980E+03  0.16867722158E+03  0.00000000000E+00 0. -1.
         21    1    1    2  504  501 -0.48489157846E+02 -0.46897687160E+02 -0.57959059006E+03  0.58350307932E+03  0.00000000000E+00 0. -1.
         21    1    1    2  505  502  0.27340747083E+02 -0.61815718610E+02  0.65948728774E+02  0.94434815324E+02  0.00000000000E+00 0. -1.
          2    1    1    2  501    0  0.50071557796E+02  0.96588973013E+02  0.15850761345E+02  0.10994470084E+03  0.00000000000E+00 0. -1.
<scales pt_clust_3="31.36161" pt_clust_4="14000.00000" pt_clust_5="67.08896" pt_clust_6="83.15940"></scales>
<clustering>
<clus scale="   31.362">  2  3  1 -1</clus>
<clus scale="   67.089">  1  5  2 -1</clus>
<clus scale="   83.159">  1  6  2 -1</clus>
<clus scale="   31.362">  2  3  1 -1</clus>
</clustering>
</event>
<event>
 6    0  0.3584505E+002  0.9125631E+02  0.7546771E-02  0.1299838E+00
         21   -1    0    0  505  502  0.00000000000E+00  0.00000000000E+00  0.14556182340E+04  0.14556182340E+04  0.00000000000E+00 0.  1.
         -1   -1    0    0    0  501 -0.00000000000E+00 -0.00000000000E+00 -0.48320299903E+03  0.48320299903E+03  0.00000000000E+00 0.  1.
         21    1    1    2  503  501  0.63919812983E+02 -0.36008301151E+02 -0.10113133951E+02  0.74058191457E+02  0.00000000000E+00 0. -1.
         21    1    1    2  504  502 -0.85834844262E+02  0.51790493589E+01  0.72972136273E+03  0.73477051538E+03  0.00000000000E+00 0.  1.
         21    1    1    2  505  503  0.19907184640E+02  0.64160326572E+02  0.68912855489E+03  0.69239512468E+03  0.00000000000E+00 0.  1.
         -1    1    1    2    0  504  0.20078466391E+01 -0.33331074780E+02 -0.43632154868E+03  0.43759740155E+03  0.00000000000E+00 0.  1.
<scales pt_clust_3="14000.00000" pt_clust_4="91.25631" pt_clust_5="66.07568" pt_clust_6="33.39150"></scales>
<clustering>
<clus scale="   33.391">  2  6  1 -1</clus>
<clus scale="   66.076">  1  5  2 -1</clus>
<clus scale="   91.256">  1  4  2 -1</clus>
<clus scale="   66.076">  1  3  2 -1</clus>
</clustering>
</event>
<event>
 6    0  0.3584505E+002  0.9531031E+02  0.7546771E-02  0.1290479E+00
          1   -1    0    0  503    0 -0.00000000000E+00  0.00000000000E+00  0.63993742626E+03  0.63993742626E+03  0.00000000000E+00 0. -1.
         21   -1    0    0  504  502  0.00000000000E+00 -0.00000000000E+00 -0.38679492677E+03  0.38679492677E+03  0.00000000000E+00 0.  1.
         21    1    1    2  503  505  0.15758132407E+03 -0.59177223912E+02  0.17185802424E+03  0.24055975977E+03  0.00000000000E+00 0.  1.
         21    1    1    2  504  501 -0.45786407580E+02 -0.35533392514E+01  0.33032746447E+02  0.56570165959E+02  0.00000000000E+00 0. -1.
         21    1    1    2  505  502 -0.85759331257E+02  0.36126450991E+02 -0.33339803815E+03  0.34614164038E+03  0.00000000000E+00 0.  1.
          1    1    1    2  501    0 -0.26035585235E+02  0.26604112172E+02  0.38164976696E+03  0.38346078692E+03  0.00000000000E+00 0. -1.
<scales pt_clust_3="14000.00000" pt_clust_4="50.32985" pt_clust_5="95.31031" pt_clust_6="37.22406"></scales>
<clustering>
<clus scale="   37.224">  1  6  2 -1</clus>
<clus scale="   50.330">  1  4  2 -1</clus>
<clus scale="   95.310">  2  5  1 -1</clus>
<clus scale="   95.310">  2  3  1 -1</clus>
</clustering>
</event>
<event>
 6    0  0.3584505E+002  0.1161072E+03  0.7546771E-02  0.1249661E+00
          2   -1    0    0  503    0 -0.00000000000E+00  0.00000000000E+00  0.88052312750E+03  0.88052312750E+03  0.00000000000E+00 0.  1.
         21   -1    0    0  504  502  0.00000000000E+00 -0.00000000000E+00 -0.31706609830E+03  0.31706609830E+03  0.00000000000E+00 0.  1.
         21    1    1    2  503  505  0.15556754580E+03 -0.14359685726E+02  0.27049338310E+03  0.31236858386E+03  0.00000000000E+00 0.  1.
         21    1    1    2  504  501 -0.86189343694E+02  0.34999277737E+02 -0.51592051865E+02  0.10637336238E+03  0.00000000000E+00 0.  1.
         21    1    1    2  505  502 -0.29135155612E+02 -0.20403840987E+02 -0.21496162424E+03  0.21788454263E+03  0.00000000000E+00 0.  1.
          2    1    1    2  501    0 -0.40243046497E+02 -0.23575102410E+00  0.55951732222E+03  0.56096273694E+03  0.00000000000E+00 0.  1.
<scales pt_clust_3="14000.00000" pt_clust_4="116.10723" pt_clust_5="35.56928" pt_clust_6="40.45407"></scales>
<clustering>
<clus scale="   35.569">  2  5  1 -1</clus>
<clus scale="   40.454">  1  6  2 -1</clus>
<clus scale="  116.107">  2  4  1 -1</clus>
<clus scale="   35.569">  2  3  1 -1</clus>
</clustering>
</event>
<event>
 6    0  0.3584505E+002  0.1473183E+03  0.7546771E-02  0.1203807E+00
          1   -1    0    0  504    0 -0.00000000000E+00  0.00000000000E+00  0.21573830801E+04  0.21573830801E+04  0.00000000000E+00 0. -1.
         21   -1    0    0  503  502  0.00000000000E+00 -0.00000000000E+00 -0.40059835118E+02  0.40059835118E+02  0.00000000000E+00 0. -1.
         21    1    1    2  503  501  0.41313385875E+01 -0.13897855061E+03  0.16546419295E+03  0.21612613132E+03  0.00000000000E+00 0. -1.
         21    1    1    2  504  505  0.49407642392E+02  0.12864782197E+03  0.69527891737E+03  0.70880473345E+03  0.00000000000E+00 0. -1.
         21    1    1    2  505  502 -0.34759774354E+02 -0.17590286127E+02  0.41330823280E+02  0.56796980836E+02  0.00000000000E+00 0. -1.
          1    1    1    2  501    0 -0.18779206625E+02  0.27921014775E+02  0.12152493114E+04  0.12157150696E+04  0.00000000000E+00 0. -1.
<scales pt_clust_3="14000.00000" pt_clust_4="147.31832" pt_clust_5="39.21186" pt_clust_6="33.64880"></scales>
<clustering>
<clus scale="   33.649">  1  6  2 -1</clus>
<clus scale="   39.212">  2  5  1 -1</clus>
<clus scale="  147.318">  1  4  2 -1</clus>
<clus scale="   39.212">  2  3  1 -1</clus>
</clustering>
</event>
<event>
 6    0  0.3584505E+002  0.1155647E+03  0.7546771E-02  0.1250599E+00
         -1   -1    0    0    0  501 -0.00000000000E+00  0.00000000000E+00  0.69794047914E+03  0.69794047914E+03  0.00000000000E+00 0.  1.
         21   -1    0    0  505  502  0.00000000000E+00 -0.00000000000E+00 -0.14687741448E+04  0.14687741448E+04  0.00000000000E+00 0. -1.
         21    1    1    2  503  501 -0.39247488936E+02 -0.61477160589E+02  0.94070488733E+02  0.11903387548E+03  0.00000000000E+00 0. -1.
         21    1    1    2  504  503  0.23975961908E+02  0.93036486864E+02 -0.56324362644E+02  0.11136906422E+03  0.00000000000E+00 0. -1.
         21    1    1    2  505  504 -0.19346749440E+02  0.31620018791E+02 -0.13698928853E+04  0.13703943372E+04  0.00000000000E+00 0. -1.
         -1    1    1    2    0  502  0.34618276467E+02 -0.63179345065E+02  0.56131309353E+03  0.56591734703E+03  0.00000000000E+00 0.  1.
<scales pt_clust_3="71.00698" pt_clust_4="14000.00000" pt_clust_5="37.06916" pt_clust_6="115.56474"></scales>
<clustering>
<clus scale="   37.069">  2  5  1 -1</clus>
<clus scale="   71.007">  1  3  2 -1</clus>
<clus scale="  115.565">  1  6  2 -1</clus>
<clus scale="   37.069">  2  3  1 -1</clus>
</clustering>
</event>
<event>
 6    0  0.3584505E+002  0.7660440E+02  0.7546771E-02  0.1338973E+00
         21   -1    0    0  503  502  0.00000000000E+00  0.00000000000E+00  0.21805749767E+04  0.21805749767E+04  0.00000000000E+00 0.  1.
          1   -1    0    0  505    0 -0.00000000000E+00 -0.00000000000E+00 -0.46682678139E+03  0.46682678139E+03  0.00000000000E+00 0. -1.
         21    1    1    2  503  504 -0.45759648552E+01  0.41195384981E+02  0.13236494479E+04  0.13242982520E+04  0.00000000000E+00 0.  1.
         21    1    1    2  504  501  0.27823114675E+02 -0.10650220973E+03  0.74715081230E+03  0.75521598415E+03  0.00000000000E+00 0.  1.
         21    1    1    2  505  502 -0.53827115197E+02  0.79915506835E+02  0.82611763107E+02  0.12691946252E+03  0.00000000000E+00 0.  1.
          1    1    1    2  501    0  0.30579965377E+02 -0.14608682087E+02 -0.43966382797E+03  0.44096805950E+03  0.00000000000E+00 0. -1.
<scales pt_clust_3="41.23128" pt_clust_4="14000.00000" pt_clust_5="76.60440" pt_clust_6="33.89023"></scales>
<clustering>
<clus scale="   33.890">  2  6  1 -1</clus>
<clus scale="   41.231">  1  3  2 -1</clus>
<clus scale="   76.604">  2  5  1 -1</clus>
<clus scale="   41.231">  1  3  2 -1</clus>
</clustering>
</event>
<event>
 6    0  0.3584505E+002  0.7005767E+02  0.7546771E-02  0.1359897E+00
          2   -1    0    0  505    0 -0.00000000000E+00  0.00000000000E+00  0.23558446978E+04  0.23558446978E+04  0.00000000000E+00 0.  1.
         21   -1    0    0  504  502  0.00000000000E+00 -0.00000000000E+00 -0.43781925164E+02  0.43781925164E+02  0.00000000000E+00 0.  1.
         21    1    1    2  503  501  0.41976751986E+02 -0.39448923259E+02  0.12804192110E+03  0.14040298719E+03  0.00000000000E+00 0.  1.
         21    1    1    2  504  503 -0.39122391372E+02  0.41118827771E+02  0.88268465016E+02  0.10494113312E+03  0.00000000000E+00 0.  1.
         21    1    1    2  505  502 -0.39188560337E+02 -0.61500476601E+02  0.17687919162E+02  0.75039418760E+02  0.00000000000E+00 0.  1.
          2    1    1    2  501    0  0.36334199724E+02  0.59830572090E+02  0.20780644674E+04  0.20792430839E+04  0.00000000000E+00 0.  1.
<scales pt_clust_3="47.72658" pt_clust_4="56.75667" pt_clust_5="14000.00000" pt_clust_6="70.05767"></scales>
<clustering>
<clus scale="   56.757">  2  4  1 -1</clus>
<clus scale="   47.727">  2  3  1 -1</clus>
<clus scale="   70.058">  1  6  2 -1</clus>
<clus scale="   56.757">  2  3  1 -1</clus>
</clustering>
</event>
<event>
 6    0  0.3584505E+002  0.8644567E+02  0.7546771E-02  0.1311695E+00
         21   -1    0    0  503  502  0.00000000000E+00  0.00000000000E+00  0.36867574669E+03  0.36867574669E+03  0.00000000000E+00 0. -1.
          2   -1    0    0  504    0 -0.00000000000E+00 -0.00000000000E+00 -0.16136023143E+04  0.16136023143E+04  0.00000000000E+00 0.  1.
         21    1    1    2  503  501  0.62638261552E+02  0.39356104532E+02  0.26829573699E+03  0.27830748690E+03  0.00000000000E+00 0. -1.
         21    1    1    2  504  505  0.63834299495E+02 -0.28884355002E+02 -0.94320573294E+02  0.11749678422E+03  0.00000000000E+00 0.  1.
         21    1    1    2  505  502 -0.40357806177E+02  0.16771457045E+02  0.76630200078E+02  0.88216902319E+02  0.00000000000E+00 0. -1.
          2    1    1    2  501    0 -0.86114754871E+02 -0.27243206576E+02 -0.14955319314E+04  0.14982568875E+04  0.00000000000E+00 0.  1.
<scales pt_clust_3="60.38888" pt_clust_4="86.44567" pt_clust_5="43.70394" pt_clust_6="14000.00000"></scales>
<clustering>
<clus scale="   43.704">  1  5  2 -1</clus>
<clus scale="   60.389">  1  3  2 -1</clus>
<clus scale="   86.446">  1  4  2 -1</clus>
<clus scale="   43.704">  1  3  2 -1</clus>
</clustering>
</event>
<event>
 6    0  0.3584505E+002  0.1249690E+03  0.7546771E-02  0.1235118E+00
         -2   -1    0    0    0  501 -0.00000000000E+00  0.00000000000E+00  0.57294706245E+02  0.57294706245E+02  0.00000000000E+00 0.  1.
         21   -1    0    0  504  502  0.00000000000E+00 -0.00000000000E+00 -0.89851261819E+03  0.89851261819E+03  0.00000000000E+00 0. -1.
         21    1    1    2  503  502 -0.10338416428E+03  0.52343553990E+02 -0.74865780932E+02  0.13796020522E+03  0.00000000000E+00 0.  1.
         21    1    1    2  504  505  0.21625838888E+02 -0.22325908991E+02 -0.39301720200E+03  0.39424439652E+03  0.00000000000E+00 0. -1.
         21    1    1    2  505  501  0.89906765860E+02 -0.61304906395E+02 -0.37574202877E+03  0.39118229801E+03  0.00000000000E+00 0. -1.
         -2    1    1    2    0  503 -0.81484404659E+01  0.31287261396E+02  0.24070997540E+01  0.32420424687E+02  0.00000000000E+00 0.  1.
<scales pt_clust_3="124.96901" pt_clust_4="31.08252" pt_clust_5="14000.00000" pt_clust_6="31.53004"></scales>
<clustering>
<clus scale="   31.083">  2  4  1 -1</clus>
<clus scale="   31.530">  1  6  2 -1</clus>
<clus scale="  124.969">  1  3  2 -1</clus>
<clus scale="   31.083">  2  3  1 -1</clus>
</clustering>
</event>
<event>
 6    0  0.3584505E+002  0.7972228E+02  0.7546771E-02  0.1329841E+00
         21   -1    0    0  505  502  0.00000000000E+00  0.00000000000E+00  0.46125169640E+02  0.46125169640E+02  0.00000000000E+00 0. -1.
          2   -1    0    0  503    0 -0.00000000000E+00 -0.00000000000E+00 -0.10145229439E+04  0.10145229439E+04  0.00000000000E+00 0.  1.
         21    1    1    2  503  504  0.29372387994E+02 -0.10855843516E+02 -0.74453623932E+02  0.80770840231E+02  0.00000000000E+00 0. -1.
         21    1    1    2  504  502  0.29683698721E+02  0.58664826123E+02 -0.43412172527E+02  0.78786423433E+02  0.00000000000E+00 0. -1.
         21    1    1    2  505  501 -0.47819296519E+02 -0.94424319239E+02 -0.89672766947E+02  0.13872217673E+03  0.00000000000E+00 0. -1.
          2    1    1    2  501    0 -0.11236790196E+02  0.46615336632E+02 -0.76085921086E+03  0.76236867316E+03  0.00000000000E+00 0.  1.
<scales pt_clust_3="31.31432" pt_clust_4="14000.00000" pt_clust_5="79.72228" pt_clust_6="39.84848"></scales>
<clustering>
<clus scale="   31.314">  2  3  1 -1</clus>
<clus scale="   39.848">  2  6  1 -1</clus>
<clus scale="   79.722">  2  5  1 -1</clus>
<clus scale="   79.722">  1  3  2 -1</clus>
</clustering>
</event>
<event>
 6    0  0.3584505E+002  0.1135834E+03  0.7546771E-02  0.1254074E+00
         21   -1    0    0  503  502  0.00000000000E+00  0.00000000000E+00  0.60576695829E+03  0.60576695829E+03  0.00000000000E+00 0.  1.
          2   -1    0    0  504    0 -0.00000000000E+00 -0.00000000000E+00 -0.32339146028E+04  0.32339146028E+04  0.00000000000E+00 0.  1.
         21    1    1    2  503  501  0.92005566423E+02  0.11087070137E+03  0.82380208535E+02  0.16596335569E+03  0.00000000000E+00 0.  1.
         21    1    1    2  504  505 -0.63561091338E+01 -0.10613644255E+03 -0.39521861384E+03  0.40927142251E+03  0.00000000000E+00 0.  1.
         21    1    1    2  505  502 -0.29585301716E+02 -0.16313999135E+02  0.47367335814E+03  0.47487670701E+03  0.00000000000E+00 0.  1.
          2    1    1    2  501    0 -0.56064155573E+02  0.11579740316E+02 -0.27889825973E+04  0.27895700759E+04  0.00000000000E+00 0.  1.
<scales pt_clust_3="113.58335" pt_clust_4="14000.00000" pt_clust_5="33.78515" pt_clust_6="57.30491"></scales>
<clustering>
<clus scale="   33.785">  1  5  2 -1</clus>
<clus scale="   57.305">  2  6  1 -1</clus>
<clus scale="  113.583">  1  3  2 -1</clus>
<clus scale="   33.785">  1  3  2 -1</clus>
</clustering>
</event>
<event>
 6    0  0.3360587E+003  0.1052526E+03  0.7546771E-02  0.1269623E+00
         -2   -1    0    0    0  501 -0.00000000000E+00  0.00000000000E+00  0.18223847720E+04  0.18223847720E+04  0.00000000000E+00 0.  1.
         21   -1    0    0  503  502  0.00000000000E+00 -0.00000000000E+00 -0.34329139508E+03  0.34329139508E+03  0.00000000000E+00 0. -1.
         21    1    1    2  503  505  0.48822548253E+01  0.46968495437E+02  0.14938225482E+01  0.47245184745E+02  0.00000000000E+00 0.  1.
         21    1    1    2  504  502 -0.59240084235E+02  0.63624833830E+01  0.18667266623E+02  0.62436652842E+02  0.00000000000E+00 0. -1.
         21    1    1    2  505  501  0.16783707794E+02  0.45380258804E+02 -0.29497135967E+03  0.29891330476E+03  0.00000000000E+00 0. -1.
         -2    1    1    2    0  504  0.37574121616E+02 -0.98711237624E+02  0.17539036474E+04  0.17570810248E+04  0.00000000000E+00 0.  1.
<scales pt_clust_3="47.22156" pt_clust_4="59.67901" pt_clust_5="14000.00000" pt_clust_6="105.25264"></scales>
<clustering>
<clus scale="   47.222">  2  3  1 -1</clus>
<clus scale="   59.679">  2  4  1 -1</clus>
<clus scale="  105.253">  1  6  2 -1</clus>
<clus scale="   47.222">  2  3  1 -1</clus>
</clustering>
</event>
<event>
 6    0  0.3584505E+002  0.1579695E+03  0.7546771E-02  0.1191008E+00
         21   -1    0    0  503  502  0.00000000000E+00  0.00000000000E+00  0.23120512357E+03  0.23120512357E+03  0.00000000000E+00 0.  1.
          3   -1    0    0  504    0 -0.00000000000E+00 -0.00000000000E+00 -0.12461830373E+04  0.12461830373E+04  0.00000000000E+00 0.  1.
         21    1    1    2  503  505 -0.39200206307E+02 -0.34554901586E+02  0.48009483690E+02  0.70962017462E+02  0.00000000000E+00 0. -1.
         21    1    1    2  504  502 -0.10920186514E+02  0.77617168216E+02 -0.16166553141E+03  0.17966474146E+03  0.00000000000E+00 0.  1.
         21    1    1    2  505  501 -0.31063038898E+02 -0.10127820819E+03  0.14283781851E+03  0.17783371513E+03  0.00000000000E+00 0.  1.
          3    1    1    2  501    0  0.81183431719E+02  0.58215941562E+02 -0.10441596845E+04  0.10489276869E+04  0.00000000000E+00 0.  1.
<scales pt_clust_3="32.10149" pt_clust_4="78.38160" pt_clust_5="32.10149" pt_clust_6="151.21278"></scales>
<clustering>
<clus scale="   32.101">  3  5 -1 -1</clus>
<clus scale="   78.382">  2  4  1 -1</clus>
<clus scale="  151.213">  2  6  1 -1</clus>
<clus scale="  157.970">  1  3  2 -1</clus>
</clustering>
</event>
<event>
 6    0  0.3584505E+002  0.8120109E+02  0.7546771E-02  0.1325677E+00
         -3   -1    0    0    0  501 -0.00000000000E+00  0.00000000000E+00  0.57550361839E+03  0.57550361839E+03  0.00000000000E+00 0.  1.
         21   -1    0    0  504  502  0.00000000000E+00 -0.00000000000E+00 -0.26002197364E+03  0.26002197364E+03  0.00000000000E+00 0.  1.
         21    1    1    2  503  502  0.10276822478E+03 -0.14538730109E+02 -0.15103082724E+02  0.10488463093E+03  0.00000000000E+00 0.  1.
         21    1    1    2  504  505  0.41925544102E+02  0.44248940394E+02 -0.15565735036E+03  0.16716737330E+03  0.00000000000E+00 0.  1.
         21    1    1    2  505  501 -0.65948090206E+02 -0.14166816477E+02 -0.31664294765E+01  0.67526850708E+02  0.00000000000E+00 0.  1.
         -3    1    1    2    0  503 -0.78745678673E+02 -0.15543393807E+02  0.48940850732E+03  0.49594673710E+03  0.00000000000E+00 0.  1.
<scales pt_clust_3="14000.00000" pt_clust_4="60.95671" pt_clust_5="50.94805" pt_clust_6="81.20109"></scales>
<clustering>
<clus scale="   60.957">  2  4  1 -1</clus>
<clus scale="   50.948">  2  5  1 -1</clus>
<clus scale="   81.201">  1  6  2 -1</clus>
<clus scale="   60.957">  2  3  1 -1</clus>
</clustering>
</event>
<event>
 6    0  0.3584505E+002  0.1470864E+03  0.7546771E-02  0.1204100E+00
          1   -1    0    0  503    0 -0.00000000000E+00  0.00000000000E+00  0.80926180855E+03  0.80926180855E+03  0.00000000000E+00 0.  1.
         21   -1    0    0  501  502  0.00000000000E+00 -0.00000000000E+00 -0.63356331136E+02  0.63356331136E+02  0.00000000000E+00 0.  1.
         21    1    1    2  503  504  0.45336969318E+02  0.31985190733E+02  0.13656164081E+03  0.14740276440E+03  0.00000000000E+00 0.  1.
         21    1    1    2  504  505  0.76188167180E+02 -0.10777617297E+02  0.16897396061E+03  0.18566904216E+03  0.00000000000E+00 0. -1.
         21    1    1    2  505  502  0.45467825858E+02 -0.10642778106E+03  0.10990265194E+03  0.15960196951E+03  0.00000000000E+00 0.  1.
          1    1    1    2  501    0 -0.16699296236E+03  0.85220207620E+02  0.33046722405E+03  0.37994436361E+03  0.00000000000E+00 0.  1.
<scales pt_clust_3="41.31061" pt_clust_4="41.31061" pt_clust_5="115.73330" pt_clust_6="138.80820"></scales>
<clustering>
<clus scale="   41.311">  3  4 -1 -1</clus>
<clus scale="  115.733">  2  5  1 -1</clus>
<clus scale="  138.808">  2  6  1 -1</clus>
<clus scale="  115.733">  2  3  1 -1</clus>
</clustering>
</event>
<event>
 6    0  0.3584505E+002  0.1121126E+03  0.7546771E-02  0.1256707E+00
         21   -1    0    0  505  502  0.00000000000E+00  0.00000000000E+00  0.31087453854E+02  0.31087453854E+02  0.00000000000E+00 0.  1.
          2   -1    0    0  503    0 -0.00000000000E+00 -0.00000000000E+00 -0.20808133879E+04  0.20808133879E+04  0.00000000000E+00 0.  1.
         21    1    1    2  503  504  0.48040286298E+02 -0.49183374109E+02 -0.34801748697E+03  0.35474363227E+03  0.00000000000E+00 0.  1.
         21    1    1    2  504  502 -0.22848826601E+01  0.32190873482E+02 -0.49885605698E+02  0.59414195948E+02  0.00000000000E+00 0.  1.
         21    1    1    2  505  501 -0.11327117900E+03  0.23603381716E+01 -0.12249668592E+03  0.16685733202E+03  0.00000000000E+00 0.  1.
          2    1    1    2  501    0  0.67515775364E+02  0.14632162456E+02 -0.15293261555E+04  0.15308856815E+04  0.00000000000E+00 0.  1.
<scales pt_clust_3="65.66025" pt_clust_4="32.27186" pt_clust_5="112.11260" pt_clust_6="14000.00000"></scales>
<clustering>
<clus scale="   32.272">  1  4  2 -1</clus>
<clus scale="   65.660">  2  3  1 -1</clus>
<clus scale="  112.113">  1  5  2 -1</clus>
<clus scale="   32.272">  1  3  2 -1</clus>
</clustering>
</event>
<event>
 6    0  0.3584505E+002  0.9491039E+02  0.7546771E-02  0.1291378E+00
          1   -1    0    0  504    0 -0.00000000000E+00  0.00000000000E+00  0.59724302135E+03  0.59724302135E+03  0.00000000000E+00 0. -1.
         21   -1    0    0  505  502  0.00000000000E+00 -0.00000000000E+00 -0.10103553051E+03  0.10103553051E+03  0.00000000000E+00 0. -1.
         21    1    1    2  503  501  0.45705469996E+02  0.90331358342E+02  0.10324505665E+03  0.14459697787E+03  0.00000000000E+00 0. -1.
         21    1    1    2  504  502 -0.31636026702E+02  0.80015480460E+01  0.15079691742E+02  0.35948018856E+02  0.00000000000E+00 0. -1.
         21    1    1    2  505  503 -0.39066003781E+02 -0.76279000299E+02 -0.42757206370E+02  0.95774825683E+02  0.00000000000E+00 0. -1.
          1    1    1    2  501    0  0.24996560487E+02 -0.22053906088E+02  0.42063994882E+03  0.42195872945E+03  0.00000000000E+00 0. -1.
<scales pt_clust_3="94.91039" pt_clust_4="32.63224" pt_clust_5="14000.00000" pt_clust_6="33.12371"></scales>
<clustering>
<clus scale="   32.632">  2  4  1 -1</clus>
<clus scale="   33.124">  1  6  2 -1</clus>
<clus scale="   94.910">  1  3  2 -1</clus>
<clus scale="   32.632">  2  3  1 -1</clus>
</clustering>
</event>
<event>
 6    0  0.3584505E+002  0.9547717E+02  0.7546771E-02  0.1290105E+00
          2   -1    0    0  505    0 -0.00000000000E+00  0.00000000000E+00  0.35825733467E+03  0.35825733467E+03  0.00000000000E+00 0. -1.
         21   -1    0    0  503  502  0.00000000000E+00 -0.00000000000E+00 -0.21060833975E+04  0.21060833975E+04  0.00000000000E+00 0.  1.
         21    1    1    2  503  501  0.40927019367E+02  0.27237291177E+02 -0.13267346393E+03  0.14148900656E+03  0.00000000000E+00 0.  1.
         21    1    1    2  504  502 -0.69927421511E+02  0.64839731595E+02 -0.19518064912E+04  0.19541347482E+04  0.00000000000E+00 0.  1.
         21    1    1    2  505  504 -0.18499169249E+02 -0.55805041648E+02  0.54045485060E+02  0.79858226825E+02  0.00000000000E+00 0. -1.
          2    1    1    2  501    0  0.47499571393E+02 -0.36271981124E+02  0.28260840728E+03  0.28885875054E+03  0.00000000000E+00 0. -1.
<scales pt_clust_3="49.16189" pt_clust_4="14000.00000" pt_clust_5="58.53780" pt_clust_6="95.47717"></scales>
<clustering>
<clus scale="   49.162">  2  3  1 -1</clus>
<clus scale="   58.538">  1  5  2 -1</clus>
<clus scale="   95.477">  1  6  2 -1</clus>
<clus scale="   49.162">  2  3  1 -1</clus>
</clustering>
</event>
<event>
 6    0  0.3584505E+002  0.8254144E+02  0.7546771E-02  0.1321990E+00
          2   -1    0    0  504    0 -0.00000000000E+00  0.00000000000E+00  0.36529665036E+03  0.36529665036E+03  0.00000000000E+00 0.  1.
         21   -1    0    0  503  502  0.00000000000E+00 -0.00000000000E+00 -0.23567314291E+03  0.23567314291E+03  0.00000000000E+00 0. -1.
         21    1    1    2  503  501 -0.62429876660E+02  0.35995707550E+02 -0.16135486513E+03  0.17671608009E+03  0.00000000000E+00 0. -1.
         21    1    1    2  504  505  0.17429813126E+02 -0.54949314841E+02  0.14700569837E+02  0.59492288077E+02  0.00000000000E+00 0. -1.
         21    1    1    2  505  502 -0.25634666802E+02 -0.26853717426E+02 -0.29618108173E+02  0.47492005784E+02  0.00000000000E+00 0. -1.
          2    1    1    2  501    0  0.70634730336E+02  0.45807324716E+02  0.30589591091E+03  0.31726941933E+03  0.00000000000E+00 0.  1.
<scales pt_clust_3="14000.00000" pt_clust_4="59.78956" pt_clust_5="37.12490" pt_clust_6="82.54144"></scales>
<clustering>
<clus scale="   37.125">  2  5  1 -1</clus>
<clus scale="   59.790">  2  4  1 -1</clus>
<clus scale="   82.541">  1  6  2 -1</clus>
<clus scale="   37.125">  2  3  1 -1</clus>
</clustering>
</event>
<event>
 6    0  0.3584505E+002  0.1303642E+03  0.7546771E-02  0.1226916E+00
         21   -1    0    0  504  502  0.00000000000E+00  0.00000000000E+00  0.64379281143E+03  0.64379281143E+03  0.00000000000E+00 0. -1.
          2   -1    0    0  503    0 -0.00000000000E+00 -0.00000000000E+00 -0.14130466939E+04  0.14130466939E+04  0.00000000000E+00 0.  1.
         21    1    1    2  503  502  0.41739867934E+02 -0.15923199360E+00 -0.37268994153E+03  0.37502004539E+03  0.00000000000E+00 0.  1.
         21    1    1    2  504  505 -0.12217707941E+03 -0.49305601280E+02  0.61788287146E+03  0.63177331686E+03  0.00000000000E+00 0. -1.
         21    1    1    2  505  501  0.72663111042E+02  0.79329344934E+02 -0.14756761190E+03  0.18261783253E+03  0.00000000000E+00 0.  1.
          2    1    1    2  501    0  0.77741004307E+01 -0.29864511660E+02 -0.86687920052E+03  0.86742831058E+03  0.00000000000E+00 0.  1.
<scales pt_clust_3="51.37966" pt_clust_4="14000.00000" pt_clust_5="130.36423" pt_clust_6="30.85977"></scales>
<clustering>
<clus scale="   30.860">  2  6  1 -1</clus>
<clus scale="   51.380">  2  3  1 -1</clus>
<clus scale="  130.364">  2  5  1 -1</clus>
<clus scale="  130.364">  1  3  2 -1</clus>
</clustering>
</event>
<event>
 6    0  0.3584505E+002  0.2082530E+03  0.7546771E-02  0.1142957E+00
          2   -1    0    0  502    0 -0.00000000000E+00  0.00000000000E+00  0.27411743713E+04  0.27411743713E+04  0.00000000000E+00 0.  1.
         21   -1    0    0  503  502  0.00000000000E+00 -0.00000000000E+00 -0.25730042585E+03  0.25730042585E+03  0.00000000000E+00 0.  1.
         21    1    1    2  503  504  0.11939769732E+02  0.40134018191E+02 -0.46872040871E+02  0.62851298577E+02  0.00000000000E+00 0. -1.
         21    1    1    2  504  505 -0.74305290018E+02  0.15568566535E+03 -0.15653451524E+03  0.23294281913E+03  0.00000000000E+00 0.  1.
         21    1    1    2  505  501  0.59306894400E+02 -0.10558890574E+03  0.53618636391E+03  0.54969277017E+03  0.00000000000E+00 0.  1.
          2    1    1    2  501    0  0.30586258859E+01 -0.90230777799E+02  0.21510941377E+04  0.21529879093E+04  0.00000000000E+00 0.  1.
<scales pt_clust_3="30.70865" pt_clust_4="30.70865" pt_clust_5="198.70624" pt_clust_6="90.28260"></scales>
<clustering>
<clus scale="   30.709">  3  4 -1 -1</clus>
<clus scale="   90.283">  1  6  2 -1</clus>
<clus scale="  198.706">  1  5  2 -1</clus>
<clus scale="  208.253">  2  3  1 -1</clus>
</clustering>
</event>
<event>
 6    0  0.3584505E+002  0.7511808E+02  0.7546771E-02  0.1343506E+00
         21   -1    0    0  503  502  0.00000000000E+00  0.00000000000E+00  0.12321983657E+04  0.12321983657E+04  0.00000000000E+00 0. -1.
          2   -1    0    0  504    0 -0.00000000000E+00 -0.00000000000E+00 -0.31142318755E+04  0.31142318755E+04  0.00000000000E+00 0. -1.
         21    1    1    2  503  501 -0.12505607012E+03  0.18896693043E+02  0.15686998449E+03  0.20150508112E+03  0.00000000000E+00 0. -1.
         21    1    1    2  504  505 -0.13909078938E+02  0.29275404264E+02 -0.14732628367E+03  0.15084941376E+03  0.00000000000E+00 0. -1.
         21    1    1    2  505  502  0.71740140709E+02 -0.86676172693E+01  0.10494901429E+04  0.10519749691E+04  0.00000000000E+00 0. -1.
          2    1    1    2  501    0  0.67225008346E+02 -0.39504480038E+02 -0.29410673536E+04  0.29421007773E+04  0.00000000000E+00 0. -1.
<scales pt_clust_3="14000.00000" pt_clust_4="32.41160" pt_clust_5="75.11808" pt_clust_6="54.44109"></scales>
<clustering>
<clus scale="   32.412">  2  4  1 -1</clus>
<clus scale="   54.441">  2  6  1 -1</clus>
<clus scale="   75.118">  1  5  2 -1</clus>
<clus scale="   75.118">  1  3  2 -1</clus>
</clustering>
</event>
<event>
 6    0  0.3584505E+002  0.1447345E+03  0.7546771E-02  0.1207097E+00
         21   -1    0    0  501  502  0.00000000000E+00  0.00000000000E+00  0.71319623580E+03  0.71319623580E+03  0.00000000000E+00 0. -1.
          2   -1    0    0  505    0 -0.00000000000E+00 -0.00000000000E+00 -0.16526715462E+04  0.16526715462E+04  0.00000000000E+00 0. -1.
         21    1    1    2  503  504 -0.43822688877E+02  0.80143509852E+02  0.40227339641E+02  0.99808061230E+02  0.00000000000E+00 0. -1.
         21    1    1    2  504  502 -0.55494921508E+02  0.67433696220E+02  0.57201011840E+03  0.57863854456E+03  0.00000000000E+00 0. -1.
         21    1    1    2  505  503  0.70494910010E+02 -0.18864407486E+03 -0.82947129731E+02  0.21779886512E+03  0.00000000000E+00 0. -1.
          2    1    1    2  501    0  0.28822700374E+02  0.41066868791E+02 -0.14687656387E+04  0.14696223111E+04  0.00000000000E+00 0. -1.
<scales pt_clust_3="14000.00000" pt_clust_4="87.57894" pt_clust_5="144.73452" pt_clust_6="50.17206"></scales>
<clustering>
<clus scale="   50.172">  2  6  1 -1</clus>
<clus scale="   87.579">  1  4  2 -1</clus>
<clus scale="  144.735">  2  5  1 -1</clus>
<clus scale="   87.579">  1  3  2 -1</clus>
</clustering>
</event>
<event>
 6    0  0.3584505E+002  0.7811356E+02  0.7546771E-02  0.1334492E+00
          2   -1    0    0  503    0 -0.00000000000E+00  0.00000000000E+00  0.28286617437E+04  0.28286617437E+04  0.00000000000E+00 0. -1.
         21   -1    0    0  505  502  0.00000000000E+00 -0.00000000000E+00 -0.13693140668E+02  0.13693140668E+02  0.00000000000E+00 0.  1.
         21    1    1    2  503  504  0.74341126239E+02 -0.88490853406E+01  0.53452810355E+03  0.53974549822E+03  0.00000000000E+00 0.  1.
         21    1    1    2  504  502 -0.18313972184E+02 -0.90304384774E+02  0.48501571935E+03  0.49369072455E+03  0.00000000000E+00 0.  1.
         21    1    1    2  505  501  0.71675286382E+01  0.45316603841E+02  0.85946104179E+02  0.97425360528E+02  0.00000000000E+00 0.  1.
          2    1    1    2  501    0 -0.63194682693E+02  0.53836866273E+02  0.17094786760E+04  0.17114933011E+04  0.00000000000E+00 0. -1.
<scales pt_clust_3="78.11356" pt_clust_4="67.15387" pt_clust_5="45.87993" pt_clust_6="14000.00000"></scales>
<clustering>
<clus scale="   45.880">  2  5  1 -1</clus>
<clus scale="   67.154">  2  4  1 -1</clus>
<clus scale="   78.114">  2  3  1 -1</clus>
<clus scale="   45.880">  2  3  1 -1</clus>
</clustering>
</event>
<event>
 6    0  0.3584505E+002  0.1078331E+03  0.7546771E-02  0.1264636E+00
          2   -1    0    0  504    0 -0.00000000000E+00  0.00000000000E+00  0.14347423787E+04  0.14347423787E+04  0.00000000000E+00 0. -1.
         21   -1    0    0  505  502  0.00000000000E+00 -0.00000000000E+00 -0.26069480362E+03  0.26069480362E+03  0.00000000000E+00 0. -1.
         21    1    1    2  503  501 -0.51388058959E+02 -0.70261853398E+02 -0.90807379053E+02  0.12579125859E+03  0.00000000000E+00 0. -1.
         21    1    1    2  504  502  0.60247555630E+02 -0.76812922710E+01  0.39342610805E+02  0.72364433497E+02  0.00000000000E+00 0. -1.
         21    1    1    2  505  503 -0.60902605870E+01 -0.30628686507E+02 -0.13189231385E+03  0.13553888801E+03  0.00000000000E+00 0. -1.
          2    1    1    2  501    0 -0.27692360833E+01  0.10857183218E+03  0.13574046571E+04  0.13617426022E+04  0.00000000000E+00 0. -1.
<scales pt_clust_3="107.83314" pt_clust_4="60.58895" pt_clust_5="31.22832" pt_clust_6="14000.00000"></scales>
<clustering>
<clus scale="   31.228">  2  5  1 -1</clus>
<clus scale="   60.589">  2  4  1 -1</clus>
<clus scale="  107.833">  2  3  1 -1</clus>
<clus scale="   31.228">  2  3  1 -1</clus>
</clustering>
</event>
<event>
 6    0  0.3584505E+002  0.1828314E+03  0.7546771E-02  0.1165091E+00
          2   -1    0    0  505    0 -0.00000000000E+00  0.00000000000E+00  0.14491152539E+04  0.14491152539E+04  0.00000000000E+00 0.  1.
         21   -1    0    0  503  502  0.00000000000E+00 -0.00000000000E+00 -0.14558868425E+03  0.14558868425E+03  0.00000000000E+00 0. -1.
         21    1    1    2  503  501 -0.66496866904E+01 -0.32339239201E+02  0.23406985127E+02  0.40471368619E+02  0.00000000000E+00 0.  1.
         21    1    1    2  504  502 -0.86512905386E+02 -0.12302561640E+03 -0.48703133479E+02  0.15808788790E+03  0.00000000000E+00 0. -1.
         21    1    1    2  505  504  0.11940489404E+03  0.18882910741E+03  0.34262439624E+03  0.40902987351E+03  0.00000000000E+00 0. -1.
          2    1    1    2  501    0 -0.26242301967E+02 -0.33464251810E+02  0.98619832174E+03  0.98711480809E+03  0.00000000000E+00 0.  1.
<scales pt_clust_3="33.01583" pt_clust_4="182.83140" pt_clust_5="14000.00000" pt_clust_6="42.62547"></scales>
<clustering>
<clus scale="   33.016">  2  3  1 -1</clus>
<clus scale="   42.625">  1  6  2 -1</clus>
<clus scale="  182.831">  2  4  1 -1</clus>
<clus scale="   33.016">  2  3  1 -1</clus>
</clustering>
</event>
<event>
 6    0  0.3652315E+002  0.1107194E+03  0.7546771E-02  0.1259243E+00
         21   -1    0    0  503  502  0.00000000000E+00  0.00000000000E+00  0.10334616874E+04  0.10334616874E+04  0.00000000000E+00 0. -1.
          1   -1    0    0  505    0 -0.00000000000E+00 -0.00000000000E+00 -0.13048102939E+04  0.13048102939E+04  0.00000000000E+00 0.  1.
         21    1    1    2  503  504 -0.41106111916E+02 -0.69039980871E+02  0.96226989972E+03  0.96561876085E+03  0.00000000000E+00 0. -1.
         21    1    1    2  504  501  0.39671633529E+02  0.97402399790E+02 -0.11472503338E+03  0.15563707552E+03  0.00000000000E+00 0.  1.
         21    1    1    2  505  502 -0.43078585068E+02 -0.64220570628E+01  0.38757330891E+02  0.58302126944E+02  0.00000000000E+00 0.  1.
          1    1    1    2  501    0  0.44513063455E+02 -0.21940361856E+02 -0.11576508036E+04  0.11587140180E+04  0.00000000000E+00 0.  1.
<scales pt_clust_3="110.71943" pt_clust_4="14000.00000" pt_clust_5="43.55465" pt_clust_6="49.60721"></scales>
<clustering>
<clus scale="   43.555">  1  5  2 -1</clus>
<clus scale="   49.607">  2  6  1 -1</clus>
<clus scale="  110.719">  1  3  2 -1</clus>
<clus scale="   43.555">  1  3  2 -1</clus>
</clustering>
</event>
<event>
 6    0  0.3584505E+002  0.7942131E+02  0.7546771E-02  0.1330702E+00
          2   -1    0    0  503    0 -0.00000000000E+00  0.00000000000E+00  0.20514500996E+04  0.20514500996E+04  0.00000000000E+00 0. -1.
         21   -1    0    0  505  502  0.00000000000E+00 -0.00000000000E+00 -0.40936622494E+02  0.40936622494E+02  0.00000000000E+00 0. -1.
         21    1    1    2  503  502 -0.11542990168E+02 -0.15207647169E+03  0.41011522248E+03  0.43755569882E+03  0.00000000000E+00 0. -1.
         21    1    1    2  504  501  0.19570876462E+02  0.61399567473E+02  0.11707299392E+03  0.13363761445E+03  0.00000000000E+00 0. -1.
         21    1    1    2  505  504 -0.45406657123E+02  0.25428604877E+02  0.19712690651E+02  0.55650414462E+02  0.00000000000E+00 0. -1.
          2    1    1    2  501    0  0.37378770828E+02  0.65248299341E+02  0.14636125701E+04  0.14655429944E+04  0.00000000000E+00 0. -1.
<scales pt_clust_3="14000.00000" pt_clust_4="70.64165" pt_clust_5="52.04208" pt_clust_6="79.42131"></scales>
<clustering>
<clus scale="   52.042">  2  5  1 -1</clus>
<clus scale="   70.642">  2  4  1 -1</clus>
<clus scale="   79.421">  1  6  2 -1</clus>
<clus scale="   52.042">  2  3  1 -1</clus>
</clustering>
</event>
<event>
 6    0  0.3584505E+002  0.8194797E+02  0.7546771E-02  0.1323613E+00
         21   -1    0    0  503  502  0.00000000000E+00  0.00000000000E+00  0.31609819064E+03  0.31609819064E+03  0.00000000000E+00 0.  1.
          2   -1    0    0  504    0 -0.00000000000E+00 -0.00000000000E+00 -0.46808032554E+03  0.46808032554E+03  0.00000000000E+00 0.  1.
         21    1    1    2  503  501  0.10018919293E+03 -0.33439313113E+02 -0.81063092844E+02  0.13314385852E+03  0.00000000000E+00 0.  1.
         21    1    1    2  504  505 -0.27167793851E+02 -0.31587725419E+02 -0.23164693911E+02  0.47670498884E+02  0.00000000000E+00 0.  1.
         21    1    1    2  505  502 -0.55334981888E+02 -0.25917292588E+02  0.26770044654E+03  0.27458549735E+03  0.00000000000E+00 0.  1.
          2    1    1    2  501    0 -0.17686417186E+02  0.90944331120E+02 -0.31545479469E+03  0.32877866142E+03  0.00000000000E+00 0.  1.
<scales pt_clust_3="81.94797" pt_clust_4="41.66381" pt_clust_5="61.40624" pt_clust_6="14000.00000"></scales>
<clustering>
<clus scale="   41.664">  2  4  1 -1</clus>
<clus scale="   61.406">  1  5  2 -1</clus>
<clus scale="   81.948">  1  3  2 -1</clus>
<clus scale="   61.406">  1  3  2 -1</clus>
</clustering>
</event>
<event>
 6    0  0.3584505E+002  0.3086272E+03  0.7546771E-02  0.1081006E+00
         21   -1    0    0  504  502  0.00000000000E+00  0.00000000000E+00  0.80772544658E+03  0.80772544658E+03  0.00000000000E+00 0. -1.
          2   -1    0    0  505    0 -0.00000000000E+00 -0.00000000000E+00 -0.20830912567E+04  0.20830912567E+04  0.00000000000E+00 0. -1.
         21    1    1    2  503  502 -0.22788983355E+03 -0.11839271971E+03  0.24726073800E+03  0.35649471928E+03  0.00000000000E+00 0. -1.
         21    1    1    2  504  501 -0.60069742857E+02  0.36466112091E+02  0.96300467096E+02  0.11921380499E+03  0.00000000000E+00 0.  1.
         21    1    1    2  505  503  0.36413671128E+03  0.98061316237E+02  0.30781885640E+03  0.48678949722E+03  0.00000000000E+00 0. -1.
          2    1    1    2  501    0 -0.76177134872E+02 -0.16134708622E+02 -0.19267458717E+04  0.19283186818E+04  0.00000000000E+00 0. -1.
<scales pt_clust_3="14000.00000" pt_clust_4="70.27198" pt_clust_5="308.62720" pt_clust_6="77.92465"></scales>
<clustering>
<clus scale="   70.272">  1  4  2 -1</clus>
<clus scale="   77.925">  2  6  1 -1</clus>
<clus scale="  308.627">  2  5  1 -1</clus>
<clus scale="   70.272">  1  3  2 -1</clus>
</clustering>
</event>
<event>
 6    0  0.3584505E+002  0.1041159E+03  0.7546771E-02  0.1271871E+00
         21   -1    0    0  504  502  0.00000000000E+00  0.00000000000E+00  0.37161261731E+03  0.37161261731E+03  0.00000000000E+00 0.  1.
          2   -1    0    0  503    0 -0.00000000000E+00 -0.00000000000E+00 -0.19268109280E+04  0.19268109280E+04  0.00000000000E+00 0.  1.
         21    1    1    2  503  502 -0.89946164446E+01 -0.60765892510E+02  0.94737320495E+02  0.11290950674E+03  0.00000000000E+00 0.  1.
         21    1    1    2  504  505  0.10048071938E+03  0.88081413123E+01  0.25372834796E+03  0.27304218151E+03  0.00000000000E+00 0.  1.
         21    1    1    2  505  501 -0.44438905859E+02  0.89414976663E+02 -0.67584449636E+03  0.68318053080E+03  0.00000000000E+00 0.  1.
          2    1    1    2  501    0 -0.47047197078E+02 -0.37457225466E+02 -0.12278194828E+04  0.12292913262E+04  0.00000000000E+00 0.  1.
<scales pt_clust_3="62.00209" pt_clust_4="104.11592" pt_clust_5="14000.00000" pt_clust_6="60.13720"></scales>
<clustering>
<clus scale="   60.137">  2  6  1 -1</clus>
<clus scale="   62.002">  1  3  2 -1</clus>
<clus scale="  104.116">  1  4  2 -1</clus>
<clus scale="   62.002">  1  3  2 -1</clus>
</clustering>
</event>
<event>
 6    0  0.3584505E+002  0.1292482E+03  0.7546771E-02  0.1228576E+00
         21   -1    0    0  505  502  0.00000000000E+00  0.00000000000E+00  0.32067034175E+03  0.32067034175E+03  0.00000000000E+00 0.  1.
          2   -1    0    0  504    0 -0.00000000000E+00 -0.00000000000E+00 -0.39190670686E+03  0.39190670686E+03  0.00000000000E+00 0. -1.
         21    1    1    2  503  502  0.29298958974E+00 -0.30903146647E+02  0.48532104105E+01  0.31283285743E+02  0.00000000000E+00 0.  1.
         21    1    1    2  504  503  0.13450270518E+03  0.79396198073E+02  0.30493203745E+02  0.15913695185E+03  0.00000000000E+00 0.  1.
         21    1    1    2  505  501 -0.69698449643E+01 -0.45185160866E+02  0.19198816888E+03  0.19735687090E+03  0.00000000000E+00 0.  1.
          2    1    1    2  501    0 -0.12782584981E+03 -0.33078905596E+01 -0.29857094815E+03  0.32479994012E+03  0.00000000000E+00 0. -1.
<scales pt_clust_3="30.90454" pt_clust_4="14000.00000" pt_clust_5="65.41846" pt_clust_6="129.24823"></scales>
<clustering>
<clus scale="   30.905">  1  3  2 -1</clus>
<clus scale="   65.418">  1  5  2 -1</clus>
<clus scale="  129.248">  2  6  1 -1</clus>
<clus scale="   30.905">  1  3  2 -1</clus>
</clustering>
</event>
<event>
 6    0  0.3584505E+002  0.1148324E+03  0.7546771E-02  0.1251874E+00
          2   -1    0    0  504    0 -0.00000000000E+00  0.00000000000E+00  0.19214917887E+04  0.19214917887E+04  0.00000000000E+00 0.  1.
         21   -1    0    0  501  502  0.00000000000E+00 -0.00000000000E+00 -0.11924397538E+03  0.11924397538E+03  0.00000000000E+00 0.  1.
         21    1    1    2  503  505  0.40178829878E+02  0.80354210342E+02 -0.23501499730E+02  0.92862575775E+02  0.00000000000E+00 0.  1.
         21    1    1    2  504  503 -0.12711583951E+03 -0.76201150083E+02  0.56373062272E+03  0.58288701043E+03  0.00000000000E+00 0.  1.
         21    1    1    2  505  502  0.28214719751E+02  0.14605839413E+02 -0.45786035581E+02  0.55729363982E+02  0.00000000000E+00 0.  1.
          2    1    1    2  501    0  0.58722289884E+02 -0.18758899672E+02  0.13078047259E+04  0.13092568139E+04  0.00000000000E+00 0.  1.
<scales pt_clust_3="14000.00000" pt_clust_4="114.83241" pt_clust_5="31.77107" pt_clust_6="61.88406"></scales>
<clustering>
<clus scale="   31.771">  2  5  1 -1</clus>
<clus scale="   61.884">  1  6  2 -1</clus>
<clus scale="  114.832">  1  4  2 -1</clus>
<clus scale="   31.771">  2  3  1 -1</clus>
</clustering>
</event>
<event>
 6    0  0.3584505E+002  0.1289938E+03  0.7546771E-02  0.1228956E+00
         21   -1    0    0  505  502  0.00000000000E+00  0.00000000000E+00  0.12323273179E+04  0.12323273179E+04  0.00000000000E+00 0.  1.
          2   -1    0    0  504    0 -0.00000000000E+00 -0.00000000000E+00 -0.67548757006E+03  0.67548757006E+03  0.00000000000E+00 0.  1.
         21    1    1    2  503  502 -0.41795889256E+02  0.30751242530E+02  0.11446465073E+04  0.11458220463E+04  0.00000000000E+00 0.  1.
         21    1    1    2  504  503 -0.11109199044E+03  0.46631069824E+02 -0.13960757378E+03  0.18440759656E+03  0.00000000000E+00 0.  1.
         21    1    1    2  505  501  0.16117360203E+03 -0.99893313565E+01 -0.43513529739E+02  0.16724276966E+03  0.00000000000E+00 0. -1.
          2    1    1    2  501    0 -0.82857223403E+01 -0.67392980997E+02 -0.40468565587E+03  0.41034247544E+03  0.00000000000E+00 0.  1.
<scales pt_clust_3="51.88965" pt_clust_4="128.99381" pt_clust_5="14000.00000" pt_clust_6="67.09093"></scales>
<clustering>
<clus scale="   51.890">  1  3  2 -1</clus>
<clus scale="   67.091">  2  6  1 -1</clus>
<clus scale="  128.994">  2  4  1 -1</clus>
<clus scale="   51.890">  1  3  2 -1</clus>
</clustering>
</event>
<event>
 6    0  0.3584505E+002  0.8034368E+02  0.7546771E-02  0.1328079E+00
         21   -1    0    0  504  502  0.00000000000E+00  0.00000000000E+00  0.78139135387E+02  0.78139135387E+02  0.00000000000E+00 0. -1.
          2   -1    0    0  505    0 -0.00000000000E+00 -0.00000000000E+00 -0.89880632123E+03  0.89880632123E+03  0.00000000000E+00 0. -1.
         21    1    1    2  503  502 -0.72513962248E+02  0.11471230945E+02  0.15209649296E+02  0.74974644327E+02  0.00000000000E+00 0. -1.
         21    1    1    2  504  501  0.45977053696E+02 -0.84425921508E+00 -0.30327995014E+02  0.55085293154E+02  0.00000000000E+00 0. -1.
         21    1    1    2  505  503 -0.27448176305E+02 -0.71452790955E+02 -0.60916099547E+02  0.97824715189E+02  0.00000000000E+00 0. -1.
          2    1    1    2  501    0  0.53985084856E+02  0.60825819226E+02 -0.74463274058E+03  0.74906080395E+03  0.00000000000E+00 0. -1.
<scales pt_clust_3="42.40999" pt_clust_4="45.98480" pt_clust_5="80.34368" pt_clust_6="14000.00000"></scales>
<clustering>
<clus scale="   45.985">  1  4  2 -1</clus>
<clus scale="   42.410">  1  3  2 -1</clus>
<clus scale="   80.344">  1  5  2 -1</clus>
<clus scale="   45.985">  1  3  2 -1</clus>
</clustering>
</event>
<event>
 6    0  0.3584505E+002  0.1074470E+03  0.7546771E-02  0.1265372E+00
          1   -1    0    0  503    0 -0.00000000000E+00  0.00000000000E+00  0.21239222166E+04  0.21239222166E+04  0.00000000000E+00 0. -1.
         21   -1    0    0  505  502  0.00000000000E+00 -0.00000000000E+00 -0.12067093131E+03  0.12067093131E+03  0.00000000000E+00 0.  1.
         21    1    1    2  503  502 -0.33534522527E+02  0.14295643560E+03  0.76671310276E+02  0.16564901599E+03  0.00000000000E+00 0.  1.
         21    1    1    2  504  501  0.43234042483E+02 -0.61518590148E+02  0.18046755835E+03  0.19550513799E+03  0.00000000000E+00 0. -1.
         21    1    1    2  505  504  0.19860739038E+01 -0.31460642202E+02 -0.64662327155E+02  0.71937007516E+02  0.00000000000E+00 0.  1.
          1    1    1    2  501    0 -0.11685593860E+02 -0.49977203251E+02  0.18107747438E+04  0.18115019864E+04  0.00000000000E+00 0. -1.
<scales pt_clust_3="107.44695" pt_clust_4="14000.00000" pt_clust_5="31.52327" pt_clust_6="51.53478"></scales>
<clustering>
<clus scale="   31.523">  2  5  1 -1</clus>
<clus scale="   51.535">  1  6  2 -1</clus>
<clus scale="  107.447">  2  3  1 -1</clus>
<clus scale="   31.523">  2  3  1 -1</clus>
</clustering>
</event>
<event>
 6    0  0.3584505E+002  0.1622329E+03  0.7546771E-02  0.1186199E+00
         -2   -1    0    0    0  501 -0.00000000000E+00  0.00000000000E+00  0.14938044873E+04  0.14938044873E+04  0.00000000000E+00 0.  1.
         21   -1    0    0  503  502  0.00000000000E+00 -0.00000000000E+00 -0.63727953763E+03  0.63727953763E+03  0.00000000000E+00 0.  1.
         21    1    1    2  503  501 -0.12157804495E+03 -0.15512498688E+03  0.11059312081E+04  0.11233560520E+04  0.00000000000E+00 0.  1.
         21    1    1    2  504  505 -0.33129980847E+02  0.11983507128E+03 -0.16281394684E+03  0.20485707512E+03  0.00000000000E+00 0.  1.
         21    1    1    2  505  502  0.30327369086E+02 -0.38338820231E+01 -0.43230623927E+03  0.43338566252E+03  0.00000000000E+00 0.  1.
         -2    1    1    2    0  504  0.12438065671E+03  0.39123797624E+02  0.34571392773E+03  0.36948523533E+03  0.00000000000E+00 0.  1.
<scales pt_clust_3="14000.00000" pt_clust_4="116.53482" pt_clust_5="30.56874" pt_clust_6="162.23292"></scales>
<clustering>
<clus scale="   30.569">  2  5  1 -1</clus>
<clus scale="  116.535">  2  4  1 -1</clus>
<clus scale="  162.233">  2  6  1 -1</clus>
<clus scale="   30.569">  2  3  1 -1</clus>
</clustering>
</event>
<event>
 6    0  0.3584505E+002  0.8058463E+02  0.7546771E-02  0.1327400E+00
         21   -1    0    0  505  502  0.00000000000E+00  0.00000000000E+00  0.34579353013E+03  0.34579353013E+03  0.00000000000E+00 0. -1.
         -1   -1    0    0    0  501 -0.00000000000E+00 -0.00000000000E+00 -0.34158704847E+03  0.34158704847E+03  0.00000000000E+00 0.  1.
         21    1    1    2  503  504 -0.12989747752E+02 -0.93585428929E+02  0.12772145362E+03  0.15887018528E+03  0.00000000000E+00 0. -1.
         21    1    1    2  504  502 -0.63644996210E+02  0.60138884548E+02  0.17743014142E+03  0.19786062282E+03  0.00000000000E+00 0. -1.
         21    1    1    2  505  501  0.38542801581E+02  0.61104450019E+01 -0.16504351175E+02  0.42370729278E+02  0.00000000000E+00 0. -1.
         -1    1    1    2    0  503  0.38091942382E+02  0.27336099379E+02 -0.28444076221E+03  0.28827904122E+03  0.00000000000E+00 0.  1.
<scales pt_clust_3="80.58463" pt_clust_4="14000.00000" pt_clust_5="39.02416" pt_clust_6="80.49914"></scales>
<clustering>
<clus scale="   39.024">  2  5  1 -1</clus>
<clus scale="   80.499">  2  6  1 -1</clus>
<clus scale="   80.585">  2  3  1 -1</clus>
<clus scale="   80.585">  1  3  2 -1</clus>
</clustering>
</event>
<event>
 6    0  0.3584505E+002  0.7950556E+02  0.7546771E-02  0.1330460E+00
         21   -1    0    0  505  502  0.00000000000E+00  0.00000000000E+00  0.15825383000E+03  0.15825383000E+03  0.00000000000E+00 0. -1.
          1   -1    0    0  503    0 -0.00000000000E+00 -0.00000000000E+00 -0.51137436398E+03  0.51137436398E+03  0.00000000000E+00 0.  1.
         21    1    1    2  503  504 -0.37640083657E+02 -0.64886445496E+02 -0.98985962914E+02  0.12419842012E+03  0.00000000000E+00 0. -1.
         21    1    1    2  504  502  0.15543507715E+02  0.12294066983E+03  0.39679723001E+02  0.13011721388E+03  0.00000000000E+00 0. -1.
         21    1    1    2  505  501 -0.10314930836E+02 -0.49468210164E+02  0.49280219124E+02  0.70583578911E+02  0.00000000000E+00 0. -1.
          1    1    1    2  501    0  0.32411506779E+02 -0.85860141685E+01 -0.34309451319E+03  0.34472898107E+03  0.00000000000E+00 0.  1.
<scales pt_clust_3="14000.00000" pt_clust_4="79.50556" pt_clust_5="50.69074" pt_clust_6="33.52947"></scales>
<clustering>
<clus scale="   33.529">  2  6  1 -1</clus>
<clus scale="   50.691">  1  5  2 -1</clus>
<clus scale="   79.506">  1  4  2 -1</clus>
<clus scale="   50.691">  1  3  2 -1</clus>
</clustering>
</event>
<event>
 6    0  0.3584505E+002  0.1560842E+03  0.7546771E-02  0.1193190E+00
         21   -1    0    0  504  502  0.00000000000E+00  0.00000000000E+00  0.50317846760E+03  0.50317846760E+03  0.00000000000E+00 0. -1.
         -1   -1    0    0    0  501 -0.00000000000E+00 -0.00000000000E+00 -0.20014510833E+03  0.20014510833E+03  0.00000000000E+00 0.  1.
         21    1    1    2  503  505  0.65866359802E+02 -0.59624328029E+02  0.14008249686E+03  0.16588111337E+03  0.00000000000E+00 0.  1.
         21    1    1    2  504  503  0.29208644431E+02 -0.93936711376E+01  0.12909355347E+03  0.13268960590E+03  0.00000000000E+00 0.  1.
         21    1    1    2  505  501 -0.19546074955E+03  0.15462191191E+03  0.84907611597E+02  0.26329098497E+03  0.00000000000E+00 0. -1.
         -1    1    1    2    0  502  0.10038574532E+03 -0.85603912744E+02 -0.51050302652E+02  0.14146187169E+03  0.00000000000E+00 0.  1.
<scales pt_clust_3="100.46809" pt_clust_4="30.68201" pt_clust_5="156.08418" pt_clust_6="14000.00000"></scales>
<clustering>
<clus scale="   30.682">  1  4  2 -1</clus>
<clus scale="  100.468">  1  3  2 -1</clus>
<clus scale="  156.084">  1  5  2 -1</clus>
<clus scale="   30.682">  1  3  2 -1</clus>
</clustering>
</event>
<event>
 6    0  0.3584505E+002  0.6823266E+02  0.7546771E-02  0.1366208E+00
         21   -1    0    0  503  502  0.00000000000E+00  0.00000000000E+00  0.36077692595E+03  0.36077692595E+03  0.00000000000E+00 0. -1.
          1   -1    0    0  504    0 -0.00000000000E+00 -0.00000000000E+00 -0.33857819937E+04  0.33857819937E+04  0.00000000000E+00 0. -1.
         21    1    1    2  503  505  0.99556631194E+02  0.38461971244E+02 -0.28062006301E+03  0.30023068766E+03  0.00000000000E+00 0.  1.
         21    1    1    2  504  502 -0.54529667334E+02 -0.40351257158E+02  0.34352421231E+03  0.35015795438E+03  0.00000000000E+00 0. -1.
         21    1    1    2  505  501 -0.81480140595E+02  0.43358215304E+02 -0.55223652345E+03  0.55989653149E+03  0.00000000000E+00 0. -1.
          1    1    1    2  501    0  0.36453176735E+02 -0.41468929391E+02 -0.25356726936E+04  0.25362737461E+04  0.00000000000E+00 0. -1.
<scales pt_clust_3="68.23266" pt_clust_4="14000.00000" pt_clust_5="59.86732" pt_clust_6="55.21328"></scales>
<clustering>
<clus scale="   55.213">  2  6  1 -1</clus>
<clus scale="   59.867">  2  5  1 -1</clus>
<clus scale="   68.233">  2  3  1 -1</clus>
<clus scale="   68.233">  1  3  2 -1</clus>
</clustering>
</event>
<event>
 6    0  0.3584505E+002  0.1024193E+03  0.7546771E-02  0.1275289E+00
          1   -1    0    0  505    0 -0.00000000000E+00  0.00000000000E+00  0.20053233393E+04  0.20053233393E+04  0.00000000000E+00 0. -1.
         21   -1    0    0  503  502  0.00000000000E+00 -0.00000000000E+00 -0.35408931101E+03  0.35408931101E+03  0.00000000000E+00 0.  1.
         21    1    1    2  503  501 -0.70063579299E+02 -0.63943102384E+02 -0.17884004363E+03  0.20243859981E+03  0.00000000000E+00 0.  1.
         21    1    1    2  504  502  0.45176777482E+02 -0.14988055954E+02 -0.28263654783E+02  0.55357178637E+02  0.00000000000E+00 0.  1.
         21    1    1    2  505  504  0.70875987803E+02  0.11691614735E+03 -0.82617768961E+02  0.15974506849E+03  0.00000000000E+00 0.  1.
          1    1    1    2  501    0 -0.45989185986E+02 -0.37984989009E+02  0.19409554956E+04  0.19418718034E+04  0.00000000000E+00 0. -1.
<scales pt_clust_3="102.41933" pt_clust_4="47.59814" pt_clust_5="14000.00000" pt_clust_6="59.61077"></scales>
<clustering>
<clus scale="   47.598">  2  4  1 -1</clus>
<clus scale="   59.611">  1  6  2 -1</clus>
<clus scale="  102.419">  2  3  1 -1</clus>
<clus scale="   47.598">  2  3  1 -1</clus>
</clustering>
</event>
<event>
 6    0  0.3584505E+002  0.1020297E+03  0.7546771E-02  0.1276085E+00
         21   -1    0    0  503  502  0.00000000000E+00  0.00000000000E+00  0.27820731851E+03  0.27820731851E+03  0.00000000000E+00 0. -1.
          2   -1    0    0  504    0 -0.00000000000E+00 -0.00000000000E+00 -0.60639772323E+03  0.60639772323E+03  0.00000000000E+00 0.  1.
         21    1    1    2  503  501  0.10461405492E+03  0.20942672652E+02 -0.76472497484E+02  0.13126590911E+03  0.00000000000E+00 0. -1.
         21    1    1    2  504  505 -0.11111935808E+03 -0.16489807568E+02  0.60464933886E+02  0.12757520811E+03  0.00000000000E+00 0. -1.
         21    1    1    2  505  502  0.24682884787E+02 -0.30787346134E+02  0.15375029115E+03  0.15873329050E+03  0.00000000000E+00 0. -1.
          2    1    1    2  501    0 -0.18177581626E+02  0.26334481050E+02 -0.46593313227E+03  0.46703063402E+03  0.00000000000E+00 0.  1.
<scales pt_clust_3="14000.00000" pt_clust_4="102.02974" pt_clust_5="38.89185" pt_clust_6="31.99890"></scales>
<clustering>
<clus scale="   31.999">  2  6  1 -1</clus>
<clus scale="   38.892">  1  5  2 -1</clus>
<clus scale="  102.030">  1  4  2 -1</clus>
<clus scale="   38.892">  1  3  2 -1</clus>
</clustering>
</event>
<event>
 6    0  0.3584505E+002  0.1604053E+03  0.7546771E-02  0.1188240E+00
         21   -1    0    0  503  502  0.00000000000E+00  0.00000000000E+00  0.79169552279E+03  0.79169552279E+03  0.00000000000E+00 0. -1.
         -2   -1    0    0    0  501 -0.00000000000E+00 -0.00000000000E+00 -0.10214969183E+04  0.10214969183E+04  0.00000000000E+00 0.  1.
         21    1    1    2  503  501  0.39395384977E+02  0.16715652072E+03 -0.69234621654E+03  0.71332782248E+03  0.00000000000E+00 0.  1.
         21    1    1    2  504  505 -0.86547440999E+02  0.23458788984E+02  0.58119725739E+03  0.58807399732E+03  0.00000000000E+00 0. -1.
         21    1    1    2  505  502  0.19207382186E+02 -0.43557014600E+02  0.17544581882E+03  0.18178936271E+03  0.00000000000E+00 0.  1.
         -2    1    1    2    0  504  0.27944673836E+02 -0.14705829511E+03 -0.29409825517E+03  0.33000125856E+03  0.00000000000E+00 0.  1.
<scales pt_clust_3="14000.00000" pt_clust_4="70.58530" pt_clust_5="47.60396" pt_clust_6="160.40532"></scales>
<clustering>
<clus scale="   47.604">  1  5  2 -1</clus>
<clus scale="   70.585">  1  4  2 -1</clus>
<clus scale="  160.405">  1  6  2 -1</clus>
<clus scale="   47.604">  1  3  2 -1</clus>
</clustering>
</event>
<event>
 6    0  0.3584505E+002  0.5651287E+02  0.7546771E-02  0.1413077E+00
         -2   -1    0    0    0  501 -0.00000000000E+00  0.00000000000E+00  0.36767781628E+03  0.36767781628E+03  0.00000000000E+00 0. -1.
         21   -1    0    0  505  502  0.00000000000E+00 -0.00000000000E+00 -0.37260258477E+03  0.37260258477E+03  0.00000000000E+00 0. -1.
         21    1    1    2  503  504  0.41509420621E+02  0.75726617971E+02  0.24892749541E+02  0.89873253248E+02  0.00000000000E+00 0. -1.
         21    1    1    2  504  502  0.17756353466E+02  0.41429122859E+02 -0.54016442815E+02  0.70352230979E+02  0.00000000000E+00 0.  1.
         21    1    1    2  505  501 -0.22802084465E+02 -0.76810449501E+02 -0.26960577441E+03  0.28125976214E+03  0.00000000000E+00 0. -1.
         -2    1    1    2    0  503 -0.36463689622E+02 -0.40345291329E+02  0.29380469919E+03  0.29879515468E+03  0.00000000000E+00 0. -1.
<scales pt_clust_3="14000.00000" pt_clust_4="45.07394" pt_clust_5="40.66580" pt_clust_6="56.51287"></scales>
<clustering>
<clus scale="   45.074">  2  4  1 -1</clus>
<clus scale="   40.666">  2  5  1 -1</clus>
<clus scale="   56.513">  1  6  2 -1</clus>
<clus scale="   45.074">  2  3  1 -1</clus>
</clustering>
</event>
<event>
 6    0  0.3584505E+002  0.1313688E+03  0.7546771E-02  0.1225439E+00
          1   -1    0    0  502    0 -0.00000000000E+00  0.00000000000E+00  0.56386358898E+03  0.56386358898E+03  0.00000000000E+00 0. -1.
         21   -1    0    0  503  502  0.00000000000E+00 -0.00000000000E+00 -0.46739714746E+03  0.46739714746E+03  0.00000000000E+00 0. -1.
         21    1    1    2  503  505  0.13547907610E+01  0.77339383487E+02 -0.21922092764E+03  0.23246726826E+03  0.00000000000E+00 0. -1.
         21    1    1    2  504  501  0.64816154220E+02 -0.83296541779E+02  0.45221074293E+02  0.11482331331E+03  0.00000000000E+00 0. -1.
         21    1    1    2  505  504 -0.89520666464E+02  0.54197481005E+02 -0.19186192860E+03  0.21854591352E+03  0.00000000000E+00 0. -1.
          1    1    1    2  501    0  0.23349721483E+02 -0.48240322713E+02  0.46232822346E+03  0.46542424135E+03  0.00000000000E+00 0. -1.
<scales pt_clust_3="74.20069" pt_clust_4="14000.00000" pt_clust_5="131.36884" pt_clust_6="53.59420"></scales>
<clustering>
<clus scale="   53.594">  1  6  2 -1</clus>
<clus scale="   74.201">  2  3  1 -1</clus>
<clus scale="  131.369">  2  5  1 -1</clus>
<clus scale="   74.201">  2  3  1 -1</clus>
</clustering>
</event>
<event>
 6    0  0.3584505E+002  0.9345571E+02  0.7546771E-02  0.1294693E+00
         21   -1    0    0  504  502  0.00000000000E+00  0.00000000000E+00  0.11007664352E+03  0.11007664352E+03  0.00000000000E+00 0.  1.
          2   -1    0    0  505    0 -0.00000000000E+00 -0.00000000000E+00 -0.90742796306E+03  0.90742796306E+03  0.00000000000E+00 0.  1.
         21    1    1    2  503  502 -0.20469253806E+02 -0.26064878440E+02  0.12842348555E+02  0.35542849574E+02  0.00000000000E+00 0. -1.
         21    1    1    2  504  501  0.10221308294E+03 -0.82537757389E+01 -0.18467657720E+02  0.10419545825E+03  0.00000000000E+00 0.  1.
         21    1    1    2  505  503 -0.84363413507E+02  0.35069292193E+01  0.99525206171E+00  0.84442137691E+02  0.00000000000E+00 0.  1.
          2    1    1    2  501    0  0.26195843742E+01  0.30811724960E+02 -0.79272126243E+03  0.79332416106E+03  0.00000000000E+00 0.  1.
<scales pt_clust_3="30.62331" pt_clust_4="93.45571" pt_clust_5="14000.00000" pt_clust_6="30.92288"></scales>
<clustering>
<clus scale="   30.923">  2  6  1 -1</clus>
<clus scale="   30.623">  1  3  2 -1</clus>
<clus scale="   93.456">  1  4  2 -1</clus>
<clus scale="   30.623">  1  3  2 -1</clus>
</clustering>
</event>
<event>
 6    0  0.3584505E+002  0.1017382E+03  0.7546771E-02  0.1276683E+00
          2   -1    0    0  505    0 -0.00000000000E+00  0.00000000000E+00  0.57968610298E+02  0.57968610298E+02  0.00000000000E+00 0.  1.
         21   -1    0    0  504  502  0.00000000000E+00 -0.00000000000E+00 -0.15419767124E+04  0.15419767124E+04  0.00000000000E+00 0.  1.
         21    1    1    2  503  502 -0.10576577915E+03 -0.20477551150E+00 -0.83081833715E+03  0.83752346314E+03  0.00000000000E+00 0.  1.
         21    1    1    2  504  501 -0.23313788779E+02  0.48735402114E+02 -0.16629555891E+03  0.17485103683E+03  0.00000000000E+00 0.  1.
         21    1    1    2  505  503  0.96259571871E+02 -0.76931197256E+01 -0.51781035967E+03  0.52673775054E+03  0.00000000000E+00 0.  1.
          2    1    1    2  501    0  0.32819996058E+02 -0.40837506877E+02  0.30916153664E+02  0.60833072145E+02  0.00000000000E+00 0.  1.
<scales pt_clust_3="101.73816" pt_clust_4="36.23359" pt_clust_5="14000.00000" pt_clust_6="52.39136"></scales>
<clustering>
<clus scale="   52.391">  1  6  2 -1</clus>
<clus scale="   36.234">  1  4  2 -1</clus>
<clus scale="  101.738">  2  3  1 -1</clus>
<clus scale="  101.738">  2  3  1 -1</clus>
</clustering>
</event>
<event>
 6    0  0.3584505E+002  0.1601632E+03  0.7546771E-02  0.1188513E+00
          1   -1    0    0  504    0 -0.00000000000E+00  0.00000000000E+00  0.46213902644E+03  0.46213902644E+03  0.00000000000E+00 0.  1.
         21   -1    0    0  503  502  0.00000000000E+00 -0.00000000000E+00 -0.13810891453E+03  0.13810891453E+03  0.00000000000E+00 0.  1.
         21    1    1    2  503  505 -0.24491982748E+02  0.29405545185E+02 -0.40839971638E+02  0.55968264132E+02  0.00000000000E+00 0.  1.
         21    1    1    2  504  502  0.12349097119E+03 -0.12013282097E+03  0.28724803097E+03  0.33495275180E+03  0.00000000000E+00 0.  1.
         21    1    1    2  505  501 -0.53959592275E+02  0.94633357507E+02 -0.11352038735E+02  0.10952615548E+03  0.00000000000E+00 0.  1.
          1    1    1    2  501    0 -0.45039396163E+02 -0.39060817212E+01  0.88974091308E+02  0.99800769562E+02  0.00000000000E+00 0.  1.
<scales pt_clust_3="33.12849" pt_clust_4="150.09381" pt_clust_5="33.12849" pt_clust_6="45.20846"></scales>
<clustering>
<clus scale="   33.128">  3  5 -1 -1</clus>
<clus scale="   45.208">  1  6  2 -1</clus>
<clus scale="  150.094">  1  4  2 -1</clus>
<clus scale="  160.163">  2  3  1 -1</clus>
</clustering>
</event>
<event>
 6    0  0.3584505E+002  0.1151582E+03  0.7546771E-02  0.1251305E+00
         21   -1    0    0  501  502  0.00000000000E+00  0.00000000000E+00  0.40881330100E+03  0.40881330100E+03  0.00000000000E+00 0.  1.
          4   -1    0    0  503    0 -0.00000000000E+00 -0.00000000000E+00 -0.22482164356E+03  0.22482164356E+03  0.00000000000E+00 0.  1.
         21    1    1    2  503  504  0.34019683259E+02  0.61101491966E+02  0.48928317583E+02  0.85350520977E+02  0.00000000000E+00 0.  1.
         21    1    1    2  504  505  0.15730379593E+01  0.49476138798E+02  0.95911130922E+02  0.10793195909E+03  0.00000000000E+00 0.  1.
         21    1    1    2  505  502 -0.87351314534E+02 -0.55657229747E+02  0.22067170513E+03  0.24377034442E+03  0.00000000000E+00 0.  1.
          4    1    1    2  501    0  0.51758593315E+02 -0.54920401018E+02 -0.18151949620E+03  0.19658212007E+03  0.00000000000E+00 0.  1.
<scales pt_clust_3="45.19256" pt_clust_4="45.19256" pt_clust_5="101.86272" pt_clust_6="75.46656"></scales>
<clustering>
<clus scale="   45.193">  3  4 -1 -1</clus>
<clus scale="   75.467">  2  6  1 -1</clus>
<clus scale="  101.863">  1  5  2 -1</clus>
<clus scale="  101.863">  1  3  2 -1</clus>
</clustering>
</event>
<event>
 6    0  0.3584505E+002  0.1044882E+03  0.7546771E-02  0.1271131E+00
         21   -1    0    0  504  502  0.00000000000E+00  0.00000000000E+00  0.95286565000E+03  0.95286565000E+03  0.00000000000E+00 0. -1.
          1   -1    0    0  503    0 -0.00000000000E+00 -0.00000000000E+00 -0.27681621417E+03  0.27681621417E+03  0.00000000000E+00 0.  1.
         21    1    1    2  503  502 -0.15516865793E+02  0.38816967730E+02  0.36159834600E+03  0.36400672238E+03  0.00000000000E+00 0. -1.
         21    1    1    2  504  505 -0.29861872079E+02 -0.55620472346E+02  0.38041313488E+03  0.38561576931E+03  0.00000000000E+00 0. -1.
         21    1    1    2  505  501 -0.33441042559E+02 -0.43412225287E+02  0.19411922119E+03  0.20170571798E+03  0.00000000000E+00 0. -1.
          1    1    1    2  501    0  0.78819780431E+02  0.60215729903E+02 -0.26008126625E+03  0.27835365449E+03  0.00000000000E+00 0.  1.
<scales pt_clust_3="41.80347" pt_clust_4="30.10895" pt_clust_5="30.10895" pt_clust_6="99.36508"></scales>
<clustering>
<clus scale="   30.109">  4  5 -1 -1</clus>
<clus scale="   41.803">  1  3  2 -1</clus>
<clus scale="   99.365">  2  6  1 -1</clus>
<clus scale="   41.803">  1  3  2 -1</clus>
</clustering>
</event>
<event>
 6    0  0.3584505E+002  0.2257740E+03  0.7546771E-02  0.1129650E+00
         21   -1    0    0  504  502  0.00000000000E+00  0.00000000000E+00  0.39963927489E+03  0.39963927489E+03  0.00000000000E+00 0. -1.
          2   -1    0    0  505    0 -0.00000000000E+00 -0.00000000000E+00 -0.79612375497E+03  0.79612375497E+03  0.00000000000E+00 0. -1.
         21    1    1    2  503  502 -0.22526112636E+02 -0.25233628461E+03  0.27150615005E+03  0.37134433589E+03  0.00000000000E+00 0. -1.
         21    1    1    2  504  501  0.61375416267E+02  0.26968023165E+02 -0.32264011695E+01  0.67116508102E+02  0.00000000000E+00 0.  1.
         21    1    1    2  505  503 -0.11292804899E+03  0.32856687805E+02 -0.94481291882E+02  0.15086093165E+03  0.00000000000E+00 0. -1.
          2    1    1    2  501    0  0.74078745360E+02  0.19251157364E+03 -0.57028293708E+03  0.60644125422E+03  0.00000000000E+00 0. -1.
<scales pt_clust_3="225.77404" pt_clust_4="67.03891" pt_clust_5="113.71823" pt_clust_6="14000.00000"></scales>
<clustering>
<clus scale="   67.039">  1  4  2 -1</clus>
<clus scale="  113.718">  2  5  1 -1</clus>
<clus scale="  225.774">  1  3  2 -1</clus>
<clus scale="   67.039">  1  3  2 -1</clus>
</clustering>
</event>
<event>
 6    0  0.3584505E+002  0.8854006E+02  0.7546771E-02  0.1306426E+00
         21   -1    0    0  505  502  0.00000000000E+00  0.00000000000E+00  0.21769987774E+03  0.21769987774E+03  0.00000000000E+00 0.  1.
          2   -1    0    0  504    0 -0.00000000000E+00 -0.00000000000E+00 -0.19444237558E+04  0.19444237558E+04  0.00000000000E+00 0. -1.
         21    1    1    2  503  501 -0.54601250671E+01 -0.59165014592E+02 -0.50912980115E+02  0.78246044383E+02  0.00000000000E+00 0.  1.
         21    1    1    2  504  502 -0.10523493722E+03  0.10071042498E+03 -0.30448638062E+03  0.33753360973E+03  0.00000000000E+00 0.  1.
         21    1    1    2  505  503  0.84958099793E+02 -0.20224168788E+02  0.17715096107E+03  0.19750787005E+03  0.00000000000E+00 0.  1.
          2    1    1    2  501    0  0.25736962494E+02 -0.21321241601E+02 -0.15484754784E+04  0.15488361094E+04  0.00000000000E+00 0. -1.
<scales pt_clust_3="62.65679" pt_clust_4="88.54006" pt_clust_5="14000.00000" pt_clust_6="33.42135"></scales>
<clustering>
<clus scale="   33.421">  2  6  1 -1</clus>
<clus scale="   62.657">  2  3  1 -1</clus>
<clus scale="   88.540">  2  4  1 -1</clus>
<clus scale="   88.540">  1  3  2 -1</clus>
</clustering>
</event>
<event>
 6    0  0.3584505E+002  0.9787665E+02  0.7546771E-02  0.1284825E+00
         21   -1    0    0  504  502  0.00000000000E+00  0.00000000000E+00  0.15373500664E+04  0.15373500664E+04  0.00000000000E+00 0. -1.
         -2   -1    0    0    0  501 -0.00000000000E+00 -0.00000000000E+00 -0.11442742055E+04  0.11442742055E+04  0.00000000000E+00 0. -1.
         21    1    1    2  503  505 -0.91402641585E+02  0.53066910828E+02 -0.24769858185E+02  0.10855452910E+03  0.00000000000E+00 0.  1.
         21    1    1    2  504  501  0.11549106698E+03  0.89602741794E+01  0.20392458592E+03  0.23452869719E+03  0.00000000000E+00 0.  1.
         21    1    1    2  505  502 -0.22373481099E+02 -0.23616481893E+02  0.12756757502E+04  0.12760904868E+04  0.00000000000E+00 0. -1.
         -2    1    1    2    0  503 -0.17149443007E+01 -0.38410703114E+02 -0.10617546171E+04  0.10624505588E+04  0.00000000000E+00 0. -1.
<scales pt_clust_3="97.87665" pt_clust_4="14000.00000" pt_clust_5="32.53169" pt_clust_6="38.48171"></scales>
<clustering>
<clus scale="   32.532">  1  5  2 -1</clus>
<clus scale="   38.482">  2  6  1 -1</clus>
<clus scale="   97.877">  2  3  1 -1</clus>
<clus scale="   32.532">  1  3  2 -1</clus>
</clustering>
</event>
<event>
 6    0  0.3584505E+002  0.1022189E+03  0.7546771E-02  0.1275698E+00
         21   -1    0    0  503  502  0.00000000000E+00  0.00000000000E+00  0.14624549155E+04  0.14624549155E+04  0.00000000000E+00 0. -1.
         -3   -1    0    0    0  501 -0.00000000000E+00 -0.00000000000E+00 -0.86100359141E+02  0.86100359141E+02  0.00000000000E+00 0. -1.
         21    1    1    2  503  505 -0.74772191054E+02  0.23992256124E+02  0.11222568919E+04  0.11250009068E+04  0.00000000000E+00 0. -1.
         21    1    1    2  504  502 -0.11837697534E+02  0.30891740251E+02  0.24026435066E+03  0.24253121221E+03  0.00000000000E+00 0. -1.
         21    1    1    2  505  501  0.11956584681E+03 -0.47513645744E+02  0.43762095415E+02  0.13589944537E+03  0.00000000000E+00 0. -1.
         -3    1    1    2    0  504 -0.32955958225E+02 -0.73703506312E+01 -0.29928781662E+02  0.45123710206E+02  0.00000000000E+00 0. -1.
<scales pt_clust_3="14000.00000" pt_clust_4="33.08218" pt_clust_5="102.21890" pt_clust_6="33.80061"></scales>
<clustering>
<clus scale="   33.082">  1  4  2 -1</clus>
<clus scale="   33.801">  2  6  1 -1</clus>
<clus scale="  102.219">  2  5  1 -1</clus>
<clus scale="   33.082">  1  3  2 -1</clus>
</clustering>
</event>
<event>
 6    0  0.3584505E+002  0.1205422E+03  0.7546771E-02  0.1242205E+00
         -1   -1    0    0    0  501 -0.00000000000E+00  0.00000000000E+00  0.90046471604E+03  0.90046471604E+03  0.00000000000E+00 0. -1.
         21   -1    0    0  505  502  0.00000000000E+00 -0.00000000000E+00 -0.20132505840E+03  0.20132505840E+03  0.00000000000E+00 0. -1.
         21    1    1    2  503  502  0.10657759863E+03  0.11804726328E+02 -0.13046850024E+03  0.16887914510E+03  0.00000000000E+00 0. -1.
         21    1    1    2  504  503 -0.10492428365E+03  0.17350458856E+02  0.37544869204E+02  0.11278191754E+03  0.00000000000E+00 0. -1.
         21    1    1    2  505  501  0.40471417509E+02  0.13156225404E+02  0.22284020329E+02  0.48037479785E+02  0.00000000000E+00 0. -1.
         -1    1    1    2    0  504 -0.42124732495E+02 -0.42311410588E+02  0.76977926836E+03  0.77209123201E+03  0.00000000000E+00 0. -1.
<scales pt_clust_3="14000.00000" pt_clust_4="120.54220" pt_clust_5="42.55610" pt_clust_6="59.47328"></scales>
<clustering>
<clus scale="   42.556">  2  5  1 -1</clus>
<clus scale="   59.473">  1  6  2 -1</clus>
<clus scale="  120.542">  1  4  2 -1</clus>
<clus scale="   42.556">  2  3  1 -1</clus>
</clustering>
</event>
<event>
 6    0  0.3584505E+002  0.2487448E+03  0.7546771E-02  0.1114101E+00
         21   -1    0    0  503  502  0.00000000000E+00  0.00000000000E+00  0.12836427258E+03  0.12836427258E+03  0.00000000000E+00 0. -1.
          2   -1    0    0  505    0 -0.00000000000E+00 -0.00000000000E+00 -0.95764363171E+03  0.95764363171E+03  0.00000000000E+00 0. -1.
         21    1    1    2  503  504 -0.22410671555E+02 -0.31020758840E+02  0.93410836539E+01  0.39392658229E+02  0.00000000000E+00 0. -1.
         21    1    1    2  504  501  0.23832915563E+03 -0.12834114119E+03 -0.24310032910E+03  0.36382688872E+03  0.00000000000E+00 0. -1.
         21    1    1    2  505  502 -0.15163890805E+02  0.26652383452E+02  0.91405138372E+01  0.31997533049E+02  0.00000000000E+00 0. -1.
          2    1    1    2  501    0 -0.20075459327E+03  0.13270951658E+03 -0.60466062753E+03  0.65079082430E+03  0.00000000000E+00 0. -1.
<scales pt_clust_3="35.95034" pt_clust_4="14000.00000" pt_clust_5="30.66420" pt_clust_6="248.74476"></scales>
<clustering>
<clus scale="   30.664">  1  5  2 -1</clus>
<clus scale="   35.950">  1  3  2 -1</clus>
<clus scale="  248.745">  2  6  1 -1</clus>
<clus scale="   30.664">  1  3  2 -1</clus>
</clustering>
</event>
<event>
 6    0  0.3584505E+002  0.1262095E+03  0.7546771E-02  0.1233191E+00
         21   -1    0    0  504  502  0.00000000000E+00  0.00000000000E+00  0.10124414089E+03  0.10124414089E+03  0.00000000000E+00 0.  1.
          2   -1    0    0  503    0 -0.00000000000E+00 -0.00000000000E+00 -0.30129781969E+04  0.30129781969E+04  0.00000000000E+00 0.  1.
         21    1    1    2  503  505 -0.56476199396E+02  0.27591202887E+02 -0.34313117180E+03  0.34884070381E+03  0.00000000000E+00 0.  1.
         21    1    1    2  504  501  0.12382686374E+03 -0.31517003461E+02 -0.44458890612E+02  0.13528860501E+03  0.00000000000E+00 0.  1.
         21    1    1    2  505  502 -0.13192132877E+02 -0.34930895421E+02  0.45908712733E+02  0.59176090861E+02  0.00000000000E+00 0.  1.
          2    1    1    2  501    0 -0.54158531465E+02  0.38856695995E+02 -0.25700527063E+04  0.25709169381E+04  0.00000000000E+00 0.  1.
<scales pt_clust_3="62.68957" pt_clust_4="126.20945" pt_clust_5="37.33899" pt_clust_6="14000.00000"></scales>
<clustering>
<clus scale="   37.339">  1  5  2 -1</clus>
<clus scale="   62.690">  2  3  1 -1</clus>
<clus scale="  126.209">  1  4  2 -1</clus>
<clus scale="   37.339">  1  3  2 -1</clus>
</clustering>
</event>
<event>
 6    0  0.3584505E+002  0.1969562E+03  0.7546771E-02  0.1152333E+00
          2   -1    0    0  505    0 -0.00000000000E+00  0.00000000000E+00  0.17452938689E+04  0.17452938689E+04  0.00000000000E+00 0.  1.
         21   -1    0    0  503  502  0.00000000000E+00 -0.00000000000E+00 -0.31641404856E+02  0.31641404856E+02  0.00000000000E+00 0. -1.
         21    1    1    2  503  501  0.23469004270E+02 -0.12209098069E+03  0.59481397931E+03  0.60766822503E+03  0.00000000000E+00 0.  1.
         21    1    1    2  504  502 -0.39999857391E+02  0.25015463692E+02  0.83591087768E+02  0.95985582091E+02  0.00000000000E+00 0. -1.
         21    1    1    2  505  504  0.20033286752E+02  0.17390202608E+03  0.44743645064E+03  0.48046084608E+03  0.00000000000E+00 0. -1.
          2    1    1    2  501    0 -0.35024336309E+01 -0.76826509087E+02  0.58781094631E+03  0.59282062054E+03  0.00000000000E+00 0.  1.
<scales pt_clust_3="40.14182" pt_clust_4="47.17798" pt_clust_5="190.22831" pt_clust_6="40.14182"></scales>
<clustering>
<clus scale="   40.142">  3  6 -1 -1</clus>
<clus scale="   47.178">  2  4  1 -1</clus>
<clus scale="  190.228">  2  5  1 -1</clus>
<clus scale="   47.178">  2  3  1 -1</clus>
</clustering>
</event>
<event>
 6    0  0.3584505E+002  0.1189427E+03  0.7546771E-02  0.1244851E+00
         21   -1    0    0  504  502  0.00000000000E+00  0.00000000000E+00  0.49736196944E+02  0.49736196944E+02  0.00000000000E+00 0. -1.
          2   -1    0    0  503    0 -0.00000000000E+00 -0.00000000000E+00 -0.15161528050E+04  0.15161528050E+04  0.00000000000E+00 0. -1.
         21    1    1    2  503  502 -0.12745018898E+03  0.73167620568E+02 -0.50147443335E+03  0.52256450193E+03  0.00000000000E+00 0. -1.
         21    1    1    2  504  505  0.30943548242E+02 -0.75960747303E+00  0.69819723705E+01  0.31730554982E+02  0.00000000000E+00 0. -1.
         21    1    1    2  505  501  0.93118793672E+02 -0.18943972650E+02 -0.99720771229E+02  0.13774692755E+03  0.00000000000E+00 0. -1.
          2    1    1    2  501    0  0.33878470679E+01 -0.53464040445E+02 -0.87220337586E+03  0.87384701750E+03  0.00000000000E+00 0. -1.
<scales pt_clust_3="14000.00000" pt_clust_4="30.95287" pt_clust_5="118.94273" pt_clust_6="53.65120"></scales>
<clustering>
<clus scale="   30.953">  1  4  2 -1</clus>
<clus scale="   53.651">  2  6  1 -1</clus>
<clus scale="  118.943">  1  5  2 -1</clus>
<clus scale="   30.953">  1  3  2 -1</clus>
</clustering>
</event>
<event>
 6    0  0.3584505E+002  0.1488185E+03  0.7546771E-02  0.1201932E+00
         21   -1    0    0  505  502  0.00000000000E+00  0.00000000000E+00  0.26452761141E+03  0.26452761141E+03  0.00000000000E+00 0. -1.
          1   -1    0    0  503    0 -0.00000000000E+00 -0.00000000000E+00 -0.28734390224E+04  0.28734390224E+04  0.00000000000E+00 0.  1.
         21    1    1    2  503  504  0.17556476910E+02  0.60896222949E+02 -0.35325143147E+03  0.35889156257E+03  0.00000000000E+00 0. -1.
         21    1    1    2  504  502 -0.50017826547E+02 -0.91320911790E+02  0.25367984574E+02  0.10716728299E+03  0.00000000000E+00 0.  1.
         21    1    1    2  505  501  0.17310557622E+02 -0.59308416514E+02  0.18969844927E+03  0.19950600325E+03  0.00000000000E+00 0. -1.
          1    1    1    2  501    0  0.15150792015E+02  0.89733105355E+02 -0.24707264133E+04  0.24724017850E+04  0.00000000000E+00 0.  1.
<scales pt_clust_3="61.28612" pt_clust_4="14000.00000" pt_clust_5="61.78304" pt_clust_6="148.81853"></scales>
<clustering>
<clus scale="   61.783">  1  5  2 -1</clus>
<clus scale="   61.286">  2  3  1 -1</clus>
<clus scale="  148.819">  2  6  1 -1</clus>
<clus scale="   61.783">  1  3  2 -1</clus>
</clustering>
</event>
<event>
 6    0  0.3584505E+002  0.8629801E+02  0.7546771E-02  0.1312073E+00
         21   -1    0    0  504  502  0.00000000000E+00  0.00000000000E+00  0.65716317470E+03  0.65716317470E+03  0.00000000000E+00 0. -1.
         -3   -1    0    0    0  501 -0.00000000000E+00 -0.00000000000E+00 -0.86943753421E+03  0.86943753421E+03  0.00000000000E+00 0. -1.
         21    1    1    2  503  502 -0.35922487860E+02  0.50783330608E+02  0.53984333249E+03  0.54341530659E+03  0.00000000000E+00 0. -1.
         21    1    1    2  504  505 -0.41086626482E+02 -0.12956781299E+02  0.91721310192E+02  0.10133502751E+03  0.00000000000E+00 0. -1.
         21    1    1    2  505  501  0.12567079377E+03 -0.34516359713E+02 -0.21707736999E+03  0.25319382310E+03  0.00000000000E+00 0.  1.
         -3    1    1    2    0  503 -0.48661679432E+02 -0.33101895956E+01 -0.62676163220E+03  0.62865655171E+03  0.00000000000E+00 0. -1.
<scales pt_clust_3="86.29801" pt_clust_4="43.08119" pt_clust_5="14000.00000" pt_clust_6="48.84490"></scales>
<clustering>
<clus scale="   43.081">  1  4  2 -1</clus>
<clus scale="   48.845">  2  6  1 -1</clus>
<clus scale="   86.298">  1  3  2 -1</clus>
<clus scale="   43.081">  1  3  2 -1</clus>
</clustering>
</event>
<event>
 6    0  0.3584505E+002  0.1923586E+03  0.7546771E-02  0.1156351E+00
         21   -1    0    0  503  502  0.00000000000E+00  0.00000000000E+00  0.12060870706E+04  0.12060870706E+04  0.00000000000E+00 0. -1.
          3   -1    0    0  504    0 -0.00000000000E+00 -0.00000000000E+00 -0.29858241547E+03  0.29858241547E+03  0.00000000000E+00 0.  1.
         21    1    1    2  503  501 -0.77224458858E+02 -0.11895385589E+03 -0.13731849979E+03  0.19740822491E+03  0.00000000000E+00 0.  1.
         21    1    1    2  504  505  0.97330676463E+02  0.15818268162E+03  0.13777853382E+03  0.23125299074E+03  0.00000000000E+00 0.  1.
         21    1    1    2  505  502  0.25562076236E+02 -0.29328641695E+02  0.98465101872E+03  0.98541931057E+03  0.00000000000E+00 0. -1.
          3    1    1    2  501    0 -0.45668293841E+02 -0.99001840330E+01 -0.77606397593E+02  0.90588959888E+02  0.00000000000E+00 0.  1.
<scales pt_clust_3="40.31077" pt_clust_4="178.76843" pt_clust_5="38.90487" pt_clust_6="40.31077"></scales>
<clustering>
<clus scale="   38.905">  1  5  2 -1</clus>
<clus scale="   40.311">  3  6 -1 -1</clus>
<clus scale="  178.768">  1  4  2 -1</clus>
<clus scale="   38.905">  1  3  2 -1</clus>
</clustering>
</event>
<event>
 6    0  0.3584505E+002  0.8995730E+02  0.7546771E-02  0.1302955E+00
         21   -1    0    0  503  502  0.00000000000E+00  0.00000000000E+00  0.22924975399E+03  0.22924975399E+03  0.00000000000E+00 0.  1.
          1   -1    0    0  505    0 -0.00000000000E+00 -0.00000000000E+00 -0.20204429450E+03  0.20204429450E+03  0.00000000000E+00 0. -1.
         21    1    1    2  503  501  0.38224226589E+02 -0.11125695010E+02  0.63818930480E+02  0.75217873378E+02  0.00000000000E+00 0.  1.
         21    1    1    2  504  502 -0.12296740936E+02  0.10196801274E+03  0.12175897702E+03  0.15929197703E+03  0.00000000000E+00 0.  1.
         21    1    1    2  505  504  0.96512190004E+01 -0.72765059953E+02 -0.78347076588E+02  0.10735997573E+03  0.00000000000E+00 0. -1.
          1    1    1    2  501    0 -0.35578704653E+02 -0.18077257781E+02 -0.80025371420E+02  0.89424222359E+02  0.00000000000E+00 0. -1.
<scales pt_clust_3="39.81046" pt_clust_4="89.95730" pt_clust_5="14000.00000" pt_clust_6="39.06168"></scales>
<clustering>
<clus scale="   39.810">  1  3  2 -1</clus>
<clus scale="   39.062">  2  6  1 -1</clus>
<clus scale="   89.957">  1  4  2 -1</clus>
<clus scale="   39.810">  1  3  2 -1</clus>
</clustering>
</event>
<event>
 6    0  0.3584505E+002  0.1548421E+03  0.7546771E-02  0.1194646E+00
         21   -1    0    0  505  502  0.00000000000E+00  0.00000000000E+00  0.48585012801E+03  0.48585012801E+03  0.00000000000E+00 0. -1.
          1   -1    0    0  503    0 -0.00000000000E+00 -0.00000000000E+00 -0.69279334573E+03  0.69279334573E+03  0.00000000000E+00 0. -1.
         21    1    1    2  503  504 -0.39182965998E+02 -0.21152539245E+02  0.15361661490E+02  0.47103241763E+02  0.00000000000E+00 0. -1.
         21    1    1    2  504  502  0.28131465585E+02 -0.22104523763E+02  0.27033010190E+03  0.27268728118E+03  0.00000000000E+00 0. -1.
         21    1    1    2  505  501  0.16018704569E+03  0.80604053761E+02  0.12744511328E+03  0.21999809088E+03  0.00000000000E+00 0. -1.
          1    1    1    2  501    0 -0.14913554528E+03 -0.37346990753E+02 -0.62008009439E+03  0.63885485992E+03  0.00000000000E+00 0. -1.
<scales pt_clust_3="42.71933" pt_clust_4="35.77694" pt_clust_5="14000.00000" pt_clust_6="154.84213"></scales>
<clustering>
<clus scale="   35.777">  1  4  2 -1</clus>
<clus scale="   42.719">  1  3  2 -1</clus>
<clus scale="  154.842">  2  6  1 -1</clus>
<clus scale="   35.777">  1  3  2 -1</clus>
</clustering>
</event>
<event>
 6    0  0.3584505E+002  0.3055805E+03  0.7546771E-02  0.1082484E+00
         21   -1    0    0  504  502  0.00000000000E+00  0.00000000000E+00  0.36799876576E+03  0.36799876576E+03  0.00000000000E+00 0.  1.
          1   -1    0    0  503    0 -0.00000000000E+00 -0.00000000000E+00 -0.11517376660E+04  0.11517376660E+04  0.00000000000E+00 0. -1.
         21    1    1    2  503  502 -0.19017448031E+03  0.31005925038E+03 -0.13221348940E+03  0.38701870560E+03  0.00000000000E+00 0.  1.
         21    1    1    2  504  505 -0.61171250557E+02 -0.54788898743E+02  0.13145381621E+03  0.15499629388E+03  0.00000000000E+00 0.  1.
         21    1    1    2  505  501  0.21444910581E+03 -0.16445602733E+03 -0.10064320393E+03  0.28838040572E+03  0.00000000000E+00 0.  1.
          1    1    1    2  501    0  0.36896625057E+02 -0.90814324311E+02 -0.68233602311E+03  0.68934102654E+03  0.00000000000E+00 0. -1.
<scales pt_clust_3="305.58048" pt_clust_4="82.12031" pt_clust_5="14000.00000" pt_clust_6="98.46301"></scales>
<clustering>
<clus scale="   82.120">  1  4  2 -1</clus>
<clus scale="   98.463">  2  6  1 -1</clus>
<clus scale="  305.580">  2  3  1 -1</clus>
<clus scale="   82.120">  1  3  2 -1</clus>
</clustering>
</event>
<event>
 6    0  0.3584505E+002  0.8647808E+02  0.7546771E-02  0.1311612E+00
         21   -1    0    0  505  502  0.00000000000E+00  0.00000000000E+00  0.32745715677E+02  0.32745715677E+02  0.00000000000E+00 0. -1.
          2   -1    0    0  503    0 -0.00000000000E+00 -0.00000000000E+00 -0.56087106682E+04  0.56087106682E+04  0.00000000000E+00 0. -1.
         21    1    1    2  503  502 -0.37621332756E+02  0.18657327436E+02 -0.71154306291E+02  0.82622005841E+02  0.00000000000E+00 0. -1.
         21    1    1    2  504  501  0.59170900586E+02 -0.28514564319E+02 -0.12640558224E+03  0.14245226244E+03  0.00000000000E+00 0. -1.
         21    1    1    2  505  504  0.47416280004E+02 -0.43946320059E+02 -0.37455057631E+02  0.74715888526E+02  0.00000000000E+00 0. -1.
          2    1    1    2  501    0 -0.68965847834E+02  0.53803556941E+02 -0.53409500064E+04  0.53416662271E+04  0.00000000000E+00 0. -1.
<scales pt_clust_3="41.99358" pt_clust_4="86.47808" pt_clust_5="37.77224" pt_clust_6="14000.00000"></scales>
<clustering>
<clus scale="   41.994">  1  3  2 -1</clus>
<clus scale="   37.772">  1  5  2 -1</clus>
<clus scale="   86.478">  1  4  2 -1</clus>
<clus scale="   41.994">  1  3  2 -1</clus>
</clustering>
</event>
<event>
 6    0  0.3584505E+002  0.1350321E+03  0.7546771E-02  0.1220174E+00
          1   -1    0    0  505    0 -0.00000000000E+00  0.00000000000E+00  0.35561636350E+04  0.35561636350E+04  0.00000000000E+00 0. -1.
         21   -1    0    0  503  502  0.00000000000E+00 -0.00000000000E+00 -0.58729951946E+02  0.58729951946E+02  0.00000000000E+00 0. -1.
         21    1    1    2  503  501  0.36282648083E+02  0.41750753834E+01 -0.58256200472E+01  0.36983775568E+02  0.00000000000E+00 0. -1.
         21    1    1    2  504  502 -0.15227237147E+03  0.54741347956E+02  0.16290104357E+03  0.22960888547E+03  0.00000000000E+00 0. -1.
         21    1    1    2  505  504  0.11741864220E+03 -0.99727513339E+02  0.15853011442E+04  0.15927687944E+04  0.00000000000E+00 0. -1.
          1    1    1    2  501    0 -0.14289188140E+01  0.40811090000E+02  0.17550571154E+04  0.17555321316E+04  0.00000000000E+00 0. -1.
<scales pt_clust_3="36.52207" pt_clust_4="135.03212" pt_clust_5="14000.00000" pt_clust_6="40.85523"></scales>
<clustering>
<clus scale="   36.522">  2  3  1 -1</clus>
<clus scale="   40.855">  1  6  2 -1</clus>
<clus scale="  135.032">  2  4  1 -1</clus>
<clus scale="   36.522">  2  3  1 -1</clus>
</clustering>
</event>
<event>
 6    0  0.3584505E+002  0.9721312E+02  0.7546771E-02  0.1286268E+00
          2   -1    0    0  503    0 -0.00000000000E+00  0.00000000000E+00  0.25272323217E+04  0.25272323217E+04  0.00000000000E+00 0.  1.
         21   -1    0    0  504  502  0.00000000000E+00 -0.00000000000E+00 -0.12457577660E+03  0.12457577660E+03  0.00000000000E+00 0.  1.
         21    1    1    2  503  505  0.26143207753E+02  0.62623245447E+02  0.84912494762E+03  0.85183232790E+03  0.00000000000E+00 0.  1.
         21    1    1    2  504  501 -0.62057532525E+02 -0.36249458386E+02 -0.69270245267E+02  0.99817470693E+02  0.00000000000E+00 0.  1.
         21    1    1    2  505  502 -0.36404654554E+02  0.25139589119E+02 -0.24427881217E+02  0.50537304984E+02  0.00000000000E+00 0. -1.
          2    1    1    2  501    0  0.72318979326E+02 -0.51513376179E+02  0.16472297240E+04  0.16496209947E+04  0.00000000000E+00 0.  1.
<scales pt_clust_3="68.00709" pt_clust_4="97.21312" pt_clust_5="44.24136" pt_clust_6="14000.00000"></scales>
<clustering>
<clus scale="   44.241">  2  5  1 -1</clus>
<clus scale="   68.007">  1  3  2 -1</clus>
<clus scale="   97.213">  2  4  1 -1</clus>
<clus scale="   44.241">  2  3  1 -1</clus>
</clustering>
</event>
<event>
 6    0  0.3584505E+002  0.1608933E+03  0.7546771E-02  0.1187692E+00
         -2   -1    0    0    0  501 -0.00000000000E+00  0.00000000000E+00  0.10621789784E+04  0.10621789784E+04  0.00000000000E+00 0. -1.
         21   -1    0    0  501  502  0.00000000000E+00 -0.00000000000E+00 -0.16528754813E+03  0.16528754813E+03  0.00000000000E+00 0. -1.
         21    1    1    2  503  504 -0.34110903674E+02 -0.16269921067E+03  0.71769357487E+03  0.73669441040E+03  0.00000000000E+00 0. -1.
         21    1    1    2  504  505  0.48858202477E+02  0.11355902908E+03 -0.26354275122E+02  0.12640144323E+03  0.00000000000E+00 0. -1.
         21    1    1    2  505  502  0.14091961430E+02  0.40265001779E+02 -0.72805155594E+02  0.84382725876E+02  0.00000000000E+00 0. -1.
         -2    1    1    2    0  503 -0.28839260233E+02  0.88751798138E+01  0.27835728616E+03  0.27998794707E+03  0.00000000000E+00 0. -1.
<scales pt_clust_3="160.89334" pt_clust_4="14000.00000" pt_clust_5="42.65183" pt_clust_6="30.17402"></scales>
<clustering>
<clus scale="   30.174">  1  6  2 -1</clus>
<clus scale="   42.652">  2  5  1 -1</clus>
<clus scale="  160.893">  1  3  2 -1</clus>
<clus scale="   42.652">  2  3  1 -1</clus>
</clustering>
</event>
<event>
 6    0  0.3584505E+002  0.1102398E+03  0.7546771E-02  0.1260126E+00
          2   -1    0    0  505    0 -0.00000000000E+00  0.00000000000E+00  0.30044742886E+03  0.30044742886E+03  0.00000000000E+00 0.  1.
         21   -1    0    0  503  502  0.00000000000E+00 -0.00000000000E+00 -0.19886558590E+04  0.19886558590E+04  0.00000000000E+00 0. -1.
         21    1    1    2  503  504  0.88467626823E+02 -0.24118719137E+02 -0.18957112475E+04  0.18979276507E+04  0.00000000000E+00 0. -1.
         21    1    1    2  504  501 -0.69811809166E+02 -0.11754373395E+03  0.52024264487E+02  0.14627625298E+03  0.00000000000E+00 0.  1.
         21    1    1    2  505  502  0.13764876790E+02  0.58765827229E+02 -0.58554398542E+01  0.60639759720E+02  0.00000000000E+00 0. -1.
          2    1    1    2  501    0 -0.32420694447E+02  0.82896625856E+02  0.16133399268E+03  0.18425962445E+03  0.00000000000E+00 0.  1.
<scales pt_clust_3="91.68791" pt_clust_4="110.23980" pt_clust_5="60.35639" pt_clust_6="14000.00000"></scales>
<clustering>
<clus scale="   60.356">  1  5  2 -1</clus>
<clus scale="   91.688">  2  3  1 -1</clus>
<clus scale="  110.240">  2  4  1 -1</clus>
<clus scale="   91.688">  2  3  1 -1</clus>
</clustering>
</event>
<event>
 6    0  0.3584505E+002  0.9152980E+02  0.7546771E-02  0.1299189E+00
          2   -1    0    0  505    0 -0.00000000000E+00  0.00000000000E+00  0.11747545707E+03  0.11747545707E+03  0.00000000000E+00 0. -1.
         21   -1    0    0  504  502  0.00000000000E+00 -0.00000000000E+00 -0.60656060268E+03  0.60656060268E+03  0.00000000000E+00 0. -1.
         21    1    1    2  503  501  0.60662171393E+02 -0.32976920546E+02 -0.70077282510E+01  0.69400897560E+02  0.00000000000E+00 0. -1.
         21    1    1    2  504  503  0.50577304200E+02  0.62199640849E+02 -0.36525733453E+03  0.37395157367E+03  0.00000000000E+00 0. -1.
         21    1    1    2  505  502 -0.12582746373E+03  0.96176693709E+01 -0.17094958888E+03  0.21248249841E+03  0.00000000000E+00 0. -1.
          2    1    1    2  501    0  0.14587988138E+02 -0.38840389674E+02  0.54129506049E+02  0.68201090116E+02  0.00000000000E+00 0. -1.
<scales pt_clust_3="91.52980" pt_clust_4="78.60045" pt_clust_5="14000.00000" pt_clust_6="41.48958"></scales>
<clustering>
<clus scale="   41.490">  1  6  2 -1</clus>
<clus scale="   78.600">  2  4  1 -1</clus>
<clus scale="   91.530">  1  3  2 -1</clus>
<clus scale="   78.600">  2  3  1 -1</clus>
</clustering>
</event>
<event>
 6    0  0.3584505E+002  0.1284070E+03  0.7546771E-02  0.1229839E+00
          1   -1    0    0  503    0 -0.00000000000E+00  0.00000000000E+00  0.22191104155E+04  0.22191104155E+04  0.00000000000E+00 0.  1.
         21   -1    0    0  505  502  0.00000000000E+00 -0.00000000000E+00 -0.59366753738E+02  0.59366753738E+02  0.00000000000E+00 0. -1.
         21    1    1    2  503  502 -0.83374675116E+02 -0.10610672818E+03  0.25662608384E+03  0.28994296184E+03  0.00000000000E+00 0.  1.
         21    1    1    2  504  501  0.49777953950E+02  0.17048587116E+02  0.21055498211E+03  0.21702972035E+03  0.00000000000E+00 0. -1.
         21    1    1    2  505  504 -0.49396817769E+01 -0.33591418852E+02 -0.29301144195E+02  0.44847975737E+02  0.00000000000E+00 0. -1.
          1    1    1    2  501    0  0.38536402943E+02  0.12264955992E+03  0.17218637400E+04  0.17266565113E+04  0.00000000000E+00 0.  1.
<scales pt_clust_3="14000.00000" pt_clust_4="50.54758" pt_clust_5="33.95267" pt_clust_6="128.40705"></scales>
<clustering>
<clus scale="   33.953">  2  5  1 -1</clus>
<clus scale="   50.548">  2  4  1 -1</clus>
<clus scale="  128.407">  1  6  2 -1</clus>
<clus scale="   33.953">  2  3  1 -1</clus>
</clustering>
</event>
<event>
 6    0  0.3584505E+002  0.7926895E+02  0.7546771E-02  0.1331139E+00
          2   -1    0    0  504    0 -0.00000000000E+00  0.00000000000E+00  0.23235755953E+04  0.23235755953E+04  0.00000000000E+00 0.  1.
         21   -1    0    0  505  502  0.00000000000E+00 -0.00000000000E+00 -0.18208451846E+02  0.18208451846E+02  0.00000000000E+00 0.  1.
         21    1    1    2  503  502 -0.68997035951E+02  0.30212685116E+02  0.15316143289E+03  0.17068046706E+03  0.00000000000E+00 0.  1.
         21    1    1    2  504  503  0.66432766996E+02 -0.59941223293E+02  0.29653861021E+03  0.30974410426E+03  0.00000000000E+00 0.  1.
         21    1    1    2  505  501  0.30769113719E+01  0.66219584490E+02  0.41755861785E+03  0.42278800845E+03  0.00000000000E+00 0.  1.
          2    1    1    2  501    0 -0.51264241689E+00 -0.36491046314E+02  0.14381084826E+04  0.14385714674E+04  0.00000000000E+00 0.  1.
<scales pt_clust_3="79.26895" pt_clust_4="14000.00000" pt_clust_5="48.98130" pt_clust_6="36.49465"></scales>
<clustering>
<clus scale="   36.495">  1  6  2 -1</clus>
<clus scale="   48.981">  1  5  2 -1</clus>
<clus scale="   79.269">  2  3  1 -1</clus>
<clus scale="   79.269">  2  3  1 -1</clus>
</clustering>
</event>
<event>
 6    0  0.3584505E+002  0.8168015E+02  0.7546771E-02  0.1324350E+00
         21   -1    0    0  503  502  0.00000000000E+00  0.00000000000E+00  0.49738850661E+02  0.49738850661E+02  0.00000000000E+00 0.  1.
          2   -1    0    0  504    0 -0.00000000000E+00 -0.00000000000E+00 -0.43551655663E+04  0.43551655663E+04  0.00000000000E+00 0.  1.
         21    1    1    2  503  501  0.90535578145E+02  0.27019802720E+02 -0.56596544694E+02  0.11013595925E+03  0.00000000000E+00 0.  1.
         21    1    1    2  504  505  0.46028891383E+02  0.30608035375E+02 -0.48657751994E+03  0.48970725294E+03  0.00000000000E+00 0. -1.
         21    1    1    2  505  502 -0.11660866438E+02 -0.41629040791E+02 -0.26097702147E+01  0.43310088246E+02  0.00000000000E+00 0.  1.
          2    1    1    2  501    0 -0.12490360309E+03 -0.15998797304E+02 -0.37596428808E+04  0.37617511165E+04  0.00000000000E+00 0.  1.
<scales pt_clust_3="14000.00000" pt_clust_4="53.55331" pt_clust_5="43.23139" pt_clust_6="81.68015"></scales>
<clustering>
<clus scale="   43.231">  1  5  2 -1</clus>
<clus scale="   53.553">  2  4  1 -1</clus>
<clus scale="   81.680">  2  6  1 -1</clus>
<clus scale="   43.231">  1  3  2 -1</clus>
</clustering>
</event>
<event>
 6    0  0.3584505E+002  0.2139962E+03  0.7546771E-02  0.1138440E+00
         21   -1    0    0  504  502  0.00000000000E+00  0.00000000000E+00  0.19396527481E+03  0.19396527481E+03  0.00000000000E+00 0. -1.
          2   -1    0    0  505    0 -0.00000000000E+00 -0.00000000000E+00 -0.13871520296E+04  0.13871520296E+04  0.00000000000E+00 0. -1.
         21    1    1    2  503  501  0.70400267974E+02 -0.14031799558E+03 -0.26373505198E+03  0.30692265354E+03  0.00000000000E+00 0. -1.
         21    1    1    2  504  503 -0.10749524981E+03 -0.99025081947E+02 -0.32942758926E+03  0.36039385698E+03  0.00000000000E+00 0. -1.
         21    1    1    2  505  502  0.64720193742E+02  0.22734838421E+03  0.67317730804E+02  0.24577971471E+03  0.00000000000E+00 0. -1.
          2    1    1    2  501    0 -0.27625211906E+02  0.11994693318E+02 -0.66734184435E+03  0.66802107917E+03  0.00000000000E+00 0. -1.
<scales pt_clust_3="148.02189" pt_clust_4="213.99620" pt_clust_5="14000.00000" pt_clust_6="30.11686"></scales>
<clustering>
<clus scale="   30.117">  2  6  1 -1</clus>
<clus scale="  148.022">  2  3  1 -1</clus>
<clus scale="  213.996">  2  4  1 -1</clus>
<clus scale="  213.996">  1  3  2 -1</clus>
</clustering>
</event>
<event>
 6    0  0.3584505E+002  0.7796342E+02  0.7546771E-02  0.1334932E+00
         21   -1    0    0  504  502  0.00000000000E+00  0.00000000000E+00  0.46117762645E+03  0.46117762645E+03  0.00000000000E+00 0.  1.
         -1   -1    0    0    0  501 -0.00000000000E+00 -0.00000000000E+00 -0.11551615521E+04  0.11551615521E+04  0.00000000000E+00 0.  1.
         21    1    1    2  503  505  0.90738055469E+02 -0.44807209382E+02 -0.24332759214E+03  0.26353253654E+03  0.00000000000E+00 0. -1.
         21    1    1    2  504  501 -0.63776255254E+02 -0.31230525779E+02  0.92518275075E+02  0.11662927462E+03  0.00000000000E+00 0.  1.
         21    1    1    2  505  502 -0.13327662636E+02  0.45502096120E+02  0.34456310632E+03  0.34781000788E+03  0.00000000000E+00 0.  1.
         -1    1    1    2    0  503 -0.13634137579E+02  0.30535639042E+02 -0.88773771491E+03  0.88836735951E+03  0.00000000000E+00 0.  1.
<scales pt_clust_3="14000.00000" pt_clust_4="77.96342" pt_clust_5="47.61520" pt_clust_6="33.44122"></scales>
<clustering>
<clus scale="   33.441">  2  6  1 -1</clus>
<clus scale="   47.615">  1  5  2 -1</clus>
<clus scale="   77.963">  1  4  2 -1</clus>
<clus scale="   47.615">  1  3  2 -1</clus>
</clustering>
</event>
<event>
 6    0  0.3584505E+002  0.1371061E+03  0.7546771E-02  0.1217277E+00
         21   -1    0    0  504  502  0.00000000000E+00  0.00000000000E+00  0.69676347096E+03  0.69676347096E+03  0.00000000000E+00 0.  1.
          3   -1    0    0  505    0 -0.00000000000E+00 -0.00000000000E+00 -0.74557224390E+03  0.74557224390E+03  0.00000000000E+00 0. -1.
         21    1    1    2  503  502  0.28283944157E+02  0.12012779944E+02  0.55012110479E+03  0.55097869134E+03  0.00000000000E+00 0.  1.
         21    1    1    2  504  501 -0.12558706775E+03  0.41760067227E+02 -0.51536187596E+02  0.14202814310E+03  0.00000000000E+00 0.  1.
         21    1    1    2  505  503  0.13317576466E+03  0.33689121785E+02  0.48728796125E+02  0.14575745879E+03  0.00000000000E+00 0.  1.
          3    1    1    2  501    0 -0.35872641069E+02 -0.87461968956E+02 -0.59612248626E+03  0.60357142163E+03  0.00000000000E+00 0. -1.
<scales pt_clust_3="30.72928" pt_clust_4="14000.00000" pt_clust_5="137.10612" pt_clust_6="93.97786"></scales>
<clustering>
<clus scale="   30.729">  1  3  2 -1</clus>
<clus scale="   93.978">  2  6  1 -1</clus>
<clus scale="  137.106">  1  5  2 -1</clus>
<clus scale="   30.729">  1  3  2 -1</clus>
</clustering>
</event>
<event>
 6    0  0.3584505E+002  0.1322061E+03  0.7546771E-02  0.1224219E+00
          4   -1    0    0  505    0 -0.00000000000E+00  0.00000000000E+00  0.17938352371E+04  0.17938352371E+04  0.00000000000E+00 0. -1.
         21   -1    0    0  504  502  0.00000000000E+00 -0.00000000000E+00 -0.25436816050E+03  0.25436816050E+03  0.00000000000E+00 0. -1.
         21    1    1    2  503  501  0.76254030975E+02 -0.31567688933E+02  0.39065430479E+01  0.82622377738E+02  0.00000000000E+00 0.  1.
         21    1    1    2  504  503  0.31342166280E+02  0.19204078460E+02  0.10063844193E+02  0.38110483815E+02  0.00000000000E+00 0. -1.
         21    1    1    2  505  502 -0.12407154391E+03 -0.28409167470E+02 -0.18052353901E+03  0.22088362760E+03  0.00000000000E+00 0. -1.
          4    1    1    2  501    0  0.16475346652E+02  0.40772777943E+02  0.17060202284E+04  0.17065869085E+04  0.00000000000E+00 0. -1.
<scales pt_clust_3="34.36451" pt_clust_4="34.36451" pt_clust_5="121.76616" pt_clust_6="43.97563"></scales>
<clustering>
<clus scale="   34.365">  3  4 -1 -1</clus>
<clus scale="   43.976">  1  6  2 -1</clus>
<clus scale="  121.766">  2  5  1 -1</clus>
<clus scale="  121.766">  2  3  1 -1</clus>
</clustering>
</event>
<event>
 6    0  0.3584505E+002  0.8214577E+02  0.7546771E-02  0.1323070E+00
         21   -1    0    0  504  502  0.00000000000E+00  0.00000000000E+00  0.61403309244E+03  0.61403309244E+03  0.00000000000E+00 0. -1.
          2   -1    0    0  503    0 -0.00000000000E+00 -0.00000000000E+00 -0.18900961981E+04  0.18900961981E+04  0.00000000000E+00 0. -1.
         21    1    1    2  503  502  0.60930064485E+02 -0.10581934283E+03  0.38957662898E+03  0.40826481102E+03  0.00000000000E+00 0. -1.
         21    1    1    2  504  505 -0.17545160790E+02  0.30815734117E+02  0.17152904265E+03  0.17515608642E+03  0.00000000000E+00 0. -1.
         21    1    1    2  505  501 -0.22290802901E+01  0.58635110439E+02  0.20767582362E+02  0.62244176051E+02  0.00000000000E+00 0. -1.
          2    1    1    2  501    0 -0.41155823405E+02  0.16368498272E+02 -0.18579363596E+04  0.18584642170E+04  0.00000000000E+00 0. -1.
<scales pt_clust_3="14000.00000" pt_clust_4="35.46043" pt_clust_5="82.14577" pt_clust_6="44.30800"></scales>
<clustering>
<clus scale="   35.460">  1  4  2 -1</clus>
<clus scale="   44.308">  2  6  1 -1</clus>
<clus scale="   82.146">  2  5  1 -1</clus>
<clus scale="   35.460">  1  3  2 -1</clus>
</clustering>
</event>
<event>
 6    0  0.3584505E+002  0.1566816E+03  0.7546771E-02  0.1192495E+00
          2   -1    0    0  505    0 -0.00000000000E+00  0.00000000000E+00  0.29870745124E+04  0.29870745124E+04  0.00000000000E+00 0.  1.
         21   -1    0    0  501  502  0.00000000000E+00 -0.00000000000E+00 -0.32233429140E+02  0.32233429140E+02  0.00000000000E+00 0.  1.
         21    1    1    2  503  502  0.24229339297E+01  0.49603624968E+02  0.36825537755E+02  0.61826454287E+02  0.00000000000E+00 0.  1.
         21    1    1    2  504  503 -0.20540621273E+02  0.10323651762E+03  0.17454136642E+03  0.20382439570E+03  0.00000000000E+00 0.  1.
         21    1    1    2  505  504  0.78535868993E+02 -0.11725834917E+03  0.11479048839E+04  0.11565478916E+04  0.00000000000E+00 0.  1.
          2    1    1    2  501    0 -0.60418181650E+02 -0.35581793424E+02  0.15955692952E+04  0.15971091999E+04  0.00000000000E+00 0.  1.
<scales pt_clust_3="32.26196" pt_clust_4="32.26196" pt_clust_5="149.47605" pt_clust_6="70.11719"></scales>
<clustering>
<clus scale="   32.262">  3  4 -1 -1</clus>
<clus scale="   70.117">  1  6  2 -1</clus>
<clus scale="  149.476">  1  5  2 -1</clus>
<clus scale="  156.682">  2  3  1 -1</clus>
</clustering>
</event>
<event>
 6    0  0.3584505E+002  0.1014191E+03  0.7546771E-02  0.1277340E+00
          2   -1    0    0  503    0 -0.00000000000E+00  0.00000000000E+00  0.29919488704E+04  0.29919488704E+04  0.00000000000E+00 0.  1.
         21   -1    0    0  505  502  0.00000000000E+00 -0.00000000000E+00 -0.18091462415E+02  0.18091462415E+02  0.00000000000E+00 0.  1.
         21    1    1    2  503  502 -0.63032196781E+02 -0.10307984511E+03  0.12691730876E+04  0.12749113062E+04  0.00000000000E+00 0.  1.
         21    1    1    2  504  501  0.17505978175E+01  0.84527206451E+02  0.42824154227E+03  0.43650742462E+03  0.00000000000E+00 0.  1.
         21    1    1    2  505  504 -0.17719889606E+02 -0.31956588364E+02  0.26431056062E+02  0.45097879685E+02  0.00000000000E+00 0.  1.
          2    1    1    2  501    0  0.79001488570E+02  0.50509227026E+02  0.12500117221E+04  0.12535237223E+04  0.00000000000E+00 0.  1.
<scales pt_clust_3="101.41912" pt_clust_4="69.76083" pt_clust_5="36.54064" pt_clust_6="14000.00000"></scales>
<clustering>
<clus scale="   36.541">  2  5  1 -1</clus>
<clus scale="   69.761">  2  4  1 -1</clus>
<clus scale="  101.419">  2  3  1 -1</clus>
<clus scale="   36.541">  2  3  1 -1</clus>
</clustering>
</event>
<event>
 6    0  0.3584505E+002  0.1043470E+03  0.7546771E-02  0.1271412E+00
          1   -1    0    0  503    0 -0.00000000000E+00  0.00000000000E+00  0.19752455140E+04  0.19752455140E+04  0.00000000000E+00 0. -1.
         21   -1    0    0  505  502  0.00000000000E+00 -0.00000000000E+00 -0.62480077095E+02  0.62480077095E+02  0.00000000000E+00 0.  1.
         21    1    1    2  503  504  0.84891524300E+02 -0.80315877716E+02  0.67876160202E+02  0.13514578882E+03  0.00000000000E+00 0.  1.
         21    1    1    2  504  502 -0.10559732063E+03 -0.49338772371E+00  0.10177156244E+03  0.14665772560E+03  0.00000000000E+00 0. -1.
         21    1    1    2  505  501  0.53718707095E+02  0.25579942051E+02  0.14806616094E+03  0.15957324633E+03  0.00000000000E+00 0. -1.
          1    1    1    2  501    0 -0.33012910769E+02  0.55229323389E+02  0.15950515533E+04  0.15963488303E+04  0.00000000000E+00 0. -1.
<scales pt_clust_3="104.34702" pt_clust_4="14000.00000" pt_clust_5="59.49818" pt_clust_6="64.28332"></scales>
<clustering>
<clus scale="   59.498">  2  5  1 -1</clus>
<clus scale="   64.283">  1  6  2 -1</clus>
<clus scale="  104.347">  1  3  2 -1</clus>
<clus scale="   59.498">  2  3  1 -1</clus>
</clustering>
</event>
<event>
 6    0  0.3584505E+002  0.1620864E+03  0.7546771E-02  0.1186361E+00
          2   -1    0    0  504    0 -0.00000000000E+00  0.00000000000E+00  0.27061652632E+04  0.27061652632E+04  0.00000000000E+00 0. -1.
         21   -1    0    0  501  502  0.00000000000E+00 -0.00000000000E+00 -0.51559806475E+02  0.51559806475E+02  0.00000000000E+00 0.  1.
         21    1    1    2  503  505  0.16678709728E+03 -0.36444064597E+02  0.14476820126E+03  0.22383908899E+03  0.00000000000E+00 0.  1.
         21    1    1    2  504  503 -0.11736751756E+03  0.44062784540E+02  0.90326887351E+03  0.91192725642E+03  0.00000000000E+00 0. -1.
         21    1    1    2  505  502 -0.14807622039E+02 -0.50504193042E+02  0.89050460756E+02  0.10344043574E+03  0.00000000000E+00 0.  1.
          2    1    1    2  501    0 -0.34611957678E+02  0.42885473099E+02  0.15175179212E+04  0.15185182885E+04  0.00000000000E+00 0. -1.
<scales pt_clust_3="14000.00000" pt_clust_4="162.08643" pt_clust_5="52.63021" pt_clust_6="54.77428"></scales>
<clustering>
<clus scale="   52.630">  2  5  1 -1</clus>
<clus scale="   54.774">  1  6  2 -1</clus>
<clus scale="  162.086">  1  4  2 -1</clus>
<clus scale="   52.630">  2  3  1 -1</clus>
</clustering>
</event>
<event>
 6    0  0.3584505E+002  0.1322948E+03  0.7546771E-02  0.1224090E+00
          1   -1    0    0  503    0 -0.00000000000E+00  0.00000000000E+00  0.42023837230E+03  0.42023837230E+03  0.00000000000E+00 0.  1.
         21   -1    0    0  504  502  0.00000000000E+00 -0.00000000000E+00 -0.95190047764E+03  0.95190047764E+03  0.00000000000E+00 0. -1.
         21    1    1    2  503  502 -0.10626922482E+03 -0.10363735840E+03 -0.39212661827E+03  0.41928168927E+03  0.00000000000E+00 0. -1.
         21    1    1    2  504  505 -0.11557941573E+02  0.49263481515E+02 -0.45513946831E+03  0.45794367802E+03  0.00000000000E+00 0.  1.
         21    1    1    2  505  501  0.77493821914E+02  0.12542359108E+03 -0.20654311897E+02  0.14887232864E+03  0.00000000000E+00 0.  1.
          1    1    1    2  501    0  0.40333344483E+02 -0.71049714202E+02  0.33625829313E+03  0.34604115401E+03  0.00000000000E+00 0.  1.
<scales pt_clust_3="14000.00000" pt_clust_4="50.60115" pt_clust_5="132.29482" pt_clust_6="81.22044"></scales>
<clustering>
<clus scale="   50.601">  2  4  1 -1</clus>
<clus scale="   81.220">  1  6  2 -1</clus>
<clus scale="  132.295">  1  5  2 -1</clus>
<clus scale="   50.601">  2  3  1 -1</clus>
</clustering>
</event>
<event>
 6    0  0.3584505E+002  0.1805006E+03  0.7546771E-02  0.1167319E+00
         21   -1    0    0  503  502  0.00000000000E+00  0.00000000000E+00  0.58165515894E+02  0.58165515894E+02  0.00000000000E+00 0. -1.
          2   -1    0    0  504    0 -0.00000000000E+00 -0.00000000000E+00 -0.67223805011E+03  0.67223805011E+03  0.00000000000E+00 0. -1.
         21    1    1    2  503  505 -0.92955124031E+02  0.54651952965E+02 -0.13931430763E+03  0.17617027943E+03  0.00000000000E+00 0. -1.
         21    1    1    2  504  502  0.21718271582E+02  0.24781728861E+02 -0.62414454823E+02  0.70578903199E+02  0.00000000000E+00 0.  1.
         21    1    1    2  505  501 -0.76792397024E+02  0.24269359883E+01 -0.81076502372E+02  0.11169763424E+03  0.00000000000E+00 0. -1.
          2    1    1    2  501    0  0.14802924947E+03 -0.81860617814E+02 -0.33126726939E+03  0.37195674912E+03  0.00000000000E+00 0. -1.
<scales pt_clust_3="39.19294" pt_clust_4="32.95174" pt_clust_5="39.19294" pt_clust_6="174.23225"></scales>
<clustering>
<clus scale="   32.952">  2  4  1 -1</clus>
<clus scale="   39.193">  3  5 -1 -1</clus>
<clus scale="  174.232">  2  6  1 -1</clus>
<clus scale="  180.501">  1  3  2 -1</clus>
</clustering>
</event>
<event>
 6    0  0.3584505E+002  0.1666074E+03  0.7546771E-02  0.1181433E+00
         21   -1    0    0  505  502  0.00000000000E+00  0.00000000000E+00  0.72958832909E+03  0.72958832909E+03  0.00000000000E+00 0. -1.
          1   -1    0    0  504    0 -0.00000000000E+00 -0.00000000000E+00 -0.12405209227E+04  0.12405209227E+04  0.00000000000E+00 0.  1.
         21    1    1    2  503  502 -0.14200774115E+01 -0.39415613064E+02  0.53072473961E+03  0.53218827158E+03  0.00000000000E+00 0. -1.
         21    1    1    2  504  503  0.18901034484E+02 -0.30655588306E+02 -0.77282869342E+02  0.85262278252E+02  0.00000000000E+00 0. -1.
         21    1    1    2  505  501 -0.14830793362E+03  0.11334877614E+03  0.14399919490E+03  0.23575189577E+03  0.00000000000E+00 0. -1.
          1    1    1    2  501    0  0.13082697655E+03 -0.43277574768E+02 -0.11083736587E+04  0.11169068062E+04  0.00000000000E+00 0.  1.
<scales pt_clust_3="39.46010" pt_clust_4="36.01408" pt_clust_5="14000.00000" pt_clust_6="166.60735"></scales>
<clustering>
<clus scale="   36.014">  2  4  1 -1</clus>
<clus scale="   39.460">  1  3  2 -1</clus>
<clus scale="  166.607">  2  6  1 -1</clus>
<clus scale="   39.460">  1  3  2 -1</clus>
</clustering>
</event>
<event>
 6    0  0.3584505E+002  0.1868476E+03  0.7546771E-02  0.1161336E+00
         -1   -1    0    0    0  501 -0.00000000000E+00  0.00000000000E+00  0.23011819160E+04  0.23011819160E+04  0.00000000000E+00 0.  1.
         21   -1    0    0  504  502  0.00000000000E+00 -0.00000000000E+00 -0.29023720202E+03  0.29023720202E+03  0.00000000000E+00 0.  1.
         21    1    1    2  503  505 -0.19837715341E+03 -0.66686615199E+02  0.47780823260E+03  0.52163330681E+03  0.00000000000E+00 0.  1.
         21    1    1    2  504  501  0.10717749740E+03  0.11585354998E+03 -0.74325948107E+02  0.17445173417E+03  0.00000000000E+00 0.  1.
         21    1    1    2  505  502  0.28037322010E+02  0.21491500827E+02 -0.14046499131E+03  0.14483918606E+03  0.00000000000E+00 0.  1.
         -1    1    1    2    0  503  0.63162333993E+02 -0.70658435604E+02  0.17479274208E+04  0.17504948910E+04  0.00000000000E+00 0.  1.
<scales pt_clust_3="186.84764" pt_clust_4="14000.00000" pt_clust_5="35.32670" pt_clust_6="94.79757"></scales>
<clustering>
<clus scale="   35.327">  2  5  1 -1</clus>
<clus scale="   94.798">  1  6  2 -1</clus>
<clus scale="  186.848">  1  3  2 -1</clus>
<clus scale="   35.327">  2  3  1 -1</clus>
</clustering>
</event>
<event>
 6    0  0.3584505E+002  0.7991605E+02  0.7546771E-02  0.1329290E+00
          1   -1    0    0  503    0 -0.00000000000E+00  0.00000000000E+00  0.14230185812E+04  0.14230185812E+04  0.00000000000E+00 0.  1.
         21   -1    0    0  505  502  0.00000000000E+00 -0.00000000000E+00 -0.90279567512E+03  0.90279567512E+03  0.00000000000E+00 0.  1.
         21    1    1    2  503  504  0.46341349665E+02 -0.15446043062E+02 -0.70552532523E+02  0.85812357971E+02  0.00000000000E+00 0. -1.
         21    1    1    2  504  502  0.62596987034E+02 -0.47841870277E+02 -0.77127776797E+03  0.77529131473E+03  0.00000000000E+00 0.  1.
         21    1    1    2  505  501 -0.86163893648E+02  0.85951799056E+02  0.21277832965E+02  0.12355029140E+03  0.00000000000E+00 0. -1.
          1    1    1    2  501    0 -0.22774443052E+02 -0.22663885716E+02  0.13407753736E+04  0.13411602922E+04  0.00000000000E+00 0.  1.
<scales pt_clust_3="47.57993" pt_clust_4="14000.00000" pt_clust_5="79.91605" pt_clust_6="32.12985"></scales>
<clustering>
<clus scale="   32.130">  1  6  2 -1</clus>
<clus scale="   47.580">  1  3  2 -1</clus>
<clus scale="   79.916">  1  5  2 -1</clus>
<clus scale="   79.916">  2  3  1 -1</clus>
</clustering>
</event>
<event>
 6    0  0.3584505E+002  0.9794674E+02  0.7546771E-02  0.1284674E+00
         21   -1    0    0  504  502  0.00000000000E+00  0.00000000000E+00  0.25882593788E+03  0.25882593788E+03  0.00000000000E+00 0. -1.
          4   -1    0    0  503    0 -0.00000000000E+00 -0.00000000000E+00 -0.21485280136E+03  0.21485280136E+03  0.00000000000E+00 0.  1.
         21    1    1    2  503  502 -0.20779005026E+02 -0.83768513335E+02 -0.17788343614E+02  0.88121257621E+02  0.00000000000E+00 0. -1.
         21    1    1    2  504  505  0.56028099621E+02  0.22123262415E+02  0.63748333347E+02  0.87706537336E+02  0.00000000000E+00 0. -1.
         21    1    1    2  505  501 -0.54080523102E+01  0.85758218698E+02  0.13254154713E+03  0.15795879469E+03  0.00000000000E+00 0. -1.
          4    1    1    2  501    0 -0.29841042285E+02 -0.24112967778E+02 -0.13452840034E+03  0.13989214960E+03  0.00000000000E+00 0.  1.
<scales pt_clust_3="14000.00000" pt_clust_4="54.61780" pt_clust_5="97.94674" pt_clust_6="38.36565"></scales>
<clustering>
<clus scale="   38.366">  2  6  1 -1</clus>
<clus scale="   54.618">  1  4  2 -1</clus>
<clus scale="   97.947">  1  5  2 -1</clus>
<clus scale="   54.618">  1  3  2 -1</clus>
</clustering>
</event>
<event>
 6    0  0.3584505E+002  0.8758103E+02  0.7546771E-02  0.1308818E+00
          2   -1    0    0  503    0 -0.00000000000E+00  0.00000000000E+00  0.96174690555E+03  0.96174690555E+03  0.00000000000E+00 0. -1.
         21   -1    0    0  504  502  0.00000000000E+00 -0.00000000000E+00 -0.35725131766E+03  0.35725131766E+03  0.00000000000E+00 0. -1.
         21    1    1    2  503  505 -0.93134956189E+02  0.27913191376E+02  0.46542989590E+02  0.10779385974E+03  0.00000000000E+00 0.  1.
         21    1    1    2  504  501 -0.46228315940E+01  0.40267277502E+02 -0.31019513020E+03  0.31283197248E+03  0.00000000000E+00 0. -1.
         21    1    1    2  505  502  0.58623950876E+02 -0.50659899163E+02  0.88816151297E+02  0.11786221503E+03  0.00000000000E+00 0.  1.
          2    1    1    2  501    0  0.39133836907E+02 -0.17520569715E+02  0.77933157720E+03  0.78051017596E+03  0.00000000000E+00 0. -1.
<scales pt_clust_3="87.58103" pt_clust_4="40.53177" pt_clust_5="14000.00000" pt_clust_6="42.61289"></scales>
<clustering>
<clus scale="   40.532">  2  4  1 -1</clus>
<clus scale="   42.613">  1  6  2 -1</clus>
<clus scale="   87.581">  1  3  2 -1</clus>
<clus scale="   40.532">  2  3  1 -1</clus>
</clustering>
</event>
<event>
 6    0  0.3584505E+002  0.1075696E+03  0.7546771E-02  0.1265138E+00
         21   -1    0    0  503  502  0.00000000000E+00  0.00000000000E+00  0.36980237139E+03  0.36980237139E+03  0.00000000000E+00 0. -1.
          2   -1    0    0  504    0 -0.00000000000E+00 -0.00000000000E+00 -0.17832543162E+04  0.17832543162E+04  0.00000000000E+00 0. -1.
         21    1    1    2  503  501 -0.78598352281E+01 -0.43182460328E+02  0.12431542104E+03  0.13183635993E+03  0.00000000000E+00 0. -1.
         21    1    1    2  504  505 -0.66562956357E+02  0.80562747387E+02 -0.12224582349E+03  0.16082606999E+03  0.00000000000E+00 0. -1.
         21    1    1    2  505  502  0.10369798507E+03 -0.11302001408E+02  0.20995762422E+03  0.23444234113E+03  0.00000000000E+00 0. -1.
          2    1    1    2  501    0 -0.29275193487E+02 -0.26078285651E+02 -0.16254791666E+04  0.16259519166E+04  0.00000000000E+00 0. -1.
<scales pt_clust_3="44.63322" pt_clust_4="14000.00000" pt_clust_5="107.56963" pt_clust_6="39.20604"></scales>
<clustering>
<clus scale="   39.206">  2  6  1 -1</clus>
<clus scale="   44.633">  1  3  2 -1</clus>
<clus scale="  107.570">  1  5  2 -1</clus>
<clus scale="   44.633">  1  3  2 -1</clus>
</clustering>
</event>
<event>
 6    0  0.3584505E+002  0.9435391E+02  0.7546771E-02  0.1292638E+00
         21   -1    0    0  505  502  0.00000000000E+00  0.00000000000E+00  0.28046163849E+02  0.28046163849E+02  0.00000000000E+00 0.  1.
          2   -1    0    0  503    0 -0.00000000000E+00 -0.00000000000E+00 -0.17260496772E+04  0.17260496772E+04  0.00000000000E+00 0. -1.
         21    1    1    2  503  504  0.52752432409E+02 -0.32946006477E+02 -0.23585395997E+03  0.24391668434E+03  0.00000000000E+00 0. -1.
         21    1    1    2  504  502  0.58195944350E+01 -0.92450323047E+02 -0.99382761609E+02  0.13585971889E+03  0.00000000000E+00 0.  1.
         21    1    1    2  505  501 -0.41011586747E+02  0.98383109801E+02 -0.51370532414E+03  0.52464687799E+03  0.00000000000E+00 0. -1.
          2    1    1    2  501    0 -0.17560440097E+02  0.27013219724E+02 -0.84906146762E+03  0.84967255981E+03  0.00000000000E+00 0. -1.
<scales pt_clust_3="54.33214" pt_clust_4="94.35391" pt_clust_5="14000.00000" pt_clust_6="32.21930"></scales>
<clustering>
<clus scale="   32.219">  2  6  1 -1</clus>
<clus scale="   54.332">  2  3  1 -1</clus>
<clus scale="   94.354">  1  4  2 -1</clus>
<clus scale="   94.354">  1  3  2 -1</clus>
</clustering>
</event>
<event>
 6    0  0.3584505E+002  0.1157530E+03  0.7546771E-02  0.1250272E+00
          2   -1    0    0  505    0 -0.00000000000E+00  0.00000000000E+00  0.62168000234E+03  0.62168000234E+03  0.00000000000E+00 0.  1.
         21   -1    0    0  503  502  0.00000000000E+00 -0.00000000000E+00 -0.29696380637E+03  0.29696380637E+03  0.00000000000E+00 0. -1.
         21    1    1    2  503  504  0.97111565854E+02  0.34179755481E+02 -0.23598870705E+02  0.10562110871E+03  0.00000000000E+00 0. -1.
         21    1    1    2  504  501  0.12753989800E+02 -0.97264068325E+02  0.17432769091E+03  0.20003276497E+03  0.00000000000E+00 0.  1.
         21    1    1    2  505  502 -0.14296863302E+03  0.79529550464E+02 -0.18794486239E+03  0.24917514067E+03  0.00000000000E+00 0. -1.
          2    1    1    2  501    0  0.33103077368E+02 -0.16445237620E+02  0.36193223817E+03  0.36381479436E+03  0.00000000000E+00 0.  1.
<scales pt_clust_3="107.11626" pt_clust_4="14000.00000" pt_clust_5="115.75303" pt_clust_6="36.96295"></scales>
<clustering>
<clus scale="   36.963">  1  6  2 -1</clus>
<clus scale="  107.116">  2  3  1 -1</clus>
<clus scale="  115.753">  2  5  1 -1</clus>
<clus scale="  107.116">  2  3  1 -1</clus>
</clustering>
</event>
<event>
 6    0  0.3584505E+002  0.2297894E+03  0.7546771E-02  0.1126788E+00
         21   -1    0    0  504  502  0.00000000000E+00  0.00000000000E+00  0.12938514975E+04  0.12938514975E+04  0.00000000000E+00 0. -1.
          2   -1    0    0  505    0 -0.00000000000E+00 -0.00000000000E+00 -0.16225126276E+04  0.16225126276E+04  0.00000000000E+00 0.  1.
         21    1    1    2  503  501  0.11915348530E+03  0.16229274108E+03 -0.32748913002E+03  0.38442894941E+03  0.00000000000E+00 0.  1.
         21    1    1    2  504  503 -0.73492822271E+02  0.52828175712E+02  0.17933278514E+03  0.20087871690E+03  0.00000000000E+00 0. -1.
         21    1    1    2  505  502 -0.54231165103E+02 -0.24611151617E+03  0.10602982845E+04  0.10898368455E+04  0.00000000000E+00 0. -1.
          2    1    1    2  501    0  0.85705020720E+01  0.30990599370E+02 -0.12408030697E+04  0.12412196133E+04  0.00000000000E+00 0.  1.
<scales pt_clust_3="14000.00000" pt_clust_4="90.82800" pt_clust_5="229.78935" pt_clust_6="32.15386"></scales>
<clustering>
<clus scale="   32.154">  2  6  1 -1</clus>
<clus scale="   90.828">  1  4  2 -1</clus>
<clus scale="  229.789">  1  5  2 -1</clus>
<clus scale="   90.828">  1  3  2 -1</clus>
</clustering>
</event>
<event>
 6    0  0.3584505E+002  0.1709584E+03  0.7546771E-02  0.1176852E+00
          2   -1    0    0  503    0 -0.00000000000E+00  0.00000000000E+00  0.68618710033E+03  0.68618710033E+03  0.00000000000E+00 0. -1.
         21   -1    0    0  505  502  0.00000000000E+00 -0.00000000000E+00 -0.80567932468E+03  0.80567932468E+03  0.00000000000E+00 0.  1.
         21    1    1    2  503  504 -0.92615501694E+02 -0.25577722336E+01 -0.83823872345E+02  0.12494244646E+03  0.00000000000E+00 0.  1.
         21    1    1    2  504  502 -0.32576255487E+02  0.29561252654E+02 -0.10931776386E+03  0.11783655449E+03  0.00000000000E+00 0. -1.
         21    1    1    2  505  501  0.16195470150E+03 -0.44425458598E+02 -0.57507202138E+03  0.59909162612E+03  0.00000000000E+00 0.  1.
          2    1    1    2  501    0 -0.36762944324E+02  0.17421978178E+02  0.64872143323E+03  0.64999579793E+03  0.00000000000E+00 0. -1.
<scales pt_clust_3="47.33405" pt_clust_4="47.33405" pt_clust_5="154.89025" pt_clust_6="40.68218"></scales>
<clustering>
<clus scale="   40.682">  1  6  2 -1</clus>
<clus scale="   47.334">  3  4 -1 -1</clus>
<clus scale="  154.890">  2  5  1 -1</clus>
<clus scale="  154.890">  2  3  1 -1</clus>
</clustering>
</event>
<event>
 6    0  0.3584505E+002  0.8680381E+02  0.7546771E-02  0.1310782E+00
         21   -1    0    0  503  502  0.00000000000E+00  0.00000000000E+00  0.95882570962E+03  0.95882570962E+03  0.00000000000E+00 0.  1.
          1   -1    0    0  505    0 -0.00000000000E+00 -0.00000000000E+00 -0.12342201244E+04  0.12342201244E+04  0.00000000000E+00 0. -1.
         21    1    1    2  503  501  0.83721101383E+01  0.29936430575E+02  0.82547979870E+03  0.82606487649E+03  0.00000000000E+00 0.  1.
         21    1    1    2  504  502 -0.19256531690E+02  0.58101235379E+02  0.11815874372E+03  0.13307162088E+03  0.00000000000E+00 0.  1.
         21    1    1    2  505  504 -0.59925286691E+02 -0.27921970638E+02 -0.19982187172E+03  0.21047436150E+03  0.00000000000E+00 0. -1.
          1    1    1    2  501    0  0.70809708243E+02 -0.60115695317E+02 -0.10192110855E+04  0.10234349751E+04  0.00000000000E+00 0. -1.
<scales pt_clust_3="31.08508" pt_clust_4="86.80381" pt_clust_5="65.30800" pt_clust_6="14000.00000"></scales>
<clustering>
<clus scale="   31.085">  1  3  2 -1</clus>
<clus scale="   65.308">  2  5  1 -1</clus>
<clus scale="   86.804">  1  4  2 -1</clus>
<clus scale="   31.085">  1  3  2 -1</clus>
</clustering>
</event>
<event>
 6    0  0.3584505E+002  0.1647501E+03  0.7546771E-02  0.1183436E+00
         21   -1    0    0  503  502  0.00000000000E+00  0.00000000000E+00  0.75619054508E+03  0.75619054508E+03  0.00000000000E+00 0. -1.
          1   -1    0    0  505    0 -0.00000000000E+00 -0.00000000000E+00 -0.16735552813E+03  0.16735552813E+03  0.00000000000E+00 0.  1.
         21    1    1    2  503  504 -0.40878508824E-01  0.62901689426E+02  0.43913419646E+03  0.44361635081E+03  0.00000000000E+00 0. -1.
         21    1    1    2  504  501  0.37137380627E+02  0.15362445905E+03  0.67591187331E+02  0.17189598035E+03  0.00000000000E+00 0. -1.
         21    1    1    2  505  502 -0.20097942859E+02 -0.48384401409E+02  0.12340193925E+03  0.13406347831E+03  0.00000000000E+00 0. -1.
          1    1    1    2  501    0 -0.16998559259E+02 -0.16814174706E+03 -0.41292306087E+02  0.17397026374E+03  0.00000000000E+00 0.  1.
<scales pt_clust_3="32.16054" pt_clust_4="164.75009" pt_clust_5="52.39253" pt_clust_6="14000.00000"></scales>
<clustering>
<clus scale="   52.393">  1  5  2 -1</clus>
<clus scale="   32.161">  1  3  2 -1</clus>
<clus scale="  164.750">  1  4  2 -1</clus>
<clus scale="   52.393">  1  3  2 -1</clus>
</clustering>
</event>
<event>
 6    0  0.3584505E+002  0.1616314E+03  0.7546771E-02  0.1186867E+00
         21   -1    0    0  505  502  0.00000000000E+00  0.00000000000E+00  0.22707441912E+03  0.22707441912E+03  0.00000000000E+00 0. -1.
          1   -1    0    0  503    0 -0.00000000000E+00 -0.00000000000E+00 -0.17391604825E+04  0.17391604825E+04  0.00000000000E+00 0. -1.
         21    1    1    2  503  502  0.31085023252E+02 -0.42101052285E+02  0.86775862858E+02  0.10133522413E+03  0.00000000000E+00 0. -1.
         21    1    1    2  504  501  0.15393800222E+03  0.70970224009E+02 -0.50711391808E+03  0.53469449888E+03  0.00000000000E+00 0. -1.
         21    1    1    2  505  504 -0.30087506520E+02  0.89284073835E+01  0.11180791922E+03  0.11612917509E+03  0.00000000000E+00 0. -1.
          1    1    1    2  501    0 -0.15493551895E+03 -0.37797579108E+02 -0.12035559274E+04  0.12140760035E+04  0.00000000000E+00 0. -1.
<scales pt_clust_3="35.20287" pt_clust_4="161.63137" pt_clust_5="31.38430" pt_clust_6="14000.00000"></scales>
<clustering>
<clus scale="   31.384">  1  5  2 -1</clus>
<clus scale="   35.203">  1  3  2 -1</clus>
<clus scale="  161.631">  1  4  2 -1</clus>
<clus scale="   31.384">  1  3  2 -1</clus>
</clustering>
</event>
<event>
 6    0  0.3584505E+002  0.7761242E+02  0.7546771E-02  0.1335967E+00
          2   -1    0    0  503    0 -0.00000000000E+00  0.00000000000E+00  0.28888188480E+04  0.28888188480E+04  0.00000000000E+00 0.  1.
         21   -1    0    0  505  502  0.00000000000E+00 -0.00000000000E+00 -0.21068619172E+03  0.21068619172E+03  0.00000000000E+00 0. -1.
         21    1    1    2  503  504 -0.31016023258E+01 -0.92280544843E+02  0.23181121735E+04  0.23199502942E+04  0.00000000000E+00 0.  1.
         21    1    1    2  504  502  0.41297137100E+02  0.67838167106E+02 -0.19523413566E+03  0.21076963295E+03  0.00000000000E+00 0. -1.
         21    1    1    2  505  501 -0.13333849136E+02 -0.27069763538E+02  0.38702796385E+02  0.49076166097E+02  0.00000000000E+00 0.  1.
          2    1    1    2  501    0 -0.24861685638E+02  0.51512141276E+02  0.51655182210E+03  0.51970894646E+03  0.00000000000E+00 0.  1.
<scales pt_clust_3="77.61242" pt_clust_4="49.79992" pt_clust_5="30.17555" pt_clust_6="14000.00000"></scales>
<clustering>
<clus scale="   30.176">  2  5  1 -1</clus>
<clus scale="   49.800">  2  4  1 -1</clus>
<clus scale="   77.612">  1  3  2 -1</clus>
<clus scale="   30.176">  2  3  1 -1</clus>
</clustering>
</event>
<event>
 6    0  0.3584505E+002  0.9152816E+02  0.7546771E-02  0.1299193E+00
          2   -1    0    0  504    0 -0.00000000000E+00  0.00000000000E+00  0.43051447592E+03  0.43051447592E+03  0.00000000000E+00 0. -1.
         21   -1    0    0  503  502  0.00000000000E+00 -0.00000000000E+00 -0.15146063841E+04  0.15146063841E+04  0.00000000000E+00 0. -1.
         21    1    1    2  503  505 -0.87163280880E+02  0.47922395818E+02 -0.12443058708E+04  0.12482752475E+04  0.00000000000E+00 0. -1.
         21    1    1    2  504  502  0.16526423610E+02 -0.84357128689E+02 -0.22593213105E+03  0.24173244647E+03  0.00000000000E+00 0. -1.
         21    1    1    2  505  501  0.74105393440E+02 -0.68800659065E+01  0.84234257449E+01  0.74899257306E+02  0.00000000000E+00 0. -1.
          2    1    1    2  501    0 -0.34685361693E+01  0.43314798778E+02  0.37772266790E+03  0.38021390871E+03  0.00000000000E+00 0. -1.
<scales pt_clust_3="91.52816" pt_clust_4="14000.00000" pt_clust_5="76.64974" pt_clust_6="43.45345"></scales>
<clustering>
<clus scale="   43.453">  1  6  2 -1</clus>
<clus scale="   76.650">  1  5  2 -1</clus>
<clus scale="   91.528">  2  3  1 -1</clus>
<clus scale="   91.528">  2  3  1 -1</clus>
</clustering>
</event>
<event>
 6    0  0.3584505E+002  0.1015555E+03  0.7546771E-02  0.1277058E+00
         21   -1    0    0  503  502  0.00000000000E+00  0.00000000000E+00  0.11926701875E+02  0.11926701875E+02  0.00000000000E+00 0. -1.
          3   -1    0    0  504    0 -0.00000000000E+00 -0.00000000000E+00 -0.38297072274E+04  0.38297072274E+04  0.00000000000E+00 0. -1.
         21    1    1    2  503  505 -0.33263538886E+02  0.15487074184E+02 -0.25517348887E+03  0.25779802541E+03  0.00000000000E+00 0.  1.
         21    1    1    2  504  502  0.11512689959E+03 -0.47134240486E+02 -0.38330542388E+03  0.40298745342E+03  0.00000000000E+00 0. -1.
         21    1    1    2  505  501 -0.53744026623E+02  0.24583985401E+01 -0.13047430298E+04  0.13058517672E+04  0.00000000000E+00 0. -1.
          3    1    1    2  501    0 -0.28119334084E+02  0.29188767762E+02 -0.18745585829E+04  0.18749966832E+04  0.00000000000E+00 0. -1.
<scales pt_clust_3="36.69213" pt_clust_4="90.43538" pt_clust_5="39.80078" pt_clust_6="39.80078"></scales>
<clustering>
<clus scale="   36.692">  1  3  2 -1</clus>
<clus scale="   39.801">  5  6 -1 -1</clus>
<clus scale="   90.435">  1  4  2 -1</clus>
<clus scale="   36.692">  1  3  2 -1</clus>
</clustering>
</event>
<event>
 6    0  0.3584505E+002  0.8661613E+02  0.7546771E-02  0.1311259E+00
         21   -1    0    0  503  502  0.00000000000E+00  0.00000000000E+00  0.83196764191E+02  0.83196764191E+02  0.00000000000E+00 0.  1.
          2   -1    0    0  504    0 -0.00000000000E+00 -0.00000000000E+00 -0.18739326467E+04  0.18739326467E+04  0.00000000000E+00 0.  1.
         21    1    1    2  503  501  0.11004048909E+02  0.30751484388E+02 -0.28003276123E+02  0.43022393681E+02  0.00000000000E+00 0. -1.
         21    1    1    2  504  505 -0.79284374212E+01  0.10427501856E+03 -0.65930537173E+03  0.66754753600E+03  0.00000000000E+00 0.  1.
         21    1    1    2  505  502  0.58994343579E+02 -0.70764536611E+02  0.39431553853E+02  0.10021376979E+03  0.00000000000E+00 0.  1.
          2    1    1    2  501    0 -0.62069955067E+02 -0.64261966340E+02 -0.11428587885E+04  0.11463457114E+04  0.00000000000E+00 0.  1.
<scales pt_clust_3="32.66103" pt_clust_4="86.61613" pt_clust_5="81.10819" pt_clust_6="14000.00000"></scales>
<clustering>
<clus scale="   32.661">  1  3  2 -1</clus>
<clus scale="   81.108">  1  5  2 -1</clus>
<clus scale="   86.616">  1  4  2 -1</clus>
<clus scale="   32.661">  1  3  2 -1</clus>
</clustering>
</event>
<event>
 6    0  0.3584505E+002  0.1512931E+03  0.7546771E-02  0.1198893E+00
         -3   -1    0    0    0  501 -0.00000000000E+00  0.00000000000E+00  0.18507717090E+04  0.18507717090E+04  0.00000000000E+00 0.  1.
         21   -1    0    0  504  502  0.00000000000E+00 -0.00000000000E+00 -0.10080214021E+03  0.10080214021E+03  0.00000000000E+00 0.  1.
         21    1    1    2  503  505 -0.95761177896E+02 -0.35905677505E+02 -0.10852015066E+02  0.10284545250E+03  0.00000000000E+00 0.  1.
         21    1    1    2  504  501 -0.32675547731E+02  0.13841214879E+02  0.13784301848E+03  0.14233751576E+03  0.00000000000E+00 0. -1.
         21    1    1    2  505  502 -0.22646953359E+02 -0.39995111776E+02 -0.23644381279E+02  0.51687041205E+02  0.00000000000E+00 0.  1.
         -3    1    1    2    0  503  0.15108367899E+03  0.62059574402E+02  0.16466229467E+04  0.16547038397E+04  0.00000000000E+00 0.  1.
<scales pt_clust_3="36.04765" pt_clust_4="35.48620" pt_clust_5="36.04765" pt_clust_6="141.35323"></scales>
<clustering>
<clus scale="   35.486">  1  4  2 -1</clus>
<clus scale="   36.048">  3  5 -1 -1</clus>
<clus scale="  141.353">  1  6  2 -1</clus>
<clus scale="  151.293">  2  3  1 -1</clus>
</clustering>
</event>
<event>
 6    0  0.3584505E+002  0.7117575E+02  0.7546771E-02  0.1356140E+00
         21   -1    0    0  504  502  0.00000000000E+00  0.00000000000E+00  0.37922764079E+02  0.37922764079E+02  0.00000000000E+00 0. -1.
          2   -1    0    0  503    0 -0.00000000000E+00 -0.00000000000E+00 -0.15103795476E+04  0.15103795476E+04  0.00000000000E+00 0. -1.
         21    1    1    2  503  502 -0.64090899258E+02 -0.69700847787E+02 -0.19049636318E+03  0.21273155839E+03  0.00000000000E+00 0. -1.
         21    1    1    2  504  505  0.31413067027E+01  0.38039511342E+02 -0.29775044107E+02  0.48408940109E+02  0.00000000000E+00 0. -1.
         21    1    1    2  505  501  0.70076458485E+02 -0.24868525803E+02 -0.65491746590E+02  0.99087448654E+02  0.00000000000E+00 0. -1.
          2    1    1    2  501    0 -0.91268659293E+01  0.56529862248E+02 -0.11866936297E+04  0.11880743646E+04  0.00000000000E+00 0. -1.
<scales pt_clust_3="14000.00000" pt_clust_4="38.16900" pt_clust_5="71.17575" pt_clust_6="58.15654"></scales>
<clustering>
<clus scale="   38.169">  1  4  2 -1</clus>
<clus scale="   58.157">  2  6  1 -1</clus>
<clus scale="   71.176">  1  5  2 -1</clus>
<clus scale="   38.169">  1  3  2 -1</clus>
</clustering>
</event>
<event>
 6    0  0.3584505E+002  0.8470913E+02  0.7546771E-02  0.1316195E+00
         21   -1    0    0  505  502  0.00000000000E+00  0.00000000000E+00  0.10017550112E+04  0.10017550112E+04  0.00000000000E+00 0.  1.
          2   -1    0    0  504    0 -0.00000000000E+00 -0.00000000000E+00 -0.21977925868E+04  0.21977925868E+04  0.00000000000E+00 0. -1.
         21    1    1    2  503  502 -0.11781788187E+03 -0.72777795990E+02 -0.24686493129E+03  0.28305468584E+03  0.00000000000E+00 0. -1.
         21    1    1    2  504  503 -0.68906346709E+02  0.28796896214E+02 -0.45351801499E+02  0.87373518571E+02  0.00000000000E+00 0. -1.
         21    1    1    2  505  501  0.80094891375E+02  0.26482736580E+02  0.95923263561E+03  0.96293498025E+03  0.00000000000E+00 0.  1.
          2    1    1    2  501    0  0.10662933721E+03  0.17498163196E+02 -0.18630534784E+04  0.18661844134E+04  0.00000000000E+00 0. -1.
<scales pt_clust_3="84.70913" pt_clust_4="74.68163" pt_clust_5="14000.00000" pt_clust_6="63.01315"></scales>
<clustering>
<clus scale="   74.682">  2  4  1 -1</clus>
<clus scale="   63.013">  2  6  1 -1</clus>
<clus scale="   84.709">  2  3  1 -1</clus>
<clus scale="   84.709">  1  3  2 -1</clus>
</clustering>
</event>
<event>
 6    0  0.3671542E+002  0.2258355E+03  0.7546771E-02  0.1129606E+00
          2   -1    0    0  504    0 -0.00000000000E+00  0.00000000000E+00  0.22040564498E+04  0.22040564498E+04  0.00000000000E+00 0. -1.
         21   -1    0    0  503  502  0.00000000000E+00 -0.00000000000E+00 -0.16207368551E+04  0.16207368551E+04  0.00000000000E+00 0. -1.
         21    1    1    2  503  505  0.72692621121E+02 -0.18872303088E+03 -0.23934303479E+03  0.31334595554E+03  0.00000000000E+00 0.  1.
         21    1    1    2  504  502 -0.10202785982E+03 -0.43564488483E+02 -0.12805397946E+04  0.12853364207E+04  0.00000000000E+00 0. -1.
         21    1    1    2  505  501 -0.17585305082E+01  0.23944581882E+03  0.17243127265E+03  0.29507615350E+03  0.00000000000E+00 0.  1.
          2    1    1    2  501    0  0.31093769206E+02 -0.71582994534E+01  0.19307711515E+04  0.19310347752E+04  0.00000000000E+00 0. -1.
<scales pt_clust_3="14000.00000" pt_clust_4="110.71312" pt_clust_5="225.83546" pt_clust_6="31.90711"></scales>
<clustering>
<clus scale="   31.907">  1  6  2 -1</clus>
<clus scale="  110.713">  2  4  1 -1</clus>
<clus scale="  225.835">  1  5  2 -1</clus>
<clus scale="  110.713">  2  3  1 -1</clus>
</clustering>
</event>
<event>
 6    0  0.3584505E+002  0.1332902E+03  0.7546771E-02  0.1222654E+00
         -1   -1    0    0    0  501 -0.00000000000E+00  0.00000000000E+00  0.20248108712E+03  0.20248108712E+03  0.00000000000E+00 0. -1.
         21   -1    0    0  503  502  0.00000000000E+00 -0.00000000000E+00 -0.20184276722E+03  0.20184276722E+03  0.00000000000E+00 0. -1.
         21    1    1    2  503  505  0.35082785077E+02  0.25628061380E+02 -0.72029216748E+02  0.84117818589E+02  0.00000000000E+00 0. -1.
         21    1    1    2  504  501 -0.30400951031E+02 -0.15898813682E+03  0.41694332084E+02  0.16715221446E+03  0.00000000000E+00 0. -1.
         21    1    1    2  505  504  0.12445007575E+02  0.10838639485E+03 -0.88179702864E+00  0.10910209149E+03  0.00000000000E+00 0. -1.
         -1    1    1    2    0  502 -0.17126841621E+02  0.24973680590E+02  0.31855001587E+02  0.43951729798E+02  0.00000000000E+00 0. -1.
<scales pt_clust_3="43.49383" pt_clust_4="133.29021" pt_clust_5="14000.00000" pt_clust_6="30.28223"></scales>
<clustering>
<clus scale="   30.282">  1  6  2 -1</clus>
<clus scale="   43.494">  2  3  1 -1</clus>
<clus scale="  133.290">  1  4  2 -1</clus>
<clus scale="   43.494">  2  3  1 -1</clus>
</clustering>
</event>
<event>
 6    0  0.3584505E+002  0.1016718E+03  0.7546771E-02  0.1276819E+00
         21   -1    0    0  503  502  0.00000000000E+00  0.00000000000E+00  0.17253009629E+03  0.17253009629E+03  0.00000000000E+00 0.  1.
          3   -1    0    0  504    0 -0.00000000000E+00 -0.00000000000E+00 -0.24676794689E+03  0.24676794689E+03  0.00000000000E+00 0.  1.
         21    1    1    2  503  501 -0.37922665225E+02  0.14734785833E+02  0.41379659346E+02  0.58030325338E+02  0.00000000000E+00 0.  1.
         21    1    1    2  504  505  0.78243609814E+02  0.56129664777E+02 -0.14281503221E+03  0.17224614704E+03  0.00000000000E+00 0.  1.
         21    1    1    2  505  502 -0.97787713922E+02 -0.82769233708E+02  0.14069010629E+02  0.12888413441E+03  0.00000000000E+00 0.  1.
          3    1    1    2  501    0  0.57466769332E+02  0.11904783098E+02  0.13128511634E+02  0.60137436392E+02  0.00000000000E+00 0.  1.
<scales pt_clust_3="40.68467" pt_clust_4="101.67180" pt_clust_5="14000.00000" pt_clust_6="48.94966"></scales>
<clustering>
<clus scale="   40.685">  1  3  2 -1</clus>
<clus scale="   48.950">  1  6  2 -1</clus>
<clus scale="  101.672">  2  4  1 -1</clus>
<clus scale="   40.685">  1  3  2 -1</clus>
</clustering>
</event>
<event>
 6    0  0.3584505E+002  0.9954364E+02  0.7546771E-02  0.1281259E+00
          2   -1    0    0  505    0 -0.00000000000E+00  0.00000000000E+00  0.16645700764E+04  0.16645700764E+04  0.00000000000E+00 0.  1.
         21   -1    0    0  503  502  0.00000000000E+00 -0.00000000000E+00 -0.45877068240E+03  0.45877068240E+03  0.00000000000E+00 0.  1.
         21    1    1    2  503  504  0.58899045873E+02 -0.35254971318E+02  0.28061923095E+02  0.74158493345E+02  0.00000000000E+00 0.  1.
         21    1    1    2  504  501 -0.11329319133E+03  0.51266143533E+02  0.53520865490E+03  0.54946507528E+03  0.00000000000E+00 0.  1.
         21    1    1    2  505  502  0.46210268996E+02  0.18697875653E+02 -0.42684645943E+03  0.42974748334E+03  0.00000000000E+00 0.  1.
          2    1    1    2  501    0  0.81838764642E+01 -0.34709047867E+02  0.10693752755E+04  0.10699697069E+04  0.00000000000E+00 0.  1.
<scales pt_clust_3="14000.00000" pt_clust_4="99.54364" pt_clust_5="49.83660" pt_clust_6="35.66082"></scales>
<clustering>
<clus scale="   35.661">  1  6  2 -1</clus>
<clus scale="   49.837">  2  5  1 -1</clus>
<clus scale="   99.544">  1  4  2 -1</clus>
<clus scale="   49.837">  2  3  1 -1</clus>
</clustering>
</event>
<event>
 6    0  0.3584505E+002  0.6706978E+02  0.7546771E-02  0.1370351E+00
          2   -1    0    0  505    0 -0.00000000000E+00  0.00000000000E+00  0.19215244778E+04  0.19215244778E+04  0.00000000000E+00 0.  1.
         21   -1    0    0  504  502  0.00000000000E+00 -0.00000000000E+00 -0.27514043737E+02  0.27514043737E+02  0.00000000000E+00 0. -1.
         21    1    1    2  503  501 -0.87250490787E+01 -0.64215913459E+02  0.16932011845E+03  0.18129840743E+03  0.00000000000E+00 0. -1.
         21    1    1    2  504  503 -0.78308459009E+02  0.24328615709E+02  0.96829584898E+02  0.12688603078E+03  0.00000000000E+00 0. -1.
         21    1    1    2  505  502  0.46146011367E+02  0.54311060859E+02  0.19970964268E+03  0.21204501191E+03  0.00000000000E+00 0. -1.
          2    1    1    2  501    0  0.40887496721E+02 -0.14423763110E+02  0.14281510880E+04  0.14288090714E+04  0.00000000000E+00 0.  1.
<scales pt_clust_3="69.58772" pt_clust_4="67.06978" pt_clust_5="14000.00000" pt_clust_6="43.35703"></scales>
<clustering>
<clus scale="   43.357">  1  6  2 -1</clus>
<clus scale="   69.588">  1  3  2 -1</clus>
<clus scale="   67.070">  2  4  1 -1</clus>
<clus scale="   67.070">  2  3  1 -1</clus>
</clustering>
</event>
<event>
 6    0  0.3584505E+002  0.1880343E+03  0.7546771E-02  0.1160246E+00
          4   -1    0    0  505    0 -0.00000000000E+00  0.00000000000E+00  0.11377703776E+04  0.11377703776E+04  0.00000000000E+00 0.  1.
         21   -1    0    0  503  502  0.00000000000E+00 -0.00000000000E+00 -0.34372772935E+03  0.34372772935E+03  0.00000000000E+00 0. -1.
         21    1    1    2  503  501  0.22309249162E+03 -0.12325188471E+02 -0.15945472075E+03  0.27449586164E+03  0.00000000000E+00 0. -1.
         21    1    1    2  504  502 -0.19287937280E+02 -0.59680704696E+02 -0.87496937453E+02  0.10765465666E+03  0.00000000000E+00 0. -1.
         21    1    1    2  505  504 -0.12121451523E+03  0.22166760775E+02  0.11566879572E+03  0.16900767524E+03  0.00000000000E+00 0. -1.
          4    1    1    2  501    0 -0.82590039109E+02  0.49839132391E+02  0.92532551074E+03  0.93033991342E+03  0.00000000000E+00 0.  1.
<scales pt_clust_3="188.03431" pt_clust_4="62.72010" pt_clust_5="14000.00000" pt_clust_6="96.31885"></scales>
<clustering>
<clus scale="   62.720">  2  4  1 -1</clus>
<clus scale="   96.319">  1  6  2 -1</clus>
<clus scale="  188.034">  2  3  1 -1</clus>
<clus scale="   62.720">  2  3  1 -1</clus>
</clustering>
</event>
<event>
 6    0  0.3584505E+002  0.1160440E+03  0.7546771E-02  0.1249770E+00
         -1   -1    0    0    0  501 -0.00000000000E+00  0.00000000000E+00  0.24287786279E+03  0.24287786279E+03  0.00000000000E+00 0. -1.
         21   -1    0    0  504  502  0.00000000000E+00 -0.00000000000E+00 -0.75958079573E+03  0.75958079573E+03  0.00000000000E+00 0. -1.
         21    1    1    2  503  502  0.10610581609E+02 -0.97297214029E+02 -0.34066653400E+03  0.35444748509E+03  0.00000000000E+00 0. -1.
         21    1    1    2  504  501 -0.23424425002E+02 -0.29820290568E+02 -0.38659079149E+03  0.38844612687E+03  0.00000000000E+00 0. -1.
         21    1    1    2  505  503  0.27999556943E+01  0.71536515103E+02  0.44799344066E+02  0.84452909800E+02  0.00000000000E+00 0. -1.
         -1    1    1    2    0  505  0.10013887699E+02  0.55580989494E+02  0.16575504849E+03  0.17511213676E+03  0.00000000000E+00 0. -1.
<scales pt_clust_3="14000.00000" pt_clust_4="37.92036" pt_clust_5="116.04405" pt_clust_6="56.05505"></scales>
<clustering>
<clus scale="   37.920">  2  4  1 -1</clus>
<clus scale="   56.055">  1  6  2 -1</clus>
<clus scale="  116.044">  1  5  2 -1</clus>
<clus scale="   37.920">  2  3  1 -1</clus>
</clustering>
</event>
<event>
 6    0  0.3584505E+002  0.1262401E+03  0.7546771E-02  0.1233144E+00
         21   -1    0    0  503  502  0.00000000000E+00  0.00000000000E+00  0.95615059772E+03  0.95615059772E+03  0.00000000000E+00 0.  1.
          2   -1    0    0  504    0 -0.00000000000E+00 -0.00000000000E+00 -0.55937091694E+03  0.55937091694E+03  0.00000000000E+00 0.  1.
         21    1    1    2  503  505  0.64891884095E+02 -0.10957270083E+03  0.86066291257E+03  0.87003320768E+03  0.00000000000E+00 0.  1.
         21    1    1    2  504  502 -0.47528428791E+02 -0.60300563639E+02 -0.64315458553E+02  0.10015781411E+03  0.00000000000E+00 0. -1.
         21    1    1    2  505  501  0.62469431468E+01  0.13197113026E+03  0.10782082372E+02  0.13255812619E+03  0.00000000000E+00 0.  1.
          2    1    1    2  501    0 -0.23610398451E+02  0.37902134213E+02 -0.41034985561E+03  0.41277236667E+03  0.00000000000E+00 0.  1.
<scales pt_clust_3="14000.00000" pt_clust_4="72.23464" pt_clust_5="126.24014" pt_clust_6="44.65448"></scales>
<clustering>
<clus scale="   44.654">  2  6  1 -1</clus>
<clus scale="   72.235">  2  4  1 -1</clus>
<clus scale="  126.240">  2  5  1 -1</clus>
<clus scale="  126.240">  1  3  2 -1</clus>
</clustering>
</event>
<event>
 6    0  0.3584505E+002  0.1355120E+03  0.7546771E-02  0.1219499E+00
          2   -1    0    0  504    0 -0.00000000000E+00  0.00000000000E+00  0.12235785765E+04  0.12235785765E+04  0.00000000000E+00 0. -1.
         21   -1    0    0  505  502  0.00000000000E+00 -0.00000000000E+00 -0.48042836423E+02  0.48042836423E+02  0.00000000000E+00 0.  1.
         21    1    1    2  503  502 -0.28453559539E+02 -0.42203477723E+02  0.50529261837E+02  0.71721300073E+02  0.00000000000E+00 0.  1.
         21    1    1    2  504  503 -0.11890796231E+03  0.74275928099E+01  0.24370443068E+03  0.27126762094E+03  0.00000000000E+00 0.  1.
         21    1    1    2  505  501  0.18386905497E+02 -0.43037544786E+02  0.14726563884E+02  0.49063023132E+02  0.00000000000E+00 0.  1.
          2    1    1    2  501    0  0.12897461635E+03  0.77813429700E+02  0.86657548370E+03  0.87956946880E+03  0.00000000000E+00 0. -1.
<scales pt_clust_3="61.12555" pt_clust_4="14000.00000" pt_clust_5="46.80073" pt_clust_6="135.51198"></scales>
<clustering>
<clus scale="   46.801">  2  5  1 -1</clus>
<clus scale="   61.126">  2  3  1 -1</clus>
<clus scale="  135.512">  1  6  2 -1</clus>
<clus scale="   46.801">  2  3  1 -1</clus>
</clustering>
</event>
<event>
 6    0  0.3584505E+002  0.1055898E+03  0.7546771E-02  0.1268962E+00
          2   -1    0    0  504    0 -0.00000000000E+00  0.00000000000E+00  0.89795377911E+03  0.89795377911E+03  0.00000000000E+00 0. -1.
         21   -1    0    0  503  502  0.00000000000E+00 -0.00000000000E+00 -0.61774363684E+03  0.61774363684E+03  0.00000000000E+00 0. -1.
         21    1    1    2  503  501  0.31567376526E+02  0.75590812465E+02  0.15346742506E+03  0.17396183703E+03  0.00000000000E+00 0.  1.
         21    1    1    2  504  505  0.71304803121E+02 -0.13769677684E+03 -0.39789036796E+02  0.16008730353E+03  0.00000000000E+00 0.  1.
         21    1    1    2  505  502 -0.71466457813E+02  0.27375509527E+02 -0.50385214102E+03  0.50963109513E+03  0.00000000000E+00 0. -1.
          2    1    1    2  501    0 -0.31405721834E+02  0.34730454851E+02  0.67038389503E+03  0.67201718027E+03  0.00000000000E+00 0. -1.
<scales pt_clust_3="14000.00000" pt_clust_4="105.58984" pt_clust_5="77.06271" pt_clust_6="46.82439"></scales>
<clustering>
<clus scale="   46.824">  1  6  2 -1</clus>
<clus scale="   77.063">  2  5  1 -1</clus>
<clus scale="  105.590">  2  4  1 -1</clus>
<clus scale="   77.063">  2  3  1 -1</clus>
</clustering>
</event>
<event>
 6    0  0.3584505E+002  0.8536598E+02  0.7546771E-02  0.1314478E+00
          1   -1    0    0  503    0 -0.00000000000E+00  0.00000000000E+00  0.19853590810E+03  0.19853590810E+03  0.00000000000E+00 0. -1.
         21   -1    0    0  504  502  0.00000000000E+00 -0.00000000000E+00 -0.19039810983E+03  0.19039810983E+03  0.00000000000E+00 0. -1.
         21    1    1    2  503  502  0.26370467534E+02  0.19663083255E+02 -0.83547541437E+02  0.89789921936E+02  0.00000000000E+00 0. -1.
         21    1    1    2  504  505 -0.34536485699E+02  0.53783180318E+02 -0.19321887682E+02  0.66773757369E+02  0.00000000000E+00 0. -1.
         21    1    1    2  505  501  0.83222743824E+02 -0.16797072025E+02 -0.25417401325E+01  0.84938961385E+02  0.00000000000E+00 0. -1.
          1    1    1    2  501    0 -0.75056725659E+02 -0.56649191549E+02  0.11354896752E+03  0.14743137724E+03  0.00000000000E+00 0. -1.
<scales pt_clust_3="32.89435" pt_clust_4="66.28423" pt_clust_5="14000.00000" pt_clust_6="85.36598"></scales>
<clustering>
<clus scale="   32.894">  2  3  1 -1</clus>
<clus scale="   66.284">  2  4  1 -1</clus>
<clus scale="   85.366">  1  6  2 -1</clus>
<clus scale="   32.894">  2  3  1 -1</clus>
</clustering>
</event>
<event>
 6    0  0.3584505E+002  0.7808554E+02  0.7546771E-02  0.1334574E+00
          2   -1    0    0  503    0 -0.00000000000E+00  0.00000000000E+00  0.11100310202E+04  0.11100310202E+04  0.00000000000E+00 0. -1.
         21   -1    0    0  501  502  0.00000000000E+00 -0.00000000000E+00 -0.21244205320E+04  0.21244205320E+04  0.00000000000E+00 0. -1.
         21    1    1    2  503  504 -0.53187222726E+02 -0.12266753125E+02 -0.73047696882E+02  0.91188375977E+02  0.00000000000E+00 0. -1.
         21    1    1    2  504  505  0.11395515890E+03 -0.75876160852E+01 -0.14731105440E+03  0.18639714833E+03  0.00000000000E+00 0. -1.
         21    1    1    2  505  502 -0.32651026881E+02 -0.31208694522E+02 -0.18743905957E+04  0.18749347128E+04  0.00000000000E+00 0. -1.
          2    1    1    2  501    0 -0.28116909292E+02  0.51063063732E+02  0.10803598352E+04  0.10819313151E+04  0.00000000000E+00 0. -1.
<scales pt_clust_3="14000.00000" pt_clust_4="78.08554" pt_clust_5="45.16716" pt_clust_6="58.25604"></scales>
<clustering>
<clus scale="   45.167">  2  5  1 -1</clus>
<clus scale="   58.256">  1  6  2 -1</clus>
<clus scale="   78.086">  2  4  1 -1</clus>
<clus scale="   45.167">  2  3  1 -1</clus>
</clustering>
</event>
<event>
 6    0  0.3584505E+002  0.1998227E+03  0.7546771E-02  0.1149889E+00
          2   -1    0    0  503    0 -0.00000000000E+00  0.00000000000E+00  0.27243818237E+04  0.27243818237E+04  0.00000000000E+00 0. -1.
         21   -1    0    0  501  502  0.00000000000E+00 -0.00000000000E+00 -0.58993347815E+02  0.58993347815E+02  0.00000000000E+00 0. -1.
         21    1    1    2  503  505  0.44916872156E+02  0.45018924971E+02  0.38463473115E+03  0.38985651901E+03  0.00000000000E+00 0.  1.
         21    1    1    2  504  502 -0.16242834061E+03  0.12490279913E+03  0.17391173272E+03  0.26875447129E+03  0.00000000000E+00 0. -1.
         21    1    1    2  505  504 -0.38307082024E+02 -0.95100154036E+02  0.79429862211E+03  0.80088811511E+03  0.00000000000E+00 0. -1.
          2    1    1    2  501    0  0.15581855047E+03 -0.74821570063E+02  0.13125433899E+04  0.13238760661E+04  0.00000000000E+00 0. -1.
<scales pt_clust_3="63.59425" pt_clust_4="14000.00000" pt_clust_5="82.98146" pt_clust_6="199.82275"></scales>
<clustering>
<clus scale="   63.594">  1  3  2 -1</clus>
<clus scale="   82.981">  1  5  2 -1</clus>
<clus scale="  199.823">  1  6  2 -1</clus>
<clus scale="  199.823">  2  3  1 -1</clus>
</clustering>
</event>
<event>
 6    0  0.3584505E+002  0.1634551E+03  0.7546771E-02  0.1184850E+00
         21   -1    0    0  505  502  0.00000000000E+00  0.00000000000E+00  0.52340128533E+03  0.52340128533E+03  0.00000000000E+00 0. -1.
         -2   -1    0    0    0  501 -0.00000000000E+00 -0.00000000000E+00 -0.31994908836E+03  0.31994908836E+03  0.00000000000E+00 0.  1.
         21    1    1    2  503  504 -0.70038387968E+02 -0.19059263737E+03  0.32837798556E+03  0.38608681745E+03  0.00000000000E+00 0. -1.
         21    1    1    2  504  501  0.54647723386E+02 -0.32892411262E+02  0.43824479088E+01  0.63933482930E+02  0.00000000000E+00 0. -1.
         21    1    1    2  505  503 -0.31554321570E+02  0.67852540381E+02  0.92091295666E+02  0.11866106852E+03  0.00000000000E+00 0.  1.
         -2    1    1    2    0  502  0.46944986152E+02  0.15563250825E+03 -0.22139953217E+03  0.27466900479E+03  0.00000000000E+00 0.  1.
<scales pt_clust_3="14000.00000" pt_clust_4="63.78310" pt_clust_5="72.42872" pt_clust_6="163.45507"></scales>
<clustering>
<clus scale="   63.783">  2  4  1 -1</clus>
<clus scale="   72.429">  1  5  2 -1</clus>
<clus scale="  163.455">  2  6  1 -1</clus>
<clus scale="   72.429">  1  3  2 -1</clus>
</clustering>
</event>
<event>
 6    0  0.3584505E+002  0.1123158E+03  0.7546771E-02  0.1256340E+00
          2   -1    0    0  505    0 -0.00000000000E+00  0.00000000000E+00  0.69340420375E+03  0.69340420375E+03  0.00000000000E+00 0.  1.
         21   -1    0    0  504  502  0.00000000000E+00 -0.00000000000E+00 -0.13159992831E+04  0.13159992831E+04  0.00000000000E+00 0. -1.
         21    1    1    2  503  502 -0.95878513239E+02 -0.22090991178E+01 -0.10953543302E+04  0.10995447594E+04  0.00000000000E+00 0. -1.
         21    1    1    2  504  501 -0.94371929646E+01  0.38934247590E+02 -0.14540668601E+03  0.15082453574E+03  0.00000000000E+00 0. -1.
         21    1    1    2  505  503  0.13546540700E+03 -0.30536540679E+02 -0.12340220912E+01  0.13887000979E+03  0.00000000000E+00 0. -1.
          2    1    1    2  501    0 -0.30149700794E+02 -0.61886077938E+01  0.61939995892E+03  0.62016418184E+03  0.00000000000E+00 0.  1.
<scales pt_clust_3="112.31582" pt_clust_4="40.11765" pt_clust_5="14000.00000" pt_clust_6="30.77829"></scales>
<clustering>
<clus scale="   30.778">  1  6  2 -1</clus>
<clus scale="   40.118">  2  4  1 -1</clus>
<clus scale="  112.316">  2  3  1 -1</clus>
<clus scale="   40.118">  2  3  1 -1</clus>
</clustering>
</event>
<event>
 6    0  0.3584505E+002  0.1495062E+03  0.7546771E-02  0.1201081E+00
         21   -1    0    0  501  502  0.00000000000E+00  0.00000000000E+00  0.24923240529E+04  0.24923240529E+04  0.00000000000E+00 0. -1.
         -3   -1    0    0    0  501 -0.00000000000E+00 -0.00000000000E+00 -0.47679814562E+02  0.47679814562E+02  0.00000000000E+00 0. -1.
         21    1    1    2  503  502 -0.50430358750E+02 -0.21627038271E+02  0.82608276236E+03  0.82790318283E+03  0.00000000000E+00 0. -1.
         21    1    1    2  504  503 -0.98180686006E+02  0.18579994335E+02  0.14672913398E+04  0.14706898174E+04  0.00000000000E+00 0. -1.
         21    1    1    2  505  504  0.10726678737E+03  0.20164595238E+02  0.16205371353E+03  0.19538214003E+03  0.00000000000E+00 0.  1.
         -3    1    1    2    0  505  0.41344257382E+02 -0.17117551301E+02 -0.10783577368E+02  0.46028727137E+02  0.00000000000E+00 0. -1.
<scales pt_clust_3="32.04935" pt_clust_4="32.04935" pt_clust_5="143.11405" pt_clust_6="44.74772"></scales>
<clustering>
<clus scale="   32.049">  3  4 -1 -1</clus>
<clus scale="   44.748">  2  6  1 -1</clus>
<clus scale="  143.114">  2  5  1 -1</clus>
<clus scale="  149.506">  1  3  2 -1</clus>
</clustering>
</event>
<event>
 6    0  0.3584505E+002  0.6300737E+02  0.7546771E-02  0.1385628E+00
         21   -1    0    0  504  502  0.00000000000E+00  0.00000000000E+00  0.10268518441E+03  0.10268518441E+03  0.00000000000E+00 0. -1.
          1   -1    0    0  505    0 -0.00000000000E+00 -0.00000000000E+00 -0.15087446093E+04  0.15087446093E+04  0.00000000000E+00 0.  1.
         21    1    1    2  503  502 -0.29106169835E+02 -0.50763123875E+02  0.45067170807E+02  0.73858741883E+02  0.00000000000E+00 0. -1.
         21    1    1    2  504  501  0.88820158763E+02  0.27115539930E+02 -0.23985728214E+02  0.95914484132E+02  0.00000000000E+00 0. -1.
         21    1    1    2  505  503 -0.53660119639E+02 -0.19419939815E+02 -0.11111538113E+03  0.12491265118E+03  0.00000000000E+00 0. -1.
          1    1    1    2  501    0 -0.60538692894E+01  0.43067523760E+02 -0.13160254864E+04  0.13167439166E+04  0.00000000000E+00 0.  1.
<scales pt_clust_3="55.98039" pt_clust_4="14000.00000" pt_clust_5="63.00737" pt_clust_6="43.49093"></scales>
<clustering>
<clus scale="   43.491">  2  6  1 -1</clus>
<clus scale="   55.980">  1  3  2 -1</clus>
<clus scale="   63.007">  2  5  1 -1</clus>
<clus scale="   55.980">  1  3  2 -1</clus>
</clustering>
</event>
<event>
 6    0  0.3584505E+002  0.7594131E+02  0.7546771E-02  0.1340981E+00
         21   -1    0    0  503  502  0.00000000000E+00  0.00000000000E+00  0.13645487144E+04  0.13645487144E+04  0.00000000000E+00 0. -1.
          2   -1    0    0  505    0 -0.00000000000E+00 -0.00000000000E+00 -0.50584009673E+02  0.50584009673E+02  0.00000000000E+00 0.  1.
         21    1    1    2  503  501  0.11776983244E+03 -0.63074905400E+00  0.75486939257E+03  0.76400126382E+03  0.00000000000E+00 0. -1.
         21    1    1    2  504  502 -0.51023042700E+02 -0.22522927557E+02  0.47465853166E+03  0.47792400528E+03  0.00000000000E+00 0. -1.
         21    1    1    2  505  504  0.72615814125E+01  0.50146977799E+02  0.79501190179E+02  0.94275602288E+02  0.00000000000E+00 0.  1.
          2    1    1    2  501    0 -0.74008371150E+02 -0.26993301188E+02  0.49355902758E+01  0.78931852637E+02  0.00000000000E+00 0.  1.
<scales pt_clust_3="75.94131" pt_clust_4="54.78057" pt_clust_5="50.67001" pt_clust_6="14000.00000"></scales>
<clustering>
<clus scale="   50.670">  2  5  1 -1</clus>
<clus scale="   54.781">  1  4  2 -1</clus>
<clus scale="   75.941">  1  3  2 -1</clus>
<clus scale="   54.781">  1  3  2 -1</clus>
</clustering>
</event>
<event>
 6    0  0.3584505E+002  0.7466766E+02  0.7546771E-02  0.1344903E+00
         21   -1    0    0  503  502  0.00000000000E+00  0.00000000000E+00  0.24962991417E+02  0.24962991417E+02  0.00000000000E+00 0.  1.
         -4   -1    0    0    0  501 -0.00000000000E+00 -0.00000000000E+00 -0.11326911263E+04  0.11326911263E+04  0.00000000000E+00 0. -1.
         21    1    1    2  503  505 -0.45463631500E+02 -0.44372842302E+02 -0.71702876640E+02  0.95797669291E+02  0.00000000000E+00 0.  1.
         21    1    1    2  504  501  0.63294828992E+02 -0.21244179763E+02 -0.35219976547E+03  0.35847207053E+03  0.00000000000E+00 0. -1.
         21    1    1    2  505  504 -0.75464063541E+02  0.82499681153E+01 -0.22643194584E+03  0.23881857750E+03  0.00000000000E+00 0.  1.
         -4    1    1    2    0  502  0.57632866048E+02  0.57367053949E+02 -0.45739354689E+03  0.46456580036E+03  0.00000000000E+00 0. -1.
<scales pt_clust_3="63.52866" pt_clust_4="61.28480" pt_clust_5="74.66766" pt_clust_6="14000.00000"></scales>
<clustering>
<clus scale="   63.529">  1  3  2 -1</clus>
<clus scale="   61.285">  2  4  1 -1</clus>
<clus scale="   74.668">  2  5  1 -1</clus>
<clus scale="   63.529">  1  3  2 -1</clus>
</clustering>
</event>
<event>
 6    0  0.3584505E+002  0.9584146E+02  0.7546771E-02  0.1289292E+00
          2   -1    0    0  503    0 -0.00000000000E+00  0.00000000000E+00  0.52747649274E+03  0.52747649274E+03  0.00000000000E+00 0. -1.
         21   -1    0    0  505  502  0.00000000000E+00 -0.00000000000E+00 -0.20218485156E+04  0.20218485156E+04  0.00000000000E+00 0.  1.
         21    1    1    2  503  504  0.90184605668E+01 -0.75256961165E+02 -0.38645411516E+02  0.85078849698E+02  0.00000000000E+00 0. -1.
         21    1    1    2  504  502  0.71969256619E+02  0.67510696187E+02 -0.18429315646E+04  0.18455714616E+04  0.00000000000E+00 0.  1.
         21    1    1    2  505  501 -0.41299426216E+02  0.14030083152E+02 -0.11078709246E+03  0.11906412429E+03  0.00000000000E+00 0.  1.
          2    1    1    2  501    0 -0.39688290970E+02 -0.62838181742E+01  0.49799204572E+03  0.49961057276E+03  0.00000000000E+00 0. -1.
<scales pt_clust_3="14000.00000" pt_clust_4="95.84146" pt_clust_5="48.82411" pt_clust_6="40.18267"></scales>
<clustering>
<clus scale="   40.183">  1  6  2 -1</clus>
<clus scale="   48.824">  1  5  2 -1</clus>
<clus scale="   95.841">  2  4  1 -1</clus>
<clus scale="   95.841">  2  3  1 -1</clus>
</clustering>
</event>
<event>
 6    0  0.3584505E+002  0.2284436E+03  0.7546771E-02  0.1127740E+00
          2   -1    0    0  504    0 -0.00000000000E+00  0.00000000000E+00  0.22308887607E+04  0.22308887607E+04  0.00000000000E+00 0.  1.
         21   -1    0    0  503  502  0.00000000000E+00 -0.00000000000E+00 -0.55010812600E+02  0.55010812600E+02  0.00000000000E+00 0. -1.
         21    1    1    2  503  501  0.19944136458E+03  0.10014405777E+03  0.40602270675E+03  0.46331428707E+03  0.00000000000E+00 0. -1.
         21    1    1    2  504  505 -0.20342321262E+03 -0.26207773295E+02  0.15339357335E+04  0.15475873757E+04  0.00000000000E+00 0.  1.
         21    1    1    2  505  502 -0.41902404301E+02 -0.69155754511E+02  0.85573697986E+02  0.11773354516E+03  0.00000000000E+00 0. -1.
          2    1    1    2  501    0  0.45884252343E+02 -0.47805299604E+01  0.15034580979E+03  0.15726436532E+03  0.00000000000E+00 0.  1.
<scales pt_clust_3="36.06748" pt_clust_4="214.22751" pt_clust_5="80.85994" pt_clust_6="36.06748"></scales>
<clustering>
<clus scale="   36.067">  3  6 -1 -1</clus>
<clus scale="   80.860">  2  5  1 -1</clus>
<clus scale="  214.228">  1  4  2 -1</clus>
<clus scale="   80.860">  2  3  1 -1</clus>
</clustering>
</event>
<event>
 6    0  0.3584505E+002  0.1434697E+03  0.7546771E-02  0.1208735E+00
         -4   -1    0    0    0  501 -0.00000000000E+00  0.00000000000E+00  0.53224580531E+03  0.53224580531E+03  0.00000000000E+00 0. -1.
         21   -1    0    0  505  502  0.00000000000E+00 -0.00000000000E+00 -0.13411933721E+03  0.13411933721E+03  0.00000000000E+00 0.  1.
         21    1    1    2  503  502  0.17840411937E+02  0.31035428329E+02 -0.49445386984E+01  0.36137606071E+02  0.00000000000E+00 0. -1.
         21    1    1    2  504  501  0.23396382044E+02 -0.31395741123E+02 -0.10767380187E+02  0.40608123935E+02  0.00000000000E+00 0.  1.
         21    1    1    2  505  504 -0.29950410788E+02 -0.12680721232E+03 -0.24925713193E+02  0.13265891368E+03  0.00000000000E+00 0.  1.
         -4    1    1    2    0  503 -0.11286383193E+02  0.12716752511E+03  0.43876410018E+03  0.45696049883E+03  0.00000000000E+00 0. -1.
<scales pt_clust_3="35.79774" pt_clust_4="33.23789" pt_clust_5="33.23789" pt_clust_6="130.02779"></scales>
<clustering>
<clus scale="   33.238">  4  5 -1 -1</clus>
<clus scale="   35.798">  2  3  1 -1</clus>
<clus scale="  130.028">  1  6  2 -1</clus>
<clus scale="   35.798">  2  3  1 -1</clus>
</clustering>
</event>
<event>
 6    0  0.3584505E+002  0.1337283E+03  0.7546771E-02  0.1222026E+00
          2   -1    0    0  503    0 -0.00000000000E+00  0.00000000000E+00  0.15458354444E+04  0.15458354444E+04  0.00000000000E+00 0.  1.
         21   -1    0    0  505  502  0.00000000000E+00 -0.00000000000E+00 -0.72033121799E+02  0.72033121799E+02  0.00000000000E+00 0.  1.
         21    1    1    2  503  504 -0.13126046834E+03 -0.58782470840E+02  0.57099083618E+02  0.15474170342E+03  0.00000000000E+00 0.  1.
         21    1    1    2  504  502  0.33655458188E+02 -0.27356349260E+02  0.38577613815E+02  0.58045602748E+02  0.00000000000E+00 0.  1.
         21    1    1    2  505  501  0.14217557041E+03  0.34749090061E+02  0.42431780553E+03  0.44885074598E+03  0.00000000000E+00 0.  1.
          2    1    1    2  501    0 -0.44570560266E+02  0.51389730038E+02  0.95380781966E+03  0.95623051407E+03  0.00000000000E+00 0.  1.
<scales pt_clust_3="133.72826" pt_clust_4="43.37119" pt_clust_5="14000.00000" pt_clust_6="67.19484"></scales>
<clustering>
<clus scale="   43.371">  2  4  1 -1</clus>
<clus scale="   67.195">  1  6  2 -1</clus>
<clus scale="  133.728">  2  3  1 -1</clus>
<clus scale="   43.371">  2  3  1 -1</clus>
</clustering>
</event>
<event>
 6    0  0.3584505E+002  0.1160306E+03  0.7546771E-02  0.1249793E+00
          2   -1    0    0  503    0 -0.00000000000E+00  0.00000000000E+00  0.67466697271E+03  0.67466697271E+03  0.00000000000E+00 0. -1.
         21   -1    0    0  504  502  0.00000000000E+00 -0.00000000000E+00 -0.16905464159E+04  0.16905464159E+04  0.00000000000E+00 0.  1.
         21    1    1    2  503  502  0.72426117091E+02  0.11668157440E+03 -0.19576464863E+03  0.23913161626E+03  0.00000000000E+00 0.  1.
         21    1    1    2  504  505 -0.98171581101E+02  0.39396852655E+02 -0.94152906323E+03  0.94745276835E+03  0.00000000000E+00 0.  1.
         21    1    1    2  505  501  0.19525563670E+02 -0.12292353340E+03 -0.52083204611E+03  0.53549739772E+03  0.00000000000E+00 0.  1.
          2    1    1    2  501    0  0.62199003396E+01 -0.33154893653E+02  0.64224631479E+03  0.64313160628E+03  0.00000000000E+00 0. -1.
<scales pt_clust_3="14000.00000" pt_clust_4="104.13672" pt_clust_5="116.03058" pt_clust_6="33.73328"></scales>
<clustering>
<clus scale="   33.733">  1  6  2 -1</clus>
<clus scale="  104.137">  2  4  1 -1</clus>
<clus scale="  116.031">  2  5  1 -1</clus>
<clus scale="  104.137">  2  3  1 -1</clus>
</clustering>
</event>
<event>
 6    0  0.3584505E+002  0.8512764E+02  0.7546771E-02  0.1315099E+00
         -1   -1    0    0    0  501 -0.00000000000E+00  0.00000000000E+00  0.10897310301E+04  0.10897310301E+04  0.00000000000E+00 0. -1.
         21   -1    0    0  504  502  0.00000000000E+00 -0.00000000000E+00 -0.33239340678E+02  0.33239340678E+02  0.00000000000E+00 0.  1.
         21    1    1    2  503  502  0.29490879719E+02  0.17371891507E+02  0.71992788186E+02  0.79714842733E+02  0.00000000000E+00 0.  1.
         21    1    1    2  504  501 -0.49003386886E+02 -0.17049862860E+01  0.36470951953E+02  0.61109485686E+02  0.00000000000E+00 0.  1.
         21    1    1    2  505  503  0.81812380580E+02 -0.68897043509E+02  0.17722339431E+03  0.20699806692E+03  0.00000000000E+00 0.  1.
         -1    1    1    2    0  505 -0.62299873414E+02  0.53230138288E+02  0.77080455494E+03  0.77514797540E+03  0.00000000000E+00 0. -1.
<scales pt_clust_3="34.22710" pt_clust_4="37.05935" pt_clust_5="14000.00000" pt_clust_6="85.12764"></scales>
<clustering>
<clus scale="   34.227">  2  3  1 -1</clus>
<clus scale="   37.059">  2  4  1 -1</clus>
<clus scale="   85.128">  1  6  2 -1</clus>
<clus scale="   34.227">  2  3  1 -1</clus>
</clustering>
</event>
<event>
 6    0  0.3584505E+002  0.6597306E+02  0.7546771E-02  0.1374348E+00
         -1   -1    0    0    0  501 -0.00000000000E+00  0.00000000000E+00  0.54130303020E+02  0.54130303020E+02  0.00000000000E+00 0.  1.
         21   -1    0    0  503  502  0.00000000000E+00 -0.00000000000E+00 -0.44833352062E+03  0.44833352062E+03  0.00000000000E+00 0.  1.
         21    1    1    2  503  501  0.35813681587E+02 -0.50055406456E+02 -0.25710692637E+03  0.26437120700E+03  0.00000000000E+00 0.  1.
         21    1    1    2  504  502 -0.54820822539E+01  0.10769647294E+03 -0.10197672806E+03  0.14841777716E+03  0.00000000000E+00 0.  1.
         21    1    1    2  505  504 -0.41009900723E+02 -0.27527975951E+02 -0.28570259746E+02  0.57060153866E+02  0.00000000000E+00 0. -1.
         -1    1    1    2    0  505  0.10678301389E+02 -0.30113090537E+02 -0.65493034193E+01  0.32614685611E+02  0.00000000000E+00 0.  1.
<scales pt_clust_3="14000.00000" pt_clust_4="65.97306" pt_clust_5="53.22894" pt_clust_6="31.95034"></scales>
<clustering>
<clus scale="   31.950">  1  6  2 -1</clus>
<clus scale="   53.229">  1  5  2 -1</clus>
<clus scale="   65.973">  1  4  2 -1</clus>
<clus scale="   65.973">  2  3  1 -1</clus>
</clustering>
</event>
<event>
 6    0  0.3584505E+002  0.9187506E+02  0.7546771E-02  0.1298373E+00
         -1   -1    0    0    0  501 -0.00000000000E+00  0.00000000000E+00  0.11097449501E+04  0.11097449501E+04  0.00000000000E+00 0.  1.
         21   -1    0    0  503  502  0.00000000000E+00 -0.00000000000E+00 -0.23551487469E+03  0.23551487469E+03  0.00000000000E+00 0.  1.
         21    1    1    2  503  504  0.33784794140E+02 -0.40800695454E+01 -0.40953340776E+02  0.53246928581E+02  0.00000000000E+00 0.  1.
         21    1    1    2  504  501 -0.55573014249E+01  0.36826086851E+02 -0.38603935327E+01  0.37442581510E+02  0.00000000000E+00 0.  1.
         21    1    1    2  505  502 -0.92731946373E+02  0.32733284814E+02 -0.15121100516E+03  0.18037585729E+03  0.00000000000E+00 0.  1.
         -1    1    1    2    0  505  0.64504453658E+02 -0.65479302120E+02  0.10702548148E+04  0.10741944574E+04  0.00000000000E+00 0.  1.
<scales pt_clust_3="34.03027" pt_clust_4="36.42611" pt_clust_5="91.87506" pt_clust_6="14000.00000"></scales>
<clustering>
<clus scale="   34.030">  2  3  1 -1</clus>
<clus scale="   36.426">  2  4  1 -1</clus>
<clus scale="   91.875">  2  5  1 -1</clus>
<clus scale="   34.030">  2  3  1 -1</clus>
</clustering>
</event>
<event>
 6    0  0.3584505E+002  0.1395254E+03  0.7546771E-02  0.1213969E+00
         21   -1    0    0  503  502  0.00000000000E+00  0.00000000000E+00  0.12370168301E+03  0.12370168301E+03  0.00000000000E+00 0. -1.
          3   -1    0    0  505    0 -0.00000000000E+00 -0.00000000000E+00 -0.30085800226E+04  0.30085800226E+04  0.00000000000E+00 0.  1.
         21    1    1    2  503  504 -0.11637025127E+03  0.11501955122E+03  0.11506977049E+02  0.16402421487E+03  0.00000000000E+00 0. -1.
         21    1    1    2  504  501  0.16319424371E+03 -0.11225173002E+02 -0.41192726870E+03  0.44321827623E+03  0.00000000000E+00 0. -1.
         21    1    1    2  505  502 -0.97576606616E+01 -0.81900416706E+02 -0.64517535313E+02  0.10471581810E+03  0.00000000000E+00 0. -1.
          3    1    1    2  501    0 -0.37066331773E+02 -0.21893961508E+02 -0.24199405126E+04  0.24203233964E+04  0.00000000000E+00 0.  1.
<scales pt_clust_3="14000.00000" pt_clust_4="139.52544" pt_clust_5="86.37660" pt_clust_6="43.04949"></scales>
<clustering>
<clus scale="   43.049">  2  6  1 -1</clus>
<clus scale="   86.377">  1  5  2 -1</clus>
<clus scale="  139.525">  2  4  1 -1</clus>
<clus scale="   86.377">  1  3  2 -1</clus>
</clustering>
</event>
<event>
 6    0  0.3584505E+002  0.5599859E+02  0.7546771E-02  0.1415435E+00
         21   -1    0    0  503  502  0.00000000000E+00  0.00000000000E+00  0.15058094058E+03  0.15058094058E+03  0.00000000000E+00 0.  1.
          2   -1    0    0  505    0 -0.00000000000E+00 -0.00000000000E+00 -0.22352946467E+04  0.22352946467E+04  0.00000000000E+00 0. -1.
         21    1    1    2  503  504 -0.10392429280E+02  0.39469682884E+02 -0.22607793902E+02  0.46658019658E+02  0.00000000000E+00 0.  1.
         21    1    1    2  504  501  0.69542238664E+02  0.74842943266E+02 -0.32538173548E+03  0.34104378443E+03  0.00000000000E+00 0. -1.
         21    1    1    2  505  502 -0.25877208569E+02 -0.72134377369E+02  0.11907098947E+03  0.14160119652E+03  0.00000000000E+00 0.  1.
          2    1    1    2  501    0 -0.33272600815E+02 -0.42178248781E+02 -0.18557951663E+04  0.18565725867E+04  0.00000000000E+00 0. -1.
<scales pt_clust_3="40.81493" pt_clust_4="55.99859" pt_clust_5="49.96578" pt_clust_6="14000.00000"></scales>
<clustering>
<clus scale="   40.815">  1  3  2 -1</clus>
<clus scale="   49.966">  1  5  2 -1</clus>
<clus scale="   55.999">  1  4  2 -1</clus>
<clus scale="   40.815">  1  3  2 -1</clus>
</clustering>
</event>
<event>
 6    0  0.3584505E+002  0.1230112E+03  0.7546771E-02  0.1238211E+00
          2   -1    0    0  504    0 -0.00000000000E+00  0.00000000000E+00  0.20041172893E+04  0.20041172893E+04  0.00000000000E+00 0. -1.
         21   -1    0    0  505  502  0.00000000000E+00 -0.00000000000E+00 -0.65435869115E+02  0.65435869115E+02  0.00000000000E+00 0. -1.
         21    1    1    2  503  501 -0.43814296303E+02 -0.84676716579E+02  0.23907839991E+03  0.25738749036E+03  0.00000000000E+00 0. -1.
         21    1    1    2  504  502  0.73560255338E+02  0.13021282336E+03  0.20660950044E+03  0.25505680976E+03  0.00000000000E+00 0. -1.
         21    1    1    2  505  503  0.30716231741E+02 -0.23782979780E+02 -0.19350782938E+02  0.43400113133E+02  0.00000000000E+00 0. -1.
          2    1    1    2  501    0 -0.60462190777E+02 -0.21753127000E+02  0.15123443028E+04  0.15137087452E+04  0.00000000000E+00 0. -1.
<scales pt_clust_3="14000.00000" pt_clust_4="123.01123" pt_clust_5="38.84736" pt_clust_6="63.84206"></scales>
<clustering>
<clus scale="   38.847">  2  5  1 -1</clus>
<clus scale="   63.842">  1  6  2 -1</clus>
<clus scale="  123.011">  2  4  1 -1</clus>
<clus scale="   38.847">  2  3  1 -1</clus>
</clustering>
</event>
<event>
 6    0  0.3584505E+002  0.8000493E+02  0.7546771E-02  0.1329037E+00
         -3   -1    0    0    0  501 -0.00000000000E+00  0.00000000000E+00  0.60864730533E+03  0.60864730533E+03  0.00000000000E+00 0. -1.
         21   -1    0    0  503  502  0.00000000000E+00 -0.00000000000E+00 -0.24282357497E+03  0.24282357497E+03  0.00000000000E+00 0.  1.
         21    1    1    2  503  501  0.38775960704E+02  0.11603370183E+03 -0.76828385422E+02  0.14446451431E+03  0.00000000000E+00 0.  1.
         21    1    1    2  504  502  0.66059565739E+01 -0.47987530677E+02 -0.10965294070E+03  0.11987580726E+03  0.00000000000E+00 0.  1.
         21    1    1    2  505  504 -0.54206671521E+02 -0.32196483153E+02  0.42600436487E+02  0.76090564157E+02  0.00000000000E+00 0.  1.
         -3    1    1    2    0  505  0.88247542426E+01 -0.35849688001E+02  0.50970461998E+03  0.51103999457E+03  0.00000000000E+00 0. -1.
<scales pt_clust_3="14000.00000" pt_clust_4="50.35025" pt_clust_5="80.00493" pt_clust_6="36.91986"></scales>
<clustering>
<clus scale="   36.920">  1  6  2 -1</clus>
<clus scale="   50.350">  2  4  1 -1</clus>
<clus scale="   80.005">  1  5  2 -1</clus>
<clus scale="   50.350">  2  3  1 -1</clus>
</clustering>
</event>
<event>
 6    0  0.5360628E+002  0.9102561E+02  0.7546771E-02  0.1300387E+00
         21   -1    0    0  503  502  0.00000000000E+00  0.00000000000E+00  0.87683600422E+03  0.87683600422E+03  0.00000000000E+00 0. -1.
          2   -1    0    0  505    0 -0.00000000000E+00 -0.00000000000E+00 -0.30030498423E+04  0.30030498423E+04  0.00000000000E+00 0.  1.
         21    1    1    2  503  501  0.45218646886E+02  0.86251374309E+02  0.31292380866E+03  0.32772753260E+03  0.00000000000E+00 0.  1.
         21    1    1    2  504  502 -0.23087250316E+01  0.33016392235E+02  0.54583926660E+03  0.54684176627E+03  0.00000000000E+00 0. -1.
         21    1    1    2  505  504 -0.42736005556E+02 -0.28232010901E+02 -0.59855084173E+02  0.78778447000E+02  0.00000000000E+00 0.  1.
          2    1    1    2  501    0 -0.17391629808E+00 -0.91035755643E+02 -0.29251218292E+04  0.29265381006E+04  0.00000000000E+00 0.  1.
<scales pt_clust_3="91.02561" pt_clust_4="33.09701" pt_clust_5="50.76011" pt_clust_6="14000.00000"></scales>
<clustering>
<clus scale="   33.097">  1  4  2 -1</clus>
<clus scale="   50.760">  1  5  2 -1</clus>
<clus scale="   91.026">  1  3  2 -1</clus>
<clus scale="   33.097">  1  3  2 -1</clus>
</clustering>
</event>
<event>
 6    0  0.3584505E+002  0.1031653E+03  0.7546771E-02  0.1273777E+00
          2   -1    0    0  505    0 -0.00000000000E+00  0.00000000000E+00  0.28349655702E+03  0.28349655702E+03  0.00000000000E+00 0. -1.
         21   -1    0    0  504  502  0.00000000000E+00 -0.00000000000E+00 -0.10636875125E+03  0.10636875125E+03  0.00000000000E+00 0. -1.
         21    1    1    2  503  501  0.86932438731E+01 -0.34136749491E+02  0.61240394428E+02  0.70648963648E+02  0.00000000000E+00 0. -1.
         21    1    1    2  504  503 -0.12355392796E+03  0.38447611724E+00  0.36736654866E+02  0.12890035976E+03  0.00000000000E+00 0. -1.
         21    1    1    2  505  502  0.84567477223E+02  0.48399713478E+02 -0.71373876417E+01  0.97699195344E+02  0.00000000000E+00 0. -1.
          2    1    1    2  501    0  0.30293206863E+02 -0.14647440104E+02  0.86288144121E+02  0.92616789512E+02  0.00000000000E+00 0. -1.
<scales pt_clust_3="30.77016" pt_clust_4="103.16533" pt_clust_5="14000.00000" pt_clust_6="69.93595"></scales>
<clustering>
<clus scale="   30.770">  3  6 -1 -1</clus>
<clus scale="   69.936">  1  3  2 -1</clus>
<clus scale="  103.165">  1  4  2 -1</clus>
<clus scale="  103.165">  2  3  1 -1</clus>
</clustering>
</event>
<event>
 6    0  0.3584505E+002  0.8214203E+02  0.7546771E-02  0.1323080E+00
         21   -1    0    0  505  502  0.00000000000E+00  0.00000000000E+00  0.18690746070E+03  0.18690746070E+03  0.00000000000E+00 0. -1.
          2   -1    0    0  504    0 -0.00000000000E+00 -0.00000000000E+00 -0.34158382952E+03  0.34158382952E+03  0.00000000000E+00 0. -1.
         21    1    1    2  503  502 -0.82639310173E+02  0.39804332723E+01  0.70754066721E+02  0.10886338867E+03  0.00000000000E+00 0. -1.
         21    1    1    2  504  503 -0.24030687245E+02  0.52064417400E+02  0.29773737921E+02  0.64611554373E+02  0.00000000000E+00 0. -1.
         21    1    1    2  505  501  0.80099118725E+02 -0.15636095100E+02  0.12865753800E+02  0.82618907711E+02  0.00000000000E+00 0.  1.
          2    1    1    2  501    0  0.26570878694E+02 -0.40408755573E+02 -0.26806992727E+03  0.27239743947E+03  0.00000000000E+00 0. -1.
<scales pt_clust_3="14000.00000" pt_clust_4="45.70087" pt_clust_5="82.14203" pt_clust_6="48.36196"></scales>
<clustering>
<clus scale="   48.362">  2  6  1 -1</clus>
<clus scale="   45.701">  2  4  1 -1</clus>
<clus scale="   82.142">  2  5  1 -1</clus>
<clus scale="   82.142">  1  3  2 -1</clus>
</clustering>
</event>
<event>
 6    0  0.3584505E+002  0.1759445E+03  0.7546771E-02  0.1171787E+00
         21   -1    0    0  503  502  0.00000000000E+00  0.00000000000E+00  0.79516424302E+03  0.79516424302E+03  0.00000000000E+00 0.  1.
          1   -1    0    0  505    0 -0.00000000000E+00 -0.00000000000E+00 -0.31549637652E+03  0.31549637652E+03  0.00000000000E+00 0. -1.
         21    1    1    2  503  504 -0.34959930973E+02 -0.15327893313E+03  0.48186641941E+03  0.50686474948E+03  0.00000000000E+00 0.  1.
         21    1    1    2  504  501  0.19375037416E+03  0.44845850257E+02  0.20741103582E+03  0.28734943110E+03  0.00000000000E+00 0.  1.
         21    1    1    2  505  502 -0.45549078951E+02  0.39528642697E+01  0.11315559248E+02  0.47099741085E+02  0.00000000000E+00 0.  1.
          1    1    1    2  501    0 -0.11324136424E+03  0.10448021861E+03 -0.22092514797E+03  0.26934669788E+03  0.00000000000E+00 0. -1.
<scales pt_clust_3="157.49025" pt_clust_4="14000.00000" pt_clust_5="45.72028" pt_clust_6="175.94451"></scales>
<clustering>
<clus scale="   45.720">  2  5  1 -1</clus>
<clus scale="  157.490">  1  3  2 -1</clus>
<clus scale="  175.945">  2  6  1 -1</clus>
<clus scale="  157.490">  1  3  2 -1</clus>
</clustering>
</event>
<event>
 6    0  0.3584505E+002  0.1339740E+03  0.7546771E-02  0.1221675E+00
         -3   -1    0    0    0  501 -0.00000000000E+00  0.00000000000E+00  0.41465877575E+03  0.41465877575E+03  0.00000000000E+00 0.  1.
         21   -1    0    0  504  502  0.00000000000E+00 -0.00000000000E+00 -0.12603932763E+04  0.12603932763E+04  0.00000000000E+00 0. -1.
         21    1    1    2  503  501 -0.16688004297E+03 -0.17959771214E+03 -0.84538970131E+03  0.88022044627E+03  0.00000000000E+00 0. -1.
         21    1    1    2  504  503  0.61625769356E+02  0.10102954191E+03 -0.36850775804E+03  0.38704350082E+03  0.00000000000E+00 0.  1.
         21    1    1    2  505  502  0.12642034346E+03  0.55007349306E+02  0.25046450550E+03  0.28590274611E+03  0.00000000000E+00 0. -1.
         -3    1    1    2    0  505 -0.21166069848E+02  0.23560820931E+02  0.11769845330E+03  0.12188535886E+03  0.00000000000E+00 0.  1.
<scales pt_clust_3="133.97398" pt_clust_4="118.63107" pt_clust_5="14000.00000" pt_clust_6="31.67199"></scales>
<clustering>
<clus scale="   31.672">  1  6  2 -1</clus>
<clus scale="  118.631">  2  4  1 -1</clus>
<clus scale="  133.974">  2  3  1 -1</clus>
<clus scale="  118.631">  2  3  1 -1</clus>
</clustering>
</event>
<event>
 6    0  0.3584505E+002  0.1073219E+03  0.7546771E-02  0.1265611E+00
         21   -1    0    0  505  502  0.00000000000E+00  0.00000000000E+00  0.23016374804E+03  0.23016374804E+03  0.00000000000E+00 0. -1.
         -3   -1    0    0    0  501 -0.00000000000E+00 -0.00000000000E+00 -0.71311644195E+03  0.71311644195E+03  0.00000000000E+00 0.  1.
         21    1    1    2  503  502  0.24631675966E+02  0.10230030612E+03  0.13533867115E+03  0.17143111736E+03  0.00000000000E+00 0. -1.
         21    1    1    2  504  501 -0.18311894906E+02  0.48257456251E+02 -0.84730954084E+01  0.52305840254E+02  0.00000000000E+00 0. -1.
         21    1    1    2  505  504  0.20744547026E+02 -0.46641402175E+02  0.37524193111E+02  0.63354729080E+02  0.00000000000E+00 0.  1.
         -3    1    1    2    0  503 -0.27064328086E+02 -0.10391636019E+03 -0.64734246276E+03  0.65618850330E+03  0.00000000000E+00 0.  1.
<scales pt_clust_3="14000.00000" pt_clust_4="45.40117" pt_clust_5="51.04661" pt_clust_6="107.32190"></scales>
<clustering>
<clus scale="   51.047">  1  5  2 -1</clus>
<clus scale="   45.401">  1  4  2 -1</clus>
<clus scale="  107.322">  2  6  1 -1</clus>
<clus scale="   51.047">  1  3  2 -1</clus>
</clustering>
</event>
<event>
 6    0  0.3584505E+002  0.1342633E+03  0.7546771E-02  0.1221263E+00
         21   -1    0    0  503  502  0.00000000000E+00  0.00000000000E+00  0.23512888188E+03  0.23512888188E+03  0.00000000000E+00 0. -1.
          2   -1    0    0  504    0 -0.00000000000E+00 -0.00000000000E+00 -0.19118319251E+04  0.19118319251E+04  0.00000000000E+00 0. -1.
         21    1    1    2  503  501  0.29827792350E+02  0.13707838771E+02  0.59563117899E+02  0.68010051126E+02  0.00000000000E+00 0. -1.
         21    1    1    2  504  505 -0.42879808721E+01  0.99045226001E+02  0.11918674660E+03  0.15502846235E+03  0.00000000000E+00 0. -1.
         21    1    1    2  505  502 -0.98392792405E+02  0.10818092335E+01 -0.44602838724E+02  0.10803575857E+03  0.00000000000E+00 0. -1.
          2    1    1    2  501    0  0.72852980927E+02 -0.11383487401E+03 -0.18108500690E+04  0.18158865349E+04  0.00000000000E+00 0. -1.
<scales pt_clust_3="32.82685" pt_clust_4="134.26327" pt_clust_5="92.94199" pt_clust_6="14000.00000"></scales>
<clustering>
<clus scale="   32.827">  1  3  2 -1</clus>
<clus scale="   92.942">  1  5  2 -1</clus>
<clus scale="  134.263">  1  4  2 -1</clus>
<clus scale="   32.827">  1  3  2 -1</clus>
</clustering>
</event>
<event>
 6    0  0.3584505E+002  0.9175746E+02  0.7546771E-02  0.1298651E+00
         21   -1    0    0  504  502  0.00000000000E+00  0.00000000000E+00  0.11500681126E+03  0.11500681126E+03  0.00000000000E+00 0.  1.
          2   -1    0    0  503    0 -0.00000000000E+00 -0.00000000000E+00 -0.16136609803E+04  0.16136609803E+04  0.00000000000E+00 0. -1.
         21    1    1    2  503  502 -0.98050461787E+02  0.13979068221E+02 -0.38159692780E+03  0.39424043769E+03  0.00000000000E+00 0. -1.
         21    1    1    2  504  505  0.56614915751E+02  0.19112695192E+02  0.80357636861E+02  0.10013937090E+03  0.00000000000E+00 0.  1.
         21    1    1    2  505  501  0.36969475478E+02  0.62265096764E+02 -0.63351234207E+02  0.96213633481E+02  0.00000000000E+00 0.  1.
          2    1    1    2  501    0  0.44660705583E+01 -0.95356860177E+02 -0.11340636439E+04  0.11380743495E+04  0.00000000000E+00 0. -1.
<scales pt_clust_3="85.69545" pt_clust_4="59.75403" pt_clust_5="14000.00000" pt_clust_6="91.75746"></scales>
<clustering>
<clus scale="   59.754">  1  4  2 -1</clus>
<clus scale="   85.695">  1  3  2 -1</clus>
<clus scale="   91.757">  2  6  1 -1</clus>
<clus scale="   59.754">  1  3  2 -1</clus>
</clustering>
</event>
<event>
 6    0  0.3584505E+002  0.7498182E+02  0.7546771E-02  0.1343927E+00
         21   -1    0    0  503  502  0.00000000000E+00  0.00000000000E+00  0.27714803219E+03  0.27714803219E+03  0.00000000000E+00 0.  1.
         -2   -1    0    0    0  501 -0.00000000000E+00 -0.00000000000E+00 -0.22871191879E+03  0.22871191879E+03  0.00000000000E+00 0.  1.
         21    1    1    2  503  505  0.60359831477E+02  0.28920362425E+02  0.54374217305E+02  0.86233706439E+02  0.00000000000E+00 0.  1.
         21    1    1    2  504  502 -0.84542875548E+02  0.24917915279E+02  0.17334245070E+03  0.19446337836E+03  0.00000000000E+00 0.  1.
         21    1    1    2  505  501 -0.38123687518E+02 -0.23565905453E+02 -0.15649195546E+02  0.47472779263E+02  0.00000000000E+00 0.  1.
         -2    1    1    2    0  504  0.62306731589E+02 -0.30272372252E+02 -0.16363135906E+03  0.17769008692E+03  0.00000000000E+00 0.  1.
<scales pt_clust_3="74.98182" pt_clust_4="14000.00000" pt_clust_5="44.81928" pt_clust_6="58.53589"></scales>
<clustering>
<clus scale="   44.819">  2  5  1 -1</clus>
<clus scale="   58.536">  2  6  1 -1</clus>
<clus scale="   74.982">  2  3  1 -1</clus>
<clus scale="   74.982">  1  3  2 -1</clus>
</clustering>
</event>
<event>
 6    0  0.3584505E+002  0.1168566E+03  0.7546771E-02  0.1248375E+00
         21   -1    0    0  504  502  0.00000000000E+00  0.00000000000E+00  0.99189244209E+02  0.99189244209E+02  0.00000000000E+00 0.  1.
          3   -1    0    0  503    0 -0.00000000000E+00 -0.00000000000E+00 -0.18325357839E+04  0.18325357839E+04  0.00000000000E+00 0. -1.
         21    1    1    2  503  505 -0.50934378764E+02  0.23754682408E+01 -0.23434038906E+03  0.23982362630E+03  0.00000000000E+00 0. -1.
         21    1    1    2  504  501  0.47078719347E+02  0.10303121025E+03 -0.25945631411E+02  0.11621106612E+03  0.00000000000E+00 0.  1.
         21    1    1    2  505  502  0.49216121388E+02 -0.29830197440E+02  0.33475243750E+02  0.66578218870E+02  0.00000000000E+00 0.  1.
          3    1    1    2  501    0 -0.45360461972E+02 -0.75576481047E+02 -0.15065357630E+04  0.15091121168E+04  0.00000000000E+00 0. -1.
<scales pt_clust_3="50.98974" pt_clust_4="14000.00000" pt_clust_5="57.08647" pt_clust_6="116.85656"></scales>
<clustering>
<clus scale="   50.990">  2  3  1 -1</clus>
<clus scale="   57.086">  1  5  2 -1</clus>
<clus scale="  116.857">  2  6  1 -1</clus>
<clus scale="   57.086">  1  3  2 -1</clus>
</clustering>
</event>
<event>
 6    0  0.3584505E+002  0.1036789E+03  0.7546771E-02  0.1272745E+00
         21   -1    0    0  504  502  0.00000000000E+00  0.00000000000E+00  0.13113004821E+04  0.13113004821E+04  0.00000000000E+00 0.  1.
         -1   -1    0    0    0  501 -0.00000000000E+00 -0.00000000000E+00 -0.38352525022E+02  0.38352525022E+02  0.00000000000E+00 0. -1.
         21    1    1    2  503  505 -0.62496537374E+01  0.39255319852E+02  0.51020270559E+02  0.64676938057E+02  0.00000000000E+00 0. -1.
         21    1    1    2  504  501  0.62523963687E+02 -0.10640576870E+03  0.55823751842E+03  0.57171720336E+03  0.00000000000E+00 0. -1.
         21    1    1    2  505  502 -0.29427127536E+02  0.90097684985E+02  0.67060545514E+03  0.67727042246E+03  0.00000000000E+00 0.  1.
         -1    1    1    2    0  503 -0.26847182414E+02 -0.22947236138E+02 -0.69152870675E+01  0.35988443217E+02  0.00000000000E+00 0. -1.
<scales pt_clust_3="34.51574" pt_clust_4="14000.00000" pt_clust_5="103.67885" pt_clust_6="35.31780"></scales>
<clustering>
<clus scale="   35.318">  2  6  1 -1</clus>
<clus scale="   34.516">  2  3  1 -1</clus>
<clus scale="  103.679">  1  5  2 -1</clus>
<clus scale="  103.679">  1  3  2 -1</clus>
</clustering>
</event>
<event>
 6    0  0.3584505E+002  0.6388648E+02  0.7546771E-02  0.1382210E+00
         21   -1    0    0  504  502  0.00000000000E+00  0.00000000000E+00  0.66095011652E+02  0.66095011652E+02  0.00000000000E+00 0. -1.
         -4   -1    0    0    0  501 -0.00000000000E+00 -0.00000000000E+00 -0.20310553102E+04  0.20310553102E+04  0.00000000000E+00 0.  1.
         21    1    1    2  503  505  0.54559318510E+02 -0.32112520136E+01 -0.17728374259E+03  0.18551699858E+03  0.00000000000E+00 0. -1.
         21    1    1    2  504  503 -0.21322987385E+02 -0.31852787806E+02  0.44094709145E+02  0.58426135048E+02  0.00000000000E+00 0. -1.
         21    1    1    2  505  501 -0.93341845421E+02  0.17598604096E+02 -0.21292296139E+03  0.23314930508E+03  0.00000000000E+00 0. -1.
         -4    1    1    2    0  502  0.60105514296E+02  0.17465435724E+02 -0.16188483037E+04  0.16200578831E+04  0.00000000000E+00 0.  1.
<scales pt_clust_3="50.11259" pt_clust_4="38.33106" pt_clust_5="63.88648" pt_clust_6="14000.00000"></scales>
<clustering>
<clus scale="   38.331">  1  4  2 -1</clus>
<clus scale="   50.113">  1  3  2 -1</clus>
<clus scale="   63.886">  1  5  2 -1</clus>
<clus scale="   38.331">  1  3  2 -1</clus>
</clustering>
</event>
<event>
 6    0  0.3584505E+002  0.6150081E+02  0.7546771E-02  0.1391639E+00
         21   -1    0    0  503  502  0.00000000000E+00  0.00000000000E+00  0.69269540818E+02  0.69269540818E+02  0.00000000000E+00 0. -1.
          2   -1    0    0  504    0 -0.00000000000E+00 -0.00000000000E+00 -0.17104985569E+04  0.17104985569E+04  0.00000000000E+00 0. -1.
         21    1    1    2  503  501  0.68766308291E+02 -0.12958848755E+02 -0.60529485018E+01  0.70237989028E+02  0.00000000000E+00 0. -1.
         21    1    1    2  504  505 -0.91492840872E+02 -0.39329117805E+02 -0.62147626626E+03  0.62940485298E+03  0.00000000000E+00 0. -1.
         21    1    1    2  505  502 -0.16718451498E+02  0.39749162972E+02  0.18624129284E+02  0.46971914684E+02  0.00000000000E+00 0. -1.
          2    1    1    2  501    0  0.39444984078E+02  0.12538803589E+02 -0.10323239306E+04  0.10331533411E+04  0.00000000000E+00 0. -1.
<scales pt_clust_3="61.50081" pt_clust_4="14000.00000" pt_clust_5="43.05248" pt_clust_6="41.38995"></scales>
<clustering>
<clus scale="   41.390">  2  6  1 -1</clus>
<clus scale="   43.052">  1  5  2 -1</clus>
<clus scale="   61.501">  1  3  2 -1</clus>
<clus scale="   43.052">  1  3  2 -1</clus>
</clustering>
</event>
<event>
 6    0  0.3584505E+002  0.9373812E+02  0.7546771E-02  0.1294044E+00
         -2   -1    0    0    0  501 -0.00000000000E+00  0.00000000000E+00  0.13217684573E+03  0.13217684573E+03  0.00000000000E+00 0.  1.
         21   -1    0    0  505  502  0.00000000000E+00 -0.00000000000E+00 -0.26365250048E+03  0.26365250048E+03  0.00000000000E+00 0.  1.
         21    1    1    2  503  502 -0.30895287693E+02  0.10846242186E+02 -0.18752462206E+02  0.37733468035E+02  0.00000000000E+00 0.  1.
         21    1    1    2  504  503  0.48569565416E+02  0.53333584886E+02  0.18928128131E+02  0.74577127834E+02  0.00000000000E+00 0.  1.
         21    1    1    2  505  501 -0.75541865693E+02 -0.47448725196E+02 -0.18350333733E+03  0.20403781464E+03  0.00000000000E+00 0.  1.
         -2    1    1    2    0  504  0.57867587970E+02 -0.16731101875E+02  0.51852016657E+02  0.79480935694E+02  0.00000000000E+00 0.  1.
<scales pt_clust_3="32.74385" pt_clust_4="14000.00000" pt_clust_5="93.73812" pt_clust_6="58.31939"></scales>
<clustering>
<clus scale="   32.744">  2  3  1 -1</clus>
<clus scale="   58.319">  1  6  2 -1</clus>
<clus scale="   93.738">  2  5  1 -1</clus>
<clus scale="   32.744">  2  3  1 -1</clus>
</clustering>
</event>
<event>
 6    0  0.3584505E+002  0.1868907E+03  0.7546771E-02  0.1161296E+00
         21   -1    0    0  505  502  0.00000000000E+00  0.00000000000E+00  0.13100527806E+03  0.13100527806E+03  0.00000000000E+00 0.  1.
          1   -1    0    0  503    0 -0.00000000000E+00 -0.00000000000E+00 -0.12101458171E+04  0.12101458171E+04  0.00000000000E+00 0. -1.
         21    1    1    2  503  502 -0.60028154201E+02  0.19948257308E+03 -0.54999520656E+03  0.58812532975E+03  0.00000000000E+00 0.  1.
         21    1    1    2  504  501  0.49686122138E+02  0.62895248397E+01 -0.65178758661E+02  0.82198171734E+02  0.00000000000E+00 0.  1.
         21    1    1    2  505  504 -0.11434620376E+02 -0.18502819685E+03  0.19520407367E+02  0.18640609023E+03  0.00000000000E+00 0.  1.
          1    1    1    2  501    0  0.21776652438E+02 -0.20743901069E+02 -0.48348698120E+03  0.48442150346E+03  0.00000000000E+00 0. -1.
<scales pt_clust_3="186.89074" pt_clust_4="52.06429" pt_clust_5="14000.00000" pt_clust_6="30.07544"></scales>
<clustering>
<clus scale="   30.075">  2  6  1 -1</clus>
<clus scale="   52.064">  2  4  1 -1</clus>
<clus scale="  186.891">  2  3  1 -1</clus>
<clus scale="  186.891">  1  3  2 -1</clus>
</clustering>
</event>
<event>
 6    0  0.3584505E+002  0.8383227E+02  0.7546771E-02  0.1318515E+00
         21   -1    0    0  503  502  0.00000000000E+00  0.00000000000E+00  0.22014168708E+04  0.22014168708E+04  0.00000000000E+00 0. -1.
         -1   -1    0    0    0  501 -0.00000000000E+00 -0.00000000000E+00 -0.25210762151E+03  0.25210762151E+03  0.00000000000E+00 0. -1.
         21    1    1    2  503  501 -0.81715033159E+02  0.65855209894E+01  0.91220224985E+02  0.12264520038E+03  0.00000000000E+00 0.  1.
         21    1    1    2  504  505  0.93396698382E+01  0.50287298245E+02  0.20959949554E+03  0.21574983274E+03  0.00000000000E+00 0.  1.
         21    1    1    2  505  502  0.27052122096E+02  0.16611278716E+02  0.18736834343E+04  0.18739523376E+04  0.00000000000E+00 0. -1.
         -1    1    1    2    0  504  0.45323241224E+02 -0.73484097951E+02 -0.22519390554E+03  0.24117712151E+03  0.00000000000E+00 0. -1.
<scales pt_clust_3="83.83227" pt_clust_4="66.73375" pt_clust_5="31.74511" pt_clust_6="14000.00000"></scales>
<clustering>
<clus scale="   31.745">  1  5  2 -1</clus>
<clus scale="   66.734">  1  4  2 -1</clus>
<clus scale="   83.832">  1  3  2 -1</clus>
<clus scale="   31.745">  1  3  2 -1</clus>
</clustering>
</event>
<event>
 6    0  0.3584505E+002  0.7011187E+02  0.7546771E-02  0.1359713E+00
         21   -1    0    0  503  502  0.00000000000E+00  0.00000000000E+00  0.27066466011E+03  0.27066466011E+03  0.00000000000E+00 0. -1.
          1   -1    0    0  504    0 -0.00000000000E+00 -0.00000000000E+00 -0.15369067987E+04  0.15369067987E+04  0.00000000000E+00 0. -1.
         21    1    1    2  503  505  0.58926750526E+01 -0.43149157639E+02  0.12365652571E+03  0.13110114330E+03  0.00000000000E+00 0. -1.
         21    1    1    2  504  502  0.23673101497E+02  0.95228309070E+02 -0.34933300476E+03  0.36285313117E+03  0.00000000000E+00 0. -1.
         21    1    1    2  505  501 -0.65874554566E+02  0.50039186550E+01  0.12749722799E+03  0.14359679414E+03  0.00000000000E+00 0. -1.
          1    1    1    2  501    0  0.36308778017E+02 -0.57083070085E+02 -0.11680628875E+04  0.11700203902E+04  0.00000000000E+00 0. -1.
<scales pt_clust_3="43.54967" pt_clust_4="70.11187" pt_clust_5="14000.00000" pt_clust_6="67.92249"></scales>
<clustering>
<clus scale="   43.550">  1  3  2 -1</clus>
<clus scale="   67.922">  2  6  1 -1</clus>
<clus scale="   70.112">  2  4  1 -1</clus>
<clus scale="   43.550">  1  3  2 -1</clus>
</clustering>
</event>
<event>
 6    0  0.3584505E+002  0.8729052E+02  0.7546771E-02  0.1309549E+00
          2   -1    0    0  505    0 -0.00000000000E+00  0.00000000000E+00  0.75113365498E+03  0.75113365498E+03  0.00000000000E+00 0.  1.
         21   -1    0    0  504  502  0.00000000000E+00 -0.00000000000E+00 -0.10742598038E+04  0.10742598038E+04  0.00000000000E+00 0.  1.
         21    1    1    2  503  502  0.41039936463E+02 -0.47875250374E+01 -0.10113577846E+04  0.10122014450E+04  0.00000000000E+00 0.  1.
         21    1    1    2  504  501 -0.14991023685E+03  0.54107934161E+02  0.31812010140E+03  0.35581054870E+03  0.00000000000E+00 0.  1.
         21    1    1    2  505  503  0.52498157087E+02 -0.65057678386E+00 -0.22969869145E+02  0.57307020828E+02  0.00000000000E+00 0. -1.
          2    1    1    2  501    0  0.56372143296E+02 -0.48669832340E+02  0.39308140355E+03  0.40007444424E+03  0.00000000000E+00 0.  1.
<scales pt_clust_3="41.31824" pt_clust_4="87.29052" pt_clust_5="14000.00000" pt_clust_6="76.39983"></scales>
<clustering>
<clus scale="   41.318">  2  3  1 -1</clus>
<clus scale="   76.400">  1  6  2 -1</clus>
<clus scale="   87.291">  1  4  2 -1</clus>
<clus scale="   41.318">  2  3  1 -1</clus>
</clustering>
</event>
<event>
 6    0  0.3584505E+002  0.7585461E+02  0.7546771E-02  0.1341245E+00
         -1   -1    0    0    0  501 -0.00000000000E+00  0.00000000000E+00  0.55290955601E+03  0.55290955601E+03  0.00000000000E+00 0. -1.
         21   -1    0    0  505  502  0.00000000000E+00 -0.00000000000E+00 -0.18814384988E+03  0.18814384988E+03  0.00000000000E+00 0.  1.
         21    1    1    2  503  501  0.35692260142E+02  0.12152269998E+03  0.14891501880E+03  0.19549267728E+03  0.00000000000E+00 0.  1.
         21    1    1    2  504  502  0.14349341260E+02 -0.49367064688E+02  0.16067045543E+03  0.16869500858E+03  0.00000000000E+00 0.  1.
         21    1    1    2  505  503 -0.21374274897E+02 -0.46230480530E+02 -0.15500385422E+03  0.16315732218E+03  0.00000000000E+00 0.  1.
         -1    1    1    2    0  504 -0.28667326504E+02 -0.25925154766E+02  0.21018408612E+03  0.21370839786E+03  0.00000000000E+00 0. -1.
<scales pt_clust_3="14000.00000" pt_clust_4="75.85461" pt_clust_5="51.35799" pt_clust_6="38.65138"></scales>
<clustering>
<clus scale="   38.651">  1  6  2 -1</clus>
<clus scale="   51.358">  2  5  1 -1</clus>
<clus scale="   75.855">  1  4  2 -1</clus>
<clus scale="   51.358">  2  3  1 -1</clus>
</clustering>
</event>
<event>
 6    0  0.3584505E+002  0.9134745E+02  0.7546771E-02  0.1299621E+00
          2   -1    0    0  504    0 -0.00000000000E+00  0.00000000000E+00  0.10697495304E+04  0.10697495304E+04  0.00000000000E+00 0.  1.
         21   -1    0    0  503  502  0.00000000000E+00 -0.00000000000E+00 -0.20802798183E+04  0.20802798183E+04  0.00000000000E+00 0. -1.
         21    1    1    2  503  505 -0.74651564114E+02  0.52390155735E+02 -0.19109428916E+04  0.19131179575E+04  0.00000000000E+00 0. -1.
         21    1    1    2  504  502 -0.81137659521E+02 -0.26191002899E+02 -0.12617835287E+03  0.15228350258E+03  0.00000000000E+00 0.  1.
         21    1    1    2  505  501  0.13031183040E+03 -0.78010656377E+01  0.11946388676E+03  0.17695663313E+03  0.00000000000E+00 0.  1.
          2    1    1    2  501    0  0.25477393235E+02 -0.18398087199E+02  0.90712706982E+03  0.90767125546E+03  0.00000000000E+00 0.  1.
<scales pt_clust_3="91.34745" pt_clust_4="83.78998" pt_clust_5="14000.00000" pt_clust_6="31.42590"></scales>
<clustering>
<clus scale="   31.426">  1  6  2 -1</clus>
<clus scale="   83.790">  1  4  2 -1</clus>
<clus scale="   91.347">  2  3  1 -1</clus>
<clus scale="   91.347">  2  3  1 -1</clus>
</clustering>
</event>
<event>
 6    0  0.3584505E+002  0.5425285E+02  0.7546771E-02  0.1423666E+00
          2   -1    0    0  504    0 -0.00000000000E+00  0.00000000000E+00  0.10283647959E+04  0.10283647959E+04  0.00000000000E+00 0. -1.
         21   -1    0    0  505  502  0.00000000000E+00 -0.00000000000E+00 -0.17273655239E+03  0.17273655239E+03  0.00000000000E+00 0. -1.
         21    1    1    2  503  502  0.66066000925E+02  0.20294368165E+02  0.10745380019E+02  0.69943127248E+02  0.00000000000E+00 0. -1.
         21    1    1    2  504  503  0.53279924677E+02 -0.13290961101E+02  0.17830330718E+03  0.18656760001E+03  0.00000000000E+00 0. -1.
         21    1    1    2  505  501 -0.41106706688E+02  0.26756787184E+02 -0.13234149808E+03  0.14113808526E+03  0.00000000000E+00 0. -1.
          2    1    1    2  501    0 -0.78239218914E+02 -0.33760194248E+02  0.79892105436E+03  0.80345253574E+03  0.00000000000E+00 0. -1.
<scales pt_clust_3="54.25285" pt_clust_4="49.62487" pt_clust_5="49.04780" pt_clust_6="14000.00000"></scales>
<clustering>
<clus scale="   49.048">  2  5  1 -1</clus>
<clus scale="   49.625">  1  4  2 -1</clus>
<clus scale="   54.253">  2  3  1 -1</clus>
<clus scale="   49.048">  2  3  1 -1</clus>
</clustering>
</event>
<event>
 6    0  0.3584505E+002  0.7326925E+02  0.7546771E-02  0.1349316E+00
         21   -1    0    0  503  502  0.00000000000E+00  0.00000000000E+00  0.43343391165E+03  0.43343391165E+03  0.00000000000E+00 0. -1.
          1   -1    0    0  505    0 -0.00000000000E+00 -0.00000000000E+00 -0.20935079660E+04  0.20935079660E+04  0.00000000000E+00 0.  1.
         21    1    1    2  503  501  0.45705499761E+02 -0.92629135842E+01 -0.12048453303E+03  0.12919487984E+03  0.00000000000E+00 0.  1.
         21    1    1    2  504  502  0.46273022930E+02  0.20447763007E+00  0.41858196882E+03  0.42113192598E+03  0.00000000000E+00 0. -1.
         21    1    1    2  505  504 -0.62776427398E+02 -0.62061093066E+02 -0.22438192928E+03  0.24112177276E+03  0.00000000000E+00 0. -1.
          1    1    1    2  501    0 -0.29202095293E+02  0.71119529020E+02 -0.17337895609E+04  0.17354932991E+04  0.00000000000E+00 0.  1.
<scales pt_clust_3="61.24336" pt_clust_4="46.27347" pt_clust_5="73.26925" pt_clust_6="14000.00000"></scales>
<clustering>
<clus scale="   46.273">  1  4  2 -1</clus>
<clus scale="   61.243">  1  3  2 -1</clus>
<clus scale="   73.269">  1  5  2 -1</clus>
<clus scale="   46.273">  1  3  2 -1</clus>
</clustering>
</event>
<event>
 6    0  0.3584505E+002  0.8351191E+02  0.7546771E-02  0.1319371E+00
          1   -1    0    0  503    0 -0.00000000000E+00  0.00000000000E+00  0.40567565684E+03  0.40567565684E+03  0.00000000000E+00 0.  1.
         21   -1    0    0  504  502  0.00000000000E+00 -0.00000000000E+00 -0.38148324030E+03  0.38148324030E+03  0.00000000000E+00 0.  1.
         21    1    1    2  503  505 -0.86728426418E+02  0.18529431747E+02 -0.11714171757E+02  0.89456031712E+02  0.00000000000E+00 0.  1.
         21    1    1    2  504  501 -0.11436907452E+02 -0.76949401195E+02  0.17749236468E+02  0.79793787926E+02  0.00000000000E+00 0.  1.
         21    1    1    2  505  502  0.15353295033E+02  0.64466560857E+02 -0.29066256706E+03  0.29812143336E+03  0.00000000000E+00 0.  1.
          1    1    1    2  501    0  0.82812038836E+02 -0.60465914084E+01  0.30881991889E+03  0.31978764414E+03  0.00000000000E+00 0.  1.
<scales pt_clust_3="14000.00000" pt_clust_4="54.31500" pt_clust_5="66.26961" pt_clust_6="83.51191"></scales>
<clustering>
<clus scale="   66.270">  2  5  1 -1</clus>
<clus scale="   54.315">  2  4  1 -1</clus>
<clus scale="   83.512">  1  6  2 -1</clus>
<clus scale="   66.270">  2  3  1 -1</clus>
</clustering>
</event>
<event>
 6    0  0.3584505E+002  0.7441459E+02  0.7546771E-02  0.1345693E+00
          2   -1    0    0  504    0 -0.00000000000E+00  0.00000000000E+00  0.71445923778E+03  0.71445923778E+03  0.00000000000E+00 0. -1.
         21   -1    0    0  503  502  0.00000000000E+00 -0.00000000000E+00 -0.97240492999E+02  0.97240492999E+02  0.00000000000E+00 0. -1.
         21    1    1    2  503  505 -0.43558707004E+02 -0.63536856819E+02 -0.33977823678E+02  0.84194926404E+02  0.00000000000E+00 0. -1.
         21    1    1    2  504  502 -0.14998755558E+02  0.79722006795E+02  0.11699420377E+03  0.14236644532E+03  0.00000000000E+00 0.  1.
         21    1    1    2  505  501  0.50990073428E+02 -0.49925624652E+02  0.26290726569E+02  0.76051021615E+02  0.00000000000E+00 0. -1.
          2    1    1    2  501    0  0.75673891334E+01  0.33740474676E+02  0.50791163812E+03  0.50908733744E+03  0.00000000000E+00 0. -1.
<scales pt_clust_3="74.41459" pt_clust_4="14000.00000" pt_clust_5="67.23883" pt_clust_6="34.57868"></scales>
<clustering>
<clus scale="   34.579">  1  6  2 -1</clus>
<clus scale="   67.239">  1  5  2 -1</clus>
<clus scale="   74.415">  2  3  1 -1</clus>
<clus scale="   74.415">  2  3  1 -1</clus>
</clustering>
</event>
<event>
 6    0  0.3584505E+002  0.1046149E+03  0.7546771E-02  0.1270880E+00
          1   -1    0    0  504    0 -0.00000000000E+00  0.00000000000E+00  0.34805582868E+03  0.34805582868E+03  0.00000000000E+00 0. -1.
         21   -1    0    0  505  502  0.00000000000E+00 -0.00000000000E+00 -0.13576884795E+04  0.13576884795E+04  0.00000000000E+00 0.  1.
         21    1    1    2  503  501  0.53815914172E+02 -0.65462879123E+02 -0.22319272059E+03  0.23873946403E+03  0.00000000000E+00 0.  1.
         21    1    1    2  504  502  0.50782080810E+02  0.13817044245E+03 -0.93554721490E+03  0.94705780299E+03  0.00000000000E+00 0.  1.
         21    1    1    2  505  503 -0.55919489959E+02 -0.37866921876E+02 -0.17644968726E+03  0.18893222399E+03  0.00000000000E+00 0. -1.
          1    1    1    2  501    0 -0.48678505023E+02 -0.34840641448E+02  0.32555697197E+03  0.33101481711E+03  0.00000000000E+00 0. -1.
<scales pt_clust_3="86.42356" pt_clust_4="14000.00000" pt_clust_5="104.61487" pt_clust_6="59.86207"></scales>
<clustering>
<clus scale="   59.862">  1  6  2 -1</clus>
<clus scale="   86.424">  1  3  2 -1</clus>
<clus scale="  104.615">  1  5  2 -1</clus>
<clus scale="  104.615">  2  3  1 -1</clus>
</clustering>
</event>
<event>
 6    0  0.3584505E+002  0.1799653E+03  0.7546771E-02  0.1167837E+00
          1   -1    0    0  505    0 -0.00000000000E+00  0.00000000000E+00  0.15622763490E+04  0.15622763490E+04  0.00000000000E+00 0. -1.
         21   -1    0    0  501  502  0.00000000000E+00 -0.00000000000E+00 -0.35123043724E+03  0.35123043724E+03  0.00000000000E+00 0.  1.
         21    1    1    2  503  502  0.30693517460E+02  0.65153614228E+02 -0.18205746938E+03  0.19578561648E+03  0.00000000000E+00 0.  1.
         21    1    1    2  504  503 -0.15547097595E+02  0.10141270904E+03 -0.13167414021E+03  0.16692611839E+03  0.00000000000E+00 0.  1.
         21    1    1    2  505  504 -0.64275449150E+02 -0.12276594522E+03  0.38606065894E+03  0.41017757502E+03  0.00000000000E+00 0. -1.
          1    1    1    2  501    0  0.49129029285E+02 -0.43800378055E+02  0.11387168624E+04  0.11406174763E+04  0.00000000000E+00 0. -1.
<scales pt_clust_3="60.17627" pt_clust_4="60.17627" pt_clust_5="165.01207" pt_clust_6="65.81895"></scales>
<clustering>
<clus scale="   60.176">  3  4 -1 -1</clus>
<clus scale="   65.819">  1  6  2 -1</clus>
<clus scale="  165.012">  1  5  2 -1</clus>
<clus scale="  179.965">  2  3  1 -1</clus>
</clustering>
</event>
<event>
 6    0  0.3584505E+002  0.2151485E+03  0.7546771E-02  0.1137553E+00
          2   -1    0    0  505    0 -0.00000000000E+00  0.00000000000E+00  0.23008543563E+03  0.23008543563E+03  0.00000000000E+00 0. -1.
         21   -1    0    0  504  502  0.00000000000E+00 -0.00000000000E+00 -0.26360135894E+03  0.26360135894E+03  0.00000000000E+00 0. -1.
         21    1    1    2  503  502 -0.30191051742E+02 -0.12957390890E+03 -0.58605862612E+02  0.14538068856E+03  0.00000000000E+00 0. -1.
         21    1    1    2  504  501 -0.68962088676E+01  0.93204733274E+02  0.26936379461E+02  0.97263808994E+02  0.00000000000E+00 0. -1.
         21    1    1    2  505  503 -0.29314615537E+02 -0.61598068313E+02 -0.83077667476E+02  0.10749682571E+03  0.00000000000E+00 0. -1.
          2    1    1    2  501    0  0.66401876147E+02  0.97967243943E+02  0.81231227312E+02  0.14354547130E+03  0.00000000000E+00 0. -1.
<scales pt_clust_3="209.45838" pt_clust_4="69.97872" pt_clust_5="44.05472" pt_clust_6="69.97872"></scales>
<clustering>
<clus scale="   44.055">  3  5 -1 -1</clus>
<clus scale="   69.979">  4  6 -1 -1</clus>
<clus scale="  209.458">  2  3  1 -1</clus>
<clus scale="  209.458">  2  3  1 -1</clus>
</clustering>
</event>
<event>
 6    0  0.3584505E+002  0.1463219E+03  0.7546771E-02  0.1205067E+00
         -2   -1    0    0    0  501 -0.00000000000E+00  0.00000000000E+00  0.90888981706E+03  0.90888981706E+03  0.00000000000E+00 0.  1.
         21   -1    0    0  504  502  0.00000000000E+00 -0.00000000000E+00 -0.13756008189E+04  0.13756008189E+04  0.00000000000E+00 0. -1.
         21    1    1    2  503  502 -0.45498590734E+02 -0.97544125883E+02 -0.40846138553E+02  0.11512334814E+03  0.00000000000E+00 0.  1.
         21    1    1    2  504  501 -0.52047403212E+02 -0.25878437279E+02 -0.12857306013E+04  0.12870438240E+04  0.00000000000E+00 0. -1.
         21    1    1    2  505  503  0.11121454171E+03  0.76368732721E+02  0.45725589032E+03  0.47674291484E+03  0.00000000000E+00 0.  1.
         -2    1    1    2    0  505 -0.13668547759E+02  0.47053830441E+02  0.40260984777E+03  0.40558054894E+03  0.00000000000E+00 0.  1.
<scales pt_clust_3="146.32192" pt_clust_4="58.11465" pt_clust_5="14000.00000" pt_clust_6="48.99890"></scales>
<clustering>
<clus scale="   48.999">  1  6  2 -1</clus>
<clus scale="   58.115">  2  4  1 -1</clus>
<clus scale="  146.322">  2  3  1 -1</clus>
<clus scale="   58.115">  2  3  1 -1</clus>
</clustering>
</event>
<event>
 6    0  0.3584505E+002  0.8984428E+02  0.7546771E-02  0.1303229E+00
          1   -1    0    0  505    0 -0.00000000000E+00  0.00000000000E+00  0.16276228907E+04  0.16276228907E+04  0.00000000000E+00 0. -1.
         21   -1    0    0  504  502  0.00000000000E+00 -0.00000000000E+00 -0.29537515977E+02  0.29537515977E+02  0.00000000000E+00 0. -1.
         21    1    1    2  503  502  0.91431394069E+01  0.52729600274E+02  0.12645949144E+03  0.13731719018E+03  0.00000000000E+00 0. -1.
         21    1    1    2  504  501  0.85740257976E+02 -0.81638667325E+01  0.68597935801E+02  0.11010775338E+03  0.00000000000E+00 0. -1.
         21    1    1    2  505  503 -0.62046262202E+02  0.17805617562E+02  0.54287663156E+03  0.54670084668E+03  0.00000000000E+00 0. -1.
          1    1    1    2  501    0 -0.32837135181E+02 -0.62371351103E+02  0.86015131594E+03  0.86303461646E+03  0.00000000000E+00 0. -1.
<scales pt_clust_3="53.51642" pt_clust_4="89.84428" pt_clust_5="65.14397" pt_clust_6="14000.00000"></scales>
<clustering>
<clus scale="   53.516">  2  3  1 -1</clus>
<clus scale="   65.144">  1  5  2 -1</clus>
<clus scale="   89.844">  2  4  1 -1</clus>
<clus scale="   53.516">  2  3  1 -1</clus>
</clustering>
</event>
<event>
 6    0  0.3584505E+002  0.9384546E+02  0.7546771E-02  0.1293798E+00
          2   -1    0    0  503    0 -0.00000000000E+00  0.00000000000E+00  0.91908195874E+02  0.91908195874E+02  0.00000000000E+00 0. -1.
         21   -1    0    0  505  502  0.00000000000E+00 -0.00000000000E+00 -0.64547824787E+03  0.64547824787E+03  0.00000000000E+00 0. -1.
         21    1    1    2  503  504 -0.28294922727E+02 -0.84544543075E+02 -0.72303115147E+02  0.11478729405E+03  0.00000000000E+00 0. -1.
         21    1    1    2  504  502  0.70616101551E+02  0.38624349296E+02 -0.38196507701E+03  0.39035342219E+03  0.00000000000E+00 0. -1.
         21    1    1    2  505  501 -0.10038067527E+02  0.55109077498E+02 -0.15633561798E+03  0.16606805434E+03  0.00000000000E+00 0. -1.
          2    1    1    2  501    0 -0.32283111296E+02 -0.91888837200E+01  0.57033758138E+02  0.66177673171E+02  0.00000000000E+00 0. -1.
<scales pt_clust_3="14000.00000" pt_clust_4="93.84546" pt_clust_5="55.75184" pt_clust_6="33.56538"></scales>
<clustering>
<clus scale="   33.565">  1  6  2 -1</clus>
<clus scale="   55.752">  2  5  1 -1</clus>
<clus scale="   93.845">  2  4  1 -1</clus>
<clus scale="   55.752">  2  3  1 -1</clus>
</clustering>
</event>
<event>
 6    0  0.3584505E+002  0.6968997E+02  0.7546771E-02  0.1361151E+00
         21   -1    0    0  505  502  0.00000000000E+00  0.00000000000E+00  0.10056060606E+03  0.10056060606E+03  0.00000000000E+00 0.  1.
          1   -1    0    0  503    0 -0.00000000000E+00 -0.00000000000E+00 -0.41334336532E+04  0.41334336532E+04  0.00000000000E+00 0.  1.
         21    1    1    2  503  502 -0.16375356701E+02 -0.25941781474E+02 -0.16372328121E+04  0.16375202012E+04  0.00000000000E+00 0.  1.
         21    1    1    2  504  501 -0.90342356463E+02  0.66521574893E+02 -0.10273766810E+03  0.15212458625E+03  0.00000000000E+00 0. -1.
         21    1    1    2  505  504  0.28695899280E+02 -0.37148398330E+02  0.67740447217E+02  0.82414964194E+02  0.00000000000E+00 0.  1.
          1    1    1    2  501    0  0.78021813883E+02 -0.34313950884E+01 -0.23606430141E+04  0.23619345076E+04  0.00000000000E+00 0.  1.
<scales pt_clust_3="30.67781" pt_clust_4="14000.00000" pt_clust_5="46.97201" pt_clust_6="69.68997"></scales>
<clustering>
<clus scale="   30.678">  2  3  1 -1</clus>
<clus scale="   46.972">  1  5  2 -1</clus>
<clus scale="   69.690">  2  6  1 -1</clus>
<clus scale="   46.972">  1  3  2 -1</clus>
</clustering>
</event>
<event>
 6    0  0.3584505E+002  0.2370945E+03  0.7546771E-02  0.1121744E+00
         21   -1    0    0  501  502  0.00000000000E+00  0.00000000000E+00  0.53398657922E+03  0.53398657922E+03  0.00000000000E+00 0. -1.
          2   -1    0    0  503    0 -0.00000000000E+00 -0.00000000000E+00 -0.85685762657E+03  0.85685762657E+03  0.00000000000E+00 0.  1.
         21    1    1    2  503  504 -0.47637736506E+02 -0.10403580282E+03  0.12695634091E+03  0.17091142357E+03  0.00000000000E+00 0. -1.
         21    1    1    2  504  505 -0.12626120601E+03 -0.12663697746E+03  0.10174074226E+03  0.20574254503E+03  0.00000000000E+00 0. -1.
         21    1    1    2  505  502  0.14371189845E+03  0.12514155258E+03  0.18730914366E+03  0.26720447833E+03  0.00000000000E+00 0. -1.
          2    1    1    2  501    0  0.30187044063E+02  0.10553122770E+03 -0.73887727418E+03  0.74698575886E+03  0.00000000000E+00 0.  1.
<scales pt_clust_3="62.55236" pt_clust_4="62.55236" pt_clust_5="223.82741" pt_clust_6="109.76383"></scales>
<clustering>
<clus scale="   62.552">  3  4 -1 -1</clus>
<clus scale="  109.764">  2  6  1 -1</clus>
<clus scale="  223.827">  1  5  2 -1</clus>
<clus scale="  223.827">  1  3  2 -1</clus>
</clustering>
</event>
<event>
 6    0  0.3584505E+002  0.1053742E+03  0.7546771E-02  0.1269384E+00
          1   -1    0    0  505    0 -0.00000000000E+00  0.00000000000E+00  0.23568662728E+04  0.23568662728E+04  0.00000000000E+00 0.  1.
         21   -1    0    0  503  502  0.00000000000E+00 -0.00000000000E+00 -0.83763345718E+02  0.83763345718E+02  0.00000000000E+00 0.  1.
         21    1    1    2  503  501 -0.32800255375E+02  0.54296702698E+02 -0.13972759638E+02  0.64955574730E+02  0.00000000000E+00 0.  1.
         21    1    1    2  504  502  0.10964790076E+02 -0.12742508029E+03  0.87454161019E+02  0.15493743249E+03  0.00000000000E+00 0.  1.
         21    1    1    2  505  504 -0.84067568738E+02  0.38405022605E+02  0.22874643982E+03  0.24671286064E+03  0.00000000000E+00 0.  1.
          1    1    1    2  501    0  0.10590303404E+03  0.34723354986E+02  0.19708750859E+04  0.19740237507E+04  0.00000000000E+00 0.  1.
<scales pt_clust_3="63.43492" pt_clust_4="87.20271" pt_clust_5="14000.00000" pt_clust_6="105.37418"></scales>
<clustering>
<clus scale="   63.435">  2  3  1 -1</clus>
<clus scale="   87.203">  2  4  1 -1</clus>
<clus scale="  105.374">  1  6  2 -1</clus>
<clus scale="   63.435">  2  3  1 -1</clus>
</clustering>
</event>
<event>
 6    0  0.3584505E+002  0.3203537E+03  0.7546771E-02  0.1075487E+00
          2   -1    0    0  504    0 -0.00000000000E+00  0.00000000000E+00  0.47150992278E+04  0.47150992278E+04  0.00000000000E+00 0. -1.
         21   -1    0    0  501  502  0.00000000000E+00 -0.00000000000E+00 -0.55261914879E+03  0.55261914879E+03  0.00000000000E+00 0.  1.
         21    1    1    2  503  505 -0.38386375632E+03 -0.15538562981E+03  0.27984375649E+04  0.28289130213E+04  0.00000000000E+00 0. -1.
         21    1    1    2  504  503 -0.17962202483E+02 -0.39414634536E+02  0.22746335972E+03  0.23155071615E+03  0.00000000000E+00 0.  1.
         21    1    1    2  505  502  0.23500950326E+03  0.25133534268E+02 -0.50022293062E+03  0.55324871575E+03  0.00000000000E+00 0.  1.
          2    1    1    2  501    0  0.16681645555E+03  0.16966673007E+03  0.16368020849E+04  0.16540059233E+04  0.00000000000E+00 0. -1.
<scales pt_clust_3="33.84335" pt_clust_4="33.84335" pt_clust_5="236.34966" pt_clust_6="302.78021"></scales>
<clustering>
<clus scale="   33.843">  3  4 -1 -1</clus>
<clus scale="  236.350">  2  5  1 -1</clus>
<clus scale="  302.780">  1  6  2 -1</clus>
<clus scale="  236.350">  2  3  1 -1</clus>
</clustering>
</event>
<event>
 6    0  0.3584505E+002  0.5961043E+02  0.7546771E-02  0.1399474E+00
         21   -1    0    0  504  502  0.00000000000E+00  0.00000000000E+00  0.20029585583E+02  0.20029585583E+02  0.00000000000E+00 0. -1.
         -2   -1    0    0    0  501 -0.00000000000E+00 -0.00000000000E+00 -0.13155339113E+04  0.13155339113E+04  0.00000000000E+00 0. -1.
         21    1    1    2  503  502 -0.56581507343E+02 -0.24967160715E+02 -0.10237484196E+03  0.11960532745E+03  0.00000000000E+00 0. -1.
         21    1    1    2  504  505  0.31325850225E+02  0.41324473280E+02 -0.16628398285E+03  0.17418204252E+03  0.00000000000E+00 0. -1.
         21    1    1    2  505  501  0.74140473168E+02 -0.42611556629E+02 -0.27745281488E+03  0.29033191179E+03  0.00000000000E+00 0. -1.
         -2    1    1    2    0  503 -0.48884816051E+02  0.26254244065E+02 -0.74939268606E+03  0.75144421516E+03  0.00000000000E+00 0. -1.
<scales pt_clust_3="39.89882" pt_clust_4="51.85577" pt_clust_5="59.61043" pt_clust_6="14000.00000"></scales>
<clustering>
<clus scale="   51.856">  1  4  2 -1</clus>
<clus scale="   39.899">  1  3  2 -1</clus>
<clus scale="   59.610">  1  5  2 -1</clus>
<clus scale="   51.856">  1  3  2 -1</clus>
</clustering>
</event>
<event>
 6    0  0.3584505E+002  0.9842758E+02  0.7546771E-02  0.1283638E+00
         21   -1    0    0  504  502  0.00000000000E+00  0.00000000000E+00  0.15854130505E+03  0.15854130505E+03  0.00000000000E+00 0. -1.
          4   -1    0    0  503    0 -0.00000000000E+00 -0.00000000000E+00 -0.15446404972E+04  0.15446404972E+04  0.00000000000E+00 0. -1.
         21    1    1    2  503  505 -0.28405692084E+02 -0.72937650758E+02 -0.28322251260E+03  0.29383971121E+03  0.00000000000E+00 0.  1.
         21    1    1    2  504  501  0.44271034540E+02  0.17693688542E+02  0.10735840802E+03  0.11746837399E+03  0.00000000000E+00 0. -1.
         21    1    1    2  505  502  0.79707147846E+01 -0.55327143096E+02  0.17781866716E+02  0.58658501867E+02  0.00000000000E+00 0.  1.
          4    1    1    2  501    0 -0.23836057240E+02  0.11057110531E+03 -0.12280169543E+04  0.12332152152E+04  0.00000000000E+00 0. -1.
<scales pt_clust_3="14000.00000" pt_clust_4="47.67590" pt_clust_5="60.39546" pt_clust_6="98.42758"></scales>
<clustering>
<clus scale="   47.676">  1  4  2 -1</clus>
<clus scale="   60.395">  1  5  2 -1</clus>
<clus scale="   98.428">  2  6  1 -1</clus>
<clus scale="   47.676">  1  3  2 -1</clus>
</clustering>
</event>
<event>
 6    0  0.3584505E+002  0.1656769E+03  0.7546771E-02  0.1182433E+00
         21   -1    0    0  504  502  0.00000000000E+00  0.00000000000E+00  0.19064034225E+04  0.19064034225E+04  0.00000000000E+00 0. -1.
          2   -1    0    0  505    0 -0.00000000000E+00 -0.00000000000E+00 -0.74446838088E+03  0.74446838088E+03  0.00000000000E+00 0. -1.
         21    1    1    2  503  502 -0.32747831036E+02  0.10998101245E+02  0.51687975554E+02  0.62169329138E+02  0.00000000000E+00 0.  1.
         21    1    1    2  504  501 -0.11769469359E+03 -0.52826618110E+02  0.15648695558E+04  0.15701781489E+04  0.00000000000E+00 0. -1.
         21    1    1    2  505  503  0.27632587714E+03  0.11014656858E+03  0.19343289644E+03  0.35483030081E+03  0.00000000000E+00 0.  1.
          2    1    1    2  501    0 -0.12588335251E+03 -0.68318051711E+02 -0.64805538620E+03  0.66369402455E+03  0.00000000000E+00 0. -1.
<scales pt_clust_3="34.54531" pt_clust_4="14000.00000" pt_clust_5="165.67695" pt_clust_6="143.32655"></scales>
<clustering>
<clus scale="   34.545">  1  3  2 -1</clus>
<clus scale="  143.327">  2  6  1 -1</clus>
<clus scale="  165.677">  2  5  1 -1</clus>
<clus scale="   34.545">  1  3  2 -1</clus>
</clustering>
</event>
<event>
 6    0  0.3584505E+002  0.7472617E+02  0.7546771E-02  0.1344721E+00
          2   -1    0    0  504    0 -0.00000000000E+00  0.00000000000E+00  0.93627354746E+03  0.93627354746E+03  0.00000000000E+00 0. -1.
         21   -1    0    0  501  502  0.00000000000E+00 -0.00000000000E+00 -0.33012896089E+03  0.33012896089E+03  0.00000000000E+00 0. -1.
         21    1    1    2  503  505  0.12286065254E+03  0.50578179290E+02  0.95424880017E+02  0.16358117217E+03  0.00000000000E+00 0. -1.
         21    1    1    2  504  503 -0.27129130945E+02 -0.15215864658E+02  0.11618772982E+03  0.12027926190E+03  0.00000000000E+00 0. -1.
         21    1    1    2  505  502 -0.51883950874E+02 -0.32271895212E+02 -0.29011799522E+03  0.29648249650E+03  0.00000000000E+00 0. -1.
          2    1    1    2  501    0 -0.43847570723E+02 -0.30904194206E+01  0.68464997196E+03  0.68605957777E+03  0.00000000000E+00 0. -1.
<scales pt_clust_3="14000.00000" pt_clust_4="31.10486" pt_clust_5="61.22259" pt_clust_6="74.72617"></scales>
<clustering>
<clus scale="   31.105">  1  4  2 -1</clus>
<clus scale="   61.223">  2  5  1 -1</clus>
<clus scale="   74.726">  1  6  2 -1</clus>
<clus scale="   61.223">  2  3  1 -1</clus>
</clustering>
</event>
<event>
 6    0  0.3584505E+002  0.9708211E+02  0.7546771E-02  0.1286554E+00
          2   -1    0    0  505    0 -0.00000000000E+00  0.00000000000E+00  0.49161570575E+03  0.49161570575E+03  0.00000000000E+00 0.  1.
         21   -1    0    0  503  502  0.00000000000E+00 -0.00000000000E+00 -0.44960040237E+03  0.44960040237E+03  0.00000000000E+00 0. -1.
         21    1    1    2  503  501 -0.62068384962E+02  0.20702305577E+02 -0.78095816938E+01  0.65894305021E+02  0.00000000000E+00 0. -1.
         21    1    1    2  504  502  0.10467992284E+02  0.68824247381E+02 -0.34170645057E+03  0.34872575794E+03  0.00000000000E+00 0. -1.
         21    1    1    2  505  504  0.13240768839E+03 -0.35402908433E+02  0.15198890442E+02  0.13789912306E+03  0.00000000000E+00 0. -1.
          2    1    1    2  501    0 -0.80807295713E+02 -0.54123644525E+02  0.37633244520E+03  0.38869692210E+03  0.00000000000E+00 0.  1.
<scales pt_clust_3="65.42989" pt_clust_4="95.59116" pt_clust_5="97.08211" pt_clust_6="14000.00000"></scales>
<clustering>
<clus scale="   65.430">  2  3  1 -1</clus>
<clus scale="   95.591">  2  4  1 -1</clus>
<clus scale="   97.082">  2  5  1 -1</clus>
<clus scale="   65.430">  2  3  1 -1</clus>
</clustering>
</event>
<event>
 6    0  0.3584505E+002  0.4436617E+03  0.7546771E-02  0.1029629E+00
          1   -1    0    0  504    0 -0.00000000000E+00  0.00000000000E+00  0.34270283208E+04  0.34270283208E+04  0.00000000000E+00 0. -1.
         21   -1    0    0  505  502  0.00000000000E+00 -0.00000000000E+00 -0.17726770366E+03  0.17726770366E+03  0.00000000000E+00 0.  1.
         21    1    1    2  503  502  0.32230282043E+02 -0.87998271675E+02  0.57745718625E+02  0.11007749506E+03  0.00000000000E+00 0.  1.
         21    1    1    2  504  503 -0.44973837554E+03 -0.18311683683E+03  0.44979972313E+03  0.66190344710E+03  0.00000000000E+00 0.  1.
         21    1    1    2  505  501 -0.12156493452E+02  0.18942344927E+03  0.32935411109E+03  0.38013570467E+03  0.00000000000E+00 0.  1.
          1    1    1    2  501    0  0.42966458695E+03  0.81691659229E+02  0.24128610643E+04  0.24521793776E+04  0.00000000000E+00 0. -1.
<scales pt_clust_3="93.71492" pt_clust_4="14000.00000" pt_clust_5="174.76646" pt_clust_6="443.66169"></scales>
<clustering>
<clus scale="   93.715">  2  3  1 -1</clus>
<clus scale="  174.766">  2  5  1 -1</clus>
<clus scale="  443.662">  1  6  2 -1</clus>
<clus scale="   93.715">  2  3  1 -1</clus>
</clustering>
</event>
<event>
 6    0  0.3584505E+002  0.5953741E+02  0.7546771E-02  0.1399783E+00
         21   -1    0    0  505  502  0.00000000000E+00  0.00000000000E+00  0.98239546088E+03  0.98239546088E+03  0.00000000000E+00 0. -1.
          2   -1    0    0  504    0 -0.00000000000E+00 -0.00000000000E+00 -0.82047880969E+03  0.82047880969E+03  0.00000000000E+00 0.  1.
         21    1    1    2  503  501 -0.99389054186E+02 -0.82556349297E+01 -0.43689939825E+03  0.44813772860E+03  0.00000000000E+00 0. -1.
         21    1    1    2  504  502 -0.25193229611E+02 -0.31798689222E+02  0.32440803096E+02  0.51944789537E+02  0.00000000000E+00 0.  1.
         21    1    1    2  505  503  0.82410916290E+02  0.19645352035E+02  0.93116232847E+03  0.93500843896E+03  0.00000000000E+00 0. -1.
          2    1    1    2  501    0  0.42171367507E+02  0.20408972117E+02 -0.36478708212E+03  0.36778331346E+03  0.00000000000E+00 0.  1.
<scales pt_clust_3="59.53741" pt_clust_4="40.56914" pt_clust_5="14000.00000" pt_clust_6="46.79210"></scales>
<clustering>
<clus scale="   40.569">  1  4  2 -1</clus>
<clus scale="   46.792">  2  6  1 -1</clus>
<clus scale="   59.537">  2  3  1 -1</clus>
<clus scale="   40.569">  1  3  2 -1</clus>
</clustering>
</event>
<event>
 6    0  0.3584505E+002  0.1058708E+03  0.7546771E-02  0.1268413E+00
          1   -1    0    0  503    0 -0.00000000000E+00  0.00000000000E+00  0.26959720519E+04  0.26959720519E+04  0.00000000000E+00 0.  1.
         21   -1    0    0  504  502  0.00000000000E+00 -0.00000000000E+00 -0.20999955000E+02  0.20999955000E+02  0.00000000000E+00 0. -1.
         21    1    1    2  503  505 -0.45486177748E+02 -0.81581971557E+02  0.66789808312E+03  0.67439784985E+03  0.00000000000E+00 0. -1.
         21    1    1    2  504  501 -0.45706558571E+02 -0.10686869625E+02  0.26955861880E+02  0.54128709281E+02  0.00000000000E+00 0. -1.
         21    1    1    2  505  502  0.46644508487E+02 -0.11732603006E+02  0.24706997536E+03  0.25170803895E+03  0.00000000000E+00 0.  1.
          1    1    1    2  501    0  0.44548227833E+02  0.10400144419E+03  0.17330481766E+04  0.17367374089E+04  0.00000000000E+00 0.  1.
<scales pt_clust_3="105.87078" pt_clust_4="46.93931" pt_clust_5="35.68756" pt_clust_6="14000.00000"></scales>
<clustering>
<clus scale="   46.939">  2  4  1 -1</clus>
<clus scale="   35.688">  2  5  1 -1</clus>
<clus scale="  105.871">  2  3  1 -1</clus>
<clus scale="   46.939">  2  3  1 -1</clus>
</clustering>
</event>
<event>
 6    0  0.3584505E+002  0.8883769E+02  0.7546771E-02  0.1305691E+00
          2   -1    0    0  503    0 -0.00000000000E+00  0.00000000000E+00  0.86255645935E+03  0.86255645935E+03  0.00000000000E+00 0.  1.
         21   -1    0    0  505  502  0.00000000000E+00 -0.00000000000E+00 -0.46642178716E+02  0.46642178716E+02  0.00000000000E+00 0.  1.
         21    1    1    2  503  504 -0.10639314830E+03 -0.67606923890E+02  0.22510464869E+03  0.25799670739E+03  0.00000000000E+00 0.  1.
         21    1    1    2  504  502  0.30662492830E+02 -0.58055742493E+01 -0.12166769763E+02  0.33495125695E+02  0.00000000000E+00 0.  1.
         21    1    1    2  505  501  0.29745035687E+02  0.57982226187E+02  0.17067679596E+03  0.18269448372E+03  0.00000000000E+00 0.  1.
          2    1    1    2  501    0  0.45985619785E+02  0.15430271953E+02  0.43229960575E+03  0.43501232126E+03  0.00000000000E+00 0.  1.
<scales pt_clust_3="14000.00000" pt_clust_4="31.20726" pt_clust_5="88.83769" pt_clust_6="50.06360"></scales>
<clustering>
<clus scale="   31.207">  2  4  1 -1</clus>
<clus scale="   50.064">  1  6  2 -1</clus>
<clus scale="   88.838">  1  5  2 -1</clus>
<clus scale="   31.207">  2  3  1 -1</clus>
</clustering>
</event>
<event>
 6    0  0.3584505E+002  0.1172598E+03  0.7546771E-02  0.1247687E+00
         21   -1    0    0  504  502  0.00000000000E+00  0.00000000000E+00  0.22367581246E+03  0.22367581246E+03  0.00000000000E+00 0.  1.
          3   -1    0    0  505    0 -0.00000000000E+00 -0.00000000000E+00 -0.12652303513E+04  0.12652303513E+04  0.00000000000E+00 0. -1.
         21    1    1    2  503  502  0.30660685390E+02  0.13127215148E+03  0.18633213115E+03  0.22998286563E+03  0.00000000000E+00 0.  1.
         21    1    1    2  504  501 -0.35692008674E+02 -0.12721941541E+02 -0.24513273725E+02  0.45129456771E+02  0.00000000000E+00 0. -1.
         21    1    1    2  505  503 -0.34583397203E+02 -0.97840760905E+02 -0.61220718758E+03  0.62093998613E+03  0.00000000000E+00 0. -1.
          3    1    1    2  501    0  0.39614720487E+02 -0.20709449029E+02 -0.59116620865E+03  0.59285385519E+03  0.00000000000E+00 0. -1.
<scales pt_clust_3="117.25980" pt_clust_4="37.89152" pt_clust_5="14000.00000" pt_clust_6="44.59967"></scales>
<clustering>
<clus scale="   37.892">  1  4  2 -1</clus>
<clus scale="   44.600">  2  6  1 -1</clus>
<clus scale="  117.260">  1  3  2 -1</clus>
<clus scale="   37.892">  1  3  2 -1</clus>
</clustering>
</event>
<event>
 6    0  0.3584505E+002  0.1249142E+03  0.7546771E-02  0.1235203E+00
         21   -1    0    0  504  502  0.00000000000E+00  0.00000000000E+00  0.81374932010E+03  0.81374932010E+03  0.00000000000E+00 0. -1.
          2   -1    0    0  505    0 -0.00000000000E+00 -0.00000000000E+00 -0.31151368067E+03  0.31151368067E+03  0.00000000000E+00 0. -1.
         21    1    1    2  503  501  0.10771541689E+03  0.44714115797E+02 -0.11007985788E+03  0.16037312212E+03  0.00000000000E+00 0. -1.
         21    1    1    2  504  503 -0.64192305752E+02 -0.10065857055E+03  0.34881408035E+03  0.36867880681E+03  0.00000000000E+00 0. -1.
         21    1    1    2  505  502 -0.27922655721E+02  0.12807922165E+02  0.42613064295E+03  0.42723651814E+03  0.00000000000E+00 0. -1.
          2    1    1    2  501    0 -0.15600455422E+02  0.43136532585E+02 -0.16262922598E+03  0.16897455370E+03  0.00000000000E+00 0. -1.
<scales pt_clust_3="14000.00000" pt_clust_4="124.91416" pt_clust_5="30.71999" pt_clust_6="46.04776"></scales>
<clustering>
<clus scale="   30.720">  1  5  2 -1</clus>
<clus scale="   46.048">  2  6  1 -1</clus>
<clus scale="  124.914">  1  4  2 -1</clus>
<clus scale="   30.720">  1  3  2 -1</clus>
</clustering>
</event>
<event>
 6    0  0.3837235E+002  0.1773435E+03  0.7546771E-02  0.1170399E+00
         21   -1    0    0  505  502  0.00000000000E+00  0.00000000000E+00  0.34990957316E+03  0.34990957316E+03  0.00000000000E+00 0.  1.
          2   -1    0    0  504    0 -0.00000000000E+00 -0.00000000000E+00 -0.11610539129E+04  0.11610539129E+04  0.00000000000E+00 0.  1.
         21    1    1    2  503  502 -0.52391318004E+02  0.13532763730E+03  0.27402266453E+03  0.31007553966E+03  0.00000000000E+00 0.  1.
         21    1    1    2  504  503  0.22861066024E+02 -0.22265619931E+02 -0.40430876687E+02  0.51507688361E+02  0.00000000000E+00 0.  1.
         21    1    1    2  505  501  0.24834884170E+02  0.42197143353E+02  0.33941113586E+02  0.59576585756E+02  0.00000000000E+00 0.  1.
          2    1    1    2  501    0  0.46953678106E+01 -0.15525916072E+03 -0.10786772412E+04  0.10898036723E+04  0.00000000000E+00 0.  1.
<scales pt_clust_3="14000.00000" pt_clust_4="31.91216" pt_clust_5="48.87696" pt_clust_6="177.34351"></scales>
<clustering>
<clus scale="   31.912">  2  4  1 -1</clus>
<clus scale="   48.877">  1  5  2 -1</clus>
<clus scale="  177.344">  2  6  1 -1</clus>
<clus scale="   48.877">  1  3  2 -1</clus>
</clustering>
</event>
<event>
 6    0  0.3584505E+002  0.1900582E+03  0.7546771E-02  0.1158409E+00
         21   -1    0    0  505  502  0.00000000000E+00  0.00000000000E+00  0.12415850124E+04  0.12415850124E+04  0.00000000000E+00 0. -1.
         -2   -1    0    0    0  501 -0.00000000000E+00 -0.00000000000E+00 -0.12276370857E+03  0.12276370857E+03  0.00000000000E+00 0. -1.
         21    1    1    2  503  502 -0.12700520374E+02  0.57159247525E+02  0.58536901402E+03  0.58829020506E+03  0.00000000000E+00 0. -1.
         21    1    1    2  504  503  0.64273629472E+02 -0.21826369093E+03  0.33941667308E+03  0.40862429711E+03  0.00000000000E+00 0. -1.
         21    1    1    2  505  501 -0.39488551908E+01  0.16422687376E+03  0.24668186151E+03  0.29637476330E+03  0.00000000000E+00 0. -1.
         -2    1    1    2    0  504 -0.47624253907E+02 -0.31224303527E+01 -0.52646244755E+02  0.71059455517E+02  0.00000000000E+00 0. -1.
<scales pt_clust_3="58.73875" pt_clust_4="190.05817" pt_clust_5="14000.00000" pt_clust_6="47.72650"></scales>
<clustering>
<clus scale="   47.727">  2  6  1 -1</clus>
<clus scale="   58.739">  1  3  2 -1</clus>
<clus scale="  190.058">  1  4  2 -1</clus>
<clus scale="   58.739">  1  3  2 -1</clus>
</clustering>
</event>
<event>
 6    0  0.3584505E+002  0.9712793E+02  0.7546771E-02  0.1286454E+00
         21   -1    0    0  503  502  0.00000000000E+00  0.00000000000E+00  0.24537422671E+04  0.24537422671E+04  0.00000000000E+00 0. -1.
          2   -1    0    0  505    0 -0.00000000000E+00 -0.00000000000E+00 -0.15398162444E+04  0.15398162444E+04  0.00000000000E+00 0. -1.
         21    1    1    2  503  501  0.33495734619E+01 -0.35090702671E+02  0.17742132667E+04  0.17745634091E+04  0.00000000000E+00 0. -1.
         21    1    1    2  504  502 -0.10287428631E+03  0.15178321930E+02  0.63572723131E+03  0.64417591764E+03  0.00000000000E+00 0. -1.
         21    1    1    2  505  504  0.57595042806E+02  0.47053380165E+02  0.35178499739E+01  0.74455253738E+02  0.00000000000E+00 0. -1.
          2    1    1    2  501    0  0.41929670040E+02 -0.27140999424E+02 -0.14995323253E+04  0.15003639311E+04  0.00000000000E+00 0. -1.
<scales pt_clust_3="35.25021" pt_clust_4="14000.00000" pt_clust_5="97.12793" pt_clust_6="49.96068"></scales>
<clustering>
<clus scale="   35.250">  1  3  2 -1</clus>
<clus scale="   49.961">  2  6  1 -1</clus>
<clus scale="   97.128">  2  5  1 -1</clus>
<clus scale="   35.250">  1  3  2 -1</clus>
</clustering>
</event>
<event>
 6    0  0.3584505E+002  0.8906864E+02  0.7546771E-02  0.1305123E+00
          2   -1    0    0  502    0 -0.00000000000E+00  0.00000000000E+00  0.18518323677E+04  0.18518323677E+04  0.00000000000E+00 0. -1.
         21   -1    0    0  505  502  0.00000000000E+00 -0.00000000000E+00 -0.25963646141E+02  0.25963646141E+02  0.00000000000E+00 0. -1.
         21    1    1    2  503  504  0.35172309055E+02  0.10283174764E+03  0.40910442914E+03  0.42329409822E+03  0.00000000000E+00 0. -1.
         21    1    1    2  504  501  0.61742371043E+02 -0.13808215121E+02  0.31703254008E+03  0.32328380513E+03  0.00000000000E+00 0. -1.
         21    1    1    2  505  503 -0.36452334142E+02 -0.75296789783E+02  0.10360170325E+03  0.13316040001E+03  0.00000000000E+00 0. -1.
          2    1    1    2  501    0 -0.60462345957E+02 -0.13726742739E+02  0.99613004905E+03  0.99805771043E+03  0.00000000000E+00 0. -1.
<scales pt_clust_3="89.06864" pt_clust_4="43.44561" pt_clust_5="14000.00000" pt_clust_6="62.00096"></scales>
<clustering>
<clus scale="   62.001">  1  6  2 -1</clus>
<clus scale="   43.446">  1  4  2 -1</clus>
<clus scale="   89.069">  1  3  2 -1</clus>
<clus scale="   89.069">  2  3  1 -1</clus>
</clustering>
</event>
<event>
 6    0  0.3584505E+002  0.7252310E+02  0.7546771E-02  0.1351717E+00
         21   -1    0    0  505  502  0.00000000000E+00  0.00000000000E+00  0.12374863048E+04  0.12374863048E+04  0.00000000000E+00 0. -1.
          2   -1    0    0  503    0 -0.00000000000E+00 -0.00000000000E+00 -0.12731313041E+04  0.12731313041E+04  0.00000000000E+00 0. -1.
         21    1    1    2  503  504  0.34295036694E+02  0.61050578834E+02 -0.19841511351E+02  0.72780548847E+02  0.00000000000E+00 0. -1.
         21    1    1    2  504  502 -0.47222601483E+02 -0.21884542377E+01  0.13416680938E+03  0.14225152429E+03  0.00000000000E+00 0. -1.
         21    1    1    2  505  501  0.61505262696E+02 -0.71034406275E+02  0.10702356095E+04  0.10743523835E+04  0.00000000000E+00 0. -1.
          2    1    1    2  501    0 -0.48577697907E+02  0.12172281678E+02 -0.12202059068E+04  0.12212331522E+04  0.00000000000E+00 0. -1.
<scales pt_clust_3="72.52310" pt_clust_4="47.27328" pt_clust_5="14000.00000" pt_clust_6="50.10066"></scales>
<clustering>
<clus scale="   47.273">  1  4  2 -1</clus>
<clus scale="   50.101">  2  6  1 -1</clus>
<clus scale="   72.523">  2  3  1 -1</clus>
<clus scale="   47.273">  1  3  2 -1</clus>
</clustering>
</event>
<event>
 6    0  0.3584505E+002  0.1319498E+03  0.7546771E-02  0.1224591E+00
         -3   -1    0    0    0  501 -0.00000000000E+00  0.00000000000E+00  0.12756330675E+04  0.12756330675E+04  0.00000000000E+00 0.  1.
         21   -1    0    0  503  502  0.00000000000E+00 -0.00000000000E+00 -0.28051874327E+03  0.28051874327E+03  0.00000000000E+00 0.  1.
         21    1    1    2  503  501  0.21612318939E+02 -0.10363751056E+03  0.11203015704E+03  0.15413819128E+03  0.00000000000E+00 0.  1.
         21    1    1    2  504  502  0.32540529772E+02  0.21252556820E+02 -0.97031949061E+01  0.40058822257E+02  0.00000000000E+00 0.  1.
         21    1    1    2  505  504 -0.10162947331E+03  0.10099954206E+03 -0.21206200072E+03  0.25592918843E+03  0.00000000000E+00 0.  1.
         -3    1    1    2    0  505  0.47476624602E+02 -0.18614588318E+02  0.11048493628E+04  0.11060256088E+04  0.00000000000E+00 0.  1.
<scales pt_clust_3="14000.00000" pt_clust_4="38.86589" pt_clust_5="131.94975" pt_clust_6="51.04732"></scales>
<clustering>
<clus scale="   38.866">  2  4  1 -1</clus>
<clus scale="   51.047">  1  6  2 -1</clus>
<clus scale="  131.950">  2  5  1 -1</clus>
<clus scale="   38.866">  2  3  1 -1</clus>
</clustering>
</event>
<event>
 6    0  0.3584505E+002  0.1520019E+03  0.7546771E-02  0.1198034E+00
         21   -1    0    0  504  502  0.00000000000E+00  0.00000000000E+00  0.71705792921E+02  0.71705792921E+02  0.00000000000E+00 0.  1.
          3   -1    0    0  502    0 -0.00000000000E+00 -0.00000000000E+00 -0.22000951693E+04  0.22000951693E+04  0.00000000000E+00 0. -1.
         21    1    1    2  503  501  0.76141927990E+01  0.11656942693E+03 -0.81547094889E+03  0.82379565167E+03  0.00000000000E+00 0. -1.
         21    1    1    2  504  505 -0.11568314045E+02 -0.97261286342E+02  0.89390443944E+01  0.98353902950E+02  0.00000000000E+00 0.  1.
         21    1    1    2  505  503  0.23248734246E+02 -0.43010409996E+02 -0.29852488066E+02  0.57284989795E+02  0.00000000000E+00 0. -1.
          3    1    1    2  501    0 -0.19294613000E+02  0.23702269408E+02 -0.12920049838E+04  0.12923664178E+04  0.00000000000E+00 0. -1.
<scales pt_clust_3="138.31505" pt_clust_4="44.11001" pt_clust_5="44.11001" pt_clust_6="30.56272"></scales>
<clustering>
<clus scale="   30.563">  2  6  1 -1</clus>
<clus scale="   44.110">  4  5 -1 -1</clus>
<clus scale="  138.315">  2  3  1 -1</clus>
<clus scale="  152.002">  1  3  2 -1</clus>
</clustering>
</event>
<event>
 6    0  0.3584505E+002  0.1147296E+03  0.7546771E-02  0.1252054E+00
         21   -1    0    0  501  502  0.00000000000E+00  0.00000000000E+00  0.40802409500E+03  0.40802409500E+03  0.00000000000E+00 0.  1.
          2   -1    0    0  504    0 -0.00000000000E+00 -0.00000000000E+00 -0.15756597361E+04  0.15756597361E+04  0.00000000000E+00 0.  1.
         21    1    1    2  503  505 -0.42790668626E+02  0.90093329012E+02  0.87275648998E+01  0.10012002618E+03  0.00000000000E+00 0.  1.
         21    1    1    2  504  503  0.34462760521E+02 -0.12250610179E+03 -0.16188909411E+03  0.20592111507E+03  0.00000000000E+00 0.  1.
         21    1    1    2  505  502 -0.32919394913E+02  0.42588335974E+01  0.33028891127E+03  0.33195269110E+03  0.00000000000E+00 0.  1.
          2    1    1    2  501    0  0.41247303017E+02  0.28153939183E+02 -0.13447630232E+04  0.13456899988E+04  0.00000000000E+00 0.  1.
<scales pt_clust_3="114.72956" pt_clust_4="14000.00000" pt_clust_5="33.19374" pt_clust_6="49.79059"></scales>
<clustering>
<clus scale="   33.194">  1  5  2 -1</clus>
<clus scale="   49.791">  2  6  1 -1</clus>
<clus scale="  114.730">  1  3  2 -1</clus>
<clus scale="   33.194">  1  3  2 -1</clus>
</clustering>
</event>
<event>
 6    0  0.3584505E+002  0.7720600E+02  0.7546771E-02  0.1337173E+00
          2   -1    0    0  505    0 -0.00000000000E+00  0.00000000000E+00  0.30859317579E+04  0.30859317579E+04  0.00000000000E+00 0.  1.
         21   -1    0    0  503  502  0.00000000000E+00 -0.00000000000E+00 -0.38953624903E+02  0.38953624903E+02  0.00000000000E+00 0.  1.
         21    1    1    2  503  504 -0.35816387498E+02  0.32653445517E+02 -0.48934915458E+00  0.48469584072E+02  0.00000000000E+00 0.  1.
         21    1    1    2  504  501  0.45942835030E+02  0.23404084399E+02  0.42363057834E+02  0.66731731029E+02  0.00000000000E+00 0.  1.
         21    1    1    2  505  502 -0.81568711281E+02 -0.23239238536E+02  0.18195798155E+04  0.18215554403E+04  0.00000000000E+00 0.  1.
          2    1    1    2  501    0  0.71442263749E+02 -0.32818291379E+02  0.11855246088E+04  0.11881286274E+04  0.00000000000E+00 0.  1.
<scales pt_clust_3="48.46711" pt_clust_4="53.28579" pt_clust_5="14000.00000" pt_clust_6="77.20600"></scales>
<clustering>
<clus scale="   48.467">  2  3  1 -1</clus>
<clus scale="   53.286">  2  4  1 -1</clus>
<clus scale="   77.206">  2  6  1 -1</clus>
<clus scale="   48.467">  2  3  1 -1</clus>
</clustering>
</event>
<event>
 6    0  0.3584505E+002  0.1270987E+03  0.7546771E-02  0.1231825E+00
          2   -1    0    0  505    0 -0.00000000000E+00  0.00000000000E+00  0.18471884681E+04  0.18471884681E+04  0.00000000000E+00 0. -1.
         21   -1    0    0  504  502  0.00000000000E+00 -0.00000000000E+00 -0.95197644900E+03  0.95197644900E+03  0.00000000000E+00 0.  1.
         21    1    1    2  503  502  0.60728813963E+02  0.40302297381E+01 -0.72534858728E+03  0.72789752346E+03  0.00000000000E+00 0.  1.
         21    1    1    2  504  501  0.10825491686E+02  0.45324804351E+02 -0.10721306496E+03  0.11690239714E+03  0.00000000000E+00 0.  1.
         21    1    1    2  505  503 -0.10528351741E+03  0.73768849495E+02 -0.73827658761E+02  0.14824636721E+03  0.00000000000E+00 0.  1.
          2    1    1    2  501    0  0.33729211761E+02 -0.12312388358E+03  0.18016013301E+04  0.18061186292E+04  0.00000000000E+00 0. -1.
<scales pt_clust_3="82.35886" pt_clust_4="46.59967" pt_clust_5="14000.00000" pt_clust_6="127.09874"></scales>
<clustering>
<clus scale="   46.600">  2  4  1 -1</clus>
<clus scale="   82.359">  2  3  1 -1</clus>
<clus scale="  127.099">  1  6  2 -1</clus>
<clus scale="   46.600">  2  3  1 -1</clus>
</clustering>
</event>
<event>
 6    0  0.3584505E+002  0.6148148E+02  0.7546771E-02  0.1391718E+00
         21   -1    0    0  505  502  0.00000000000E+00  0.00000000000E+00  0.58640937965E+03  0.58640937965E+03  0.00000000000E+00 0.  1.
          2   -1    0    0  503    0 -0.00000000000E+00 -0.00000000000E+00 -0.17690742742E+04  0.17690742742E+04  0.00000000000E+00 0.  1.
         21    1    1    2  503  502 -0.64329729511E+02 -0.19347206632E+02  0.58820086899E+02  0.89288471408E+02  0.00000000000E+00 0. -1.
         21    1    1    2  504  501  0.48847450315E+02 -0.74993348423E+02 -0.50747436102E+03  0.51530602830E+03  0.00000000000E+00 0.  1.
         21    1    1    2  505  504  0.22122964183E+02  0.59945424059E+02  0.50618341880E+03  0.51020048302E+03  0.00000000000E+00 0.  1.
          2    1    1    2  501    0 -0.66406849864E+01  0.34395130997E+02 -0.12401940392E+04  0.12406886711E+04  0.00000000000E+00 0.  1.
<scales pt_clust_3="14000.00000" pt_clust_4="59.50050" pt_clust_5="61.48148" pt_clust_6="35.03033"></scales>
<clustering>
<clus scale="   35.030">  2  6  1 -1</clus>
<clus scale="   59.500">  2  4  1 -1</clus>
<clus scale="   61.481">  1  5  2 -1</clus>
<clus scale="   61.481">  1  3  2 -1</clus>
</clustering>
</event>
<event>
 6    0  0.3584505E+002  0.8960116E+02  0.7546771E-02  0.1303820E+00
          2   -1    0    0  505    0 -0.00000000000E+00  0.00000000000E+00  0.12010329079E+04  0.12010329079E+04  0.00000000000E+00 0.  1.
         21   -1    0    0  504  502  0.00000000000E+00 -0.00000000000E+00 -0.43589534751E+03  0.43589534751E+03  0.00000000000E+00 0.  1.
         21    1    1    2  503  501  0.34523048492E+02 -0.31428169530E+02  0.19892691879E+03  0.20433181283E+03  0.00000000000E+00 0.  1.
         21    1    1    2  504  503  0.86066361073E+02  0.52964300812E+02  0.14572797309E+03  0.17733944234E+03  0.00000000000E+00 0.  1.
         21    1    1    2  505  502 -0.89572009511E+02 -0.34019611344E+01 -0.41218277714E+03  0.42181673746E+03  0.00000000000E+00 0.  1.
          2    1    1    2  501    0 -0.31017400054E+02 -0.18134170148E+02  0.83266544561E+03  0.83344026273E+03  0.00000000000E+00 0.  1.
<scales pt_clust_3="44.92480" pt_clust_4="14000.00000" pt_clust_5="89.60116" pt_clust_6="35.92948"></scales>
<clustering>
<clus scale="   35.929">  1  6  2 -1</clus>
<clus scale="   44.925">  1  3  2 -1</clus>
<clus scale="   89.601">  2  5  1 -1</clus>
<clus scale="   89.601">  2  3  1 -1</clus>
</clustering>
</event>
<event>
 6    0  0.3584505E+002  0.1015571E+03  0.7546771E-02  0.1277055E+00
          2   -1    0    0  503    0 -0.00000000000E+00  0.00000000000E+00  0.11606378126E+04  0.11606378126E+04  0.00000000000E+00 0. -1.
         21   -1    0    0  504  502  0.00000000000E+00 -0.00000000000E+00 -0.16046326484E+03  0.16046326484E+03  0.00000000000E+00 0. -1.
         21    1    1    2  503  505 -0.85789088976E+02  0.50765420883E+02  0.49133668190E+03  0.50134681681E+03  0.00000000000E+00 0. -1.
         21    1    1    2  504  501  0.36565090397E+02  0.16614977339E+02 -0.11330951383E+03  0.12021692573E+03  0.00000000000E+00 0. -1.
         21    1    1    2  505  502 -0.28815881222E+00  0.32971976837E+02 -0.25881602442E+02  0.41917676904E+02  0.00000000000E+00 0.  1.
          2    1    1    2  501    0  0.49512157391E+02 -0.10035237506E+03  0.64802898210E+03  0.65761965797E+03  0.00000000000E+00 0. -1.
<scales pt_clust_3="101.55711" pt_clust_4="59.41222" pt_clust_5="32.97324" pt_clust_6="14000.00000"></scales>
<clustering>
<clus scale="   32.973">  2  5  1 -1</clus>
<clus scale="   59.412">  2  4  1 -1</clus>
<clus scale="  101.557">  2  3  1 -1</clus>
<clus scale="   32.973">  2  3  1 -1</clus>
</clustering>
</event>
<event>
 6    0  0.3584505E+002  0.1536988E+03  0.7546771E-02  0.1196000E+00
         21   -1    0    0  505  502  0.00000000000E+00  0.00000000000E+00  0.15084295428E+03  0.15084295428E+03  0.00000000000E+00 0. -1.
         -1   -1    0    0    0  501 -0.00000000000E+00 -0.00000000000E+00 -0.15017171989E+04  0.15017171989E+04  0.00000000000E+00 0.  1.
         21    1    1    2  503  504 -0.14655353150E+03  0.54771524871E+01 -0.32461066670E+03  0.35620222027E+03  0.00000000000E+00 0. -1.
         21    1    1    2  504  502  0.16784806050E+03 -0.99694637067E+02  0.46001227872E+02  0.20056945191E+03  0.00000000000E+00 0. -1.
         21    1    1    2  505  501 -0.33483524517E+02  0.28118414927E+02 -0.34097208631E+02  0.55447374226E+02  0.00000000000E+00 0. -1.
         -1    1    1    2    0  503  0.12188995523E+02  0.66099069653E+02 -0.10381675972E+04  0.10403411068E+04  0.00000000000E+00 0.  1.
<scales pt_clust_3="14000.00000" pt_clust_4="153.69877" pt_clust_5="43.72404" pt_clust_6="67.38149"></scales>
<clustering>
<clus scale="   43.724">  1  5  2 -1</clus>
<clus scale="   67.381">  2  6  1 -1</clus>
<clus scale="  153.699">  1  4  2 -1</clus>
<clus scale="   43.724">  1  3  2 -1</clus>
</clustering>
</event>
<event>
 6    0  0.3584505E+002  0.1176263E+03  0.7546771E-02  0.1247065E+00
          2   -1    0    0  505    0 -0.00000000000E+00  0.00000000000E+00  0.83282994496E+03  0.83282994496E+03  0.00000000000E+00 0. -1.
         21   -1    0    0  503  502  0.00000000000E+00 -0.00000000000E+00 -0.10022691290E+04  0.10022691290E+04  0.00000000000E+00 0. -1.
         21    1    1    2  503  504 -0.40091395210E+02  0.14802352382E+02 -0.78298282897E+03  0.78414828959E+03  0.00000000000E+00 0. -1.
         21    1    1    2  504  501  0.71976589188E+02 -0.83729394512E+02 -0.16923734034E+03  0.20207057743E+03  0.00000000000E+00 0. -1.
         21    1    1    2  505  502  0.45083448804E+02 -0.20245235544E+02 -0.73963277003E+01  0.49970917360E+02  0.00000000000E+00 0. -1.
          2    1    1    2  501    0 -0.76968642782E+02  0.89172277674E+02  0.79017731297E+03  0.79890928960E+03  0.00000000000E+00 0. -1.
<scales pt_clust_3="42.73675" pt_clust_4="14000.00000" pt_clust_5="43.83023" pt_clust_6="117.62625"></scales>
<clustering>
<clus scale="   42.737">  2  3  1 -1</clus>
<clus scale="   43.830">  2  5  1 -1</clus>
<clus scale="  117.626">  1  6  2 -1</clus>
<clus scale="   42.737">  2  3  1 -1</clus>
</clustering>
</event>
<event>
 6    0  0.3584505E+002  0.6043501E+02  0.7546771E-02  0.1396015E+00
         21   -1    0    0  503  502  0.00000000000E+00  0.00000000000E+00  0.56145841474E+03  0.56145841474E+03  0.00000000000E+00 0. -1.
         -1   -1    0    0    0  501 -0.00000000000E+00 -0.00000000000E+00 -0.96987792813E+03  0.96987792813E+03  0.00000000000E+00 0.  1.
         21    1    1    2  503  504 -0.23899743825E+01 -0.59768086292E+02  0.52022018539E+03  0.52364776082E+03  0.00000000000E+00 0. -1.
         21    1    1    2  504  501  0.24707627084E+02 -0.44753503394E+02 -0.80659987310E+02  0.95495426356E+02  0.00000000000E+00 0.  1.
         21    1    1    2  505  502 -0.56009489251E+02  0.99200545530E+02 -0.70510134125E+02  0.13397570725E+03  0.00000000000E+00 0.  1.
         -1    1    1    2    0  505  0.33691836550E+02  0.53210441564E+01 -0.77746957735E+03  0.77821744844E+03  0.00000000000E+00 0.  1.
<scales pt_clust_3="14000.00000" pt_clust_4="58.33747" pt_clust_5="60.43501" pt_clust_6="34.10943"></scales>
<clustering>
<clus scale="   34.109">  2  6  1 -1</clus>
<clus scale="   58.337">  2  4  1 -1</clus>
<clus scale="   60.435">  2  5  1 -1</clus>
<clus scale="   60.435">  1  3  2 -1</clus>
</clustering>
</event>
<event>
 6    0  0.3584505E+002  0.1815309E+03  0.7546771E-02  0.1166330E+00
         21   -1    0    0  505  502  0.00000000000E+00  0.00000000000E+00  0.55735669920E+03  0.55735669920E+03  0.00000000000E+00 0.  1.
          1   -1    0    0  504    0 -0.00000000000E+00 -0.00000000000E+00 -0.17339933252E+04  0.17339933252E+04  0.00000000000E+00 0.  1.
         21    1    1    2  503  502 -0.85575544586E+02 -0.20337164370E+02  0.48442415430E+03  0.49234493534E+03  0.00000000000E+00 0.  1.
         21    1    1    2  504  503 -0.10270148077E+03 -0.71278409097E+02 -0.50808366286E+02  0.13494330603E+03  0.00000000000E+00 0.  1.
         21    1    1    2  505  501  0.21530058336E+03  0.70595780127E+02 -0.45492456879E+03  0.50822678860E+03  0.00000000000E+00 0.  1.
          1    1    1    2  501    0 -0.27023557996E+02  0.21019793339E+02 -0.11553278452E+04  0.11558349944E+04  0.00000000000E+00 0.  1.
<scales pt_clust_3="88.10586" pt_clust_4="14000.00000" pt_clust_5="181.53091" pt_clust_6="34.23601"></scales>
<clustering>
<clus scale="   34.236">  2  6  1 -1</clus>
<clus scale="   88.106">  1  3  2 -1</clus>
<clus scale="  181.531">  2  5  1 -1</clus>
<clus scale="   88.106">  1  3  2 -1</clus>
</clustering>
</event>
<event>
 6    0  0.3584505E+002  0.7827719E+02  0.7546771E-02  0.1334013E+00
          2   -1    0    0  505    0 -0.00000000000E+00  0.00000000000E+00  0.10032141230E+04  0.10032141230E+04  0.00000000000E+00 0.  1.
         21   -1    0    0  503  502  0.00000000000E+00 -0.00000000000E+00 -0.81468192038E+02  0.81468192038E+02  0.00000000000E+00 0. -1.
         21    1    1    2  503  504 -0.39161513638E+02 -0.63338470363E+02 -0.31162388317E+02  0.80724720031E+02  0.00000000000E+00 0. -1.
         21    1    1    2  504  501 -0.56129325417E+02  0.85565854589E+00  0.13046485222E+03  0.14202926102E+03  0.00000000000E+00 0. -1.
         21    1    1    2  505  502  0.14278455965E+03  0.56147311044E+02  0.29685071755E+03  0.33415610053E+03  0.00000000000E+00 0. -1.
          2    1    1    2  501    0 -0.47493720590E+02  0.63355007732E+01  0.52559274948E+03  0.52777223342E+03  0.00000000000E+00 0.  1.
<scales pt_clust_3="78.27719" pt_clust_4="69.75945" pt_clust_5="14000.00000" pt_clust_6="47.91442"></scales>
<clustering>
<clus scale="   47.914">  1  6  2 -1</clus>
<clus scale="   69.759">  1  4  2 -1</clus>
<clus scale="   78.277">  2  3  1 -1</clus>
<clus scale="   78.277">  2  3  1 -1</clus>
</clustering>
</event>
<event>
 6    0  0.3584505E+002  0.1250835E+03  0.7546771E-02  0.1234939E+00
          1   -1    0    0  504    0 -0.00000000000E+00  0.00000000000E+00  0.13092495698E+04  0.13092495698E+04  0.00000000000E+00 0.  1.
         21   -1    0    0  505  502  0.00000000000E+00 -0.00000000000E+00 -0.68218782118E+02  0.68218782118E+02  0.00000000000E+00 0.  1.
         21    1    1    2  503  502  0.74230575458E+02  0.85339412722E+02  0.53975678586E+02  0.12532504768E+03  0.00000000000E+00 0.  1.
         21    1    1    2  504  503  0.32322270765E+02 -0.17058031940E+03  0.40448807629E+03  0.44017380478E+03  0.00000000000E+00 0.  1.
         21    1    1    2  505  501 -0.28107098608E+02  0.32163380665E+02  0.27094161729E+02  0.50582463836E+02  0.00000000000E+00 0.  1.
          1    1    1    2  501    0 -0.78445747615E+02  0.53077526010E+02  0.75547287106E+03  0.76138703561E+03  0.00000000000E+00 0.  1.
<scales pt_clust_3="14000.00000" pt_clust_4="125.08354" pt_clust_5="42.71407" pt_clust_6="96.87951"></scales>
<clustering>
<clus scale="   42.714">  2  5  1 -1</clus>
<clus scale="   96.880">  1  6  2 -1</clus>
<clus scale="  125.084">  1  4  2 -1</clus>
<clus scale="   42.714">  2  3  1 -1</clus>
</clustering>
</event>
<event>
 6    0  0.3584505E+002  0.7469470E+02  0.7546771E-02  0.1344819E+00
         -2   -1    0    0    0  501 -0.00000000000E+00  0.00000000000E+00  0.19869570097E+03  0.19869570097E+03  0.00000000000E+00 0.  1.
         21   -1    0    0  504  502  0.00000000000E+00 -0.00000000000E+00 -0.34660490925E+03  0.34660490925E+03  0.00000000000E+00 0.  1.
         21    1    1    2  503  502  0.21282911584E+02 -0.59015730805E+02 -0.21524071063E+03  0.22419719516E+03  0.00000000000E+00 0.  1.
         21    1    1    2  504  505 -0.28866556701E+02  0.17838506674E+02 -0.57833273589E+02  0.67053545396E+02  0.00000000000E+00 0.  1.
         21    1    1    2  505  501 -0.44320188603E+01  0.10941032300E+03 -0.16846292396E+01  0.10951301085E+03  0.00000000000E+00 0.  1.
         -2    1    1    2    0  503  0.12015663977E+02 -0.68233098871E+02  0.12684940517E+03  0.14453685881E+03  0.00000000000E+00 0.  1.
<scales pt_clust_3="45.23456" pt_clust_4="33.93362" pt_clust_5="74.69470" pt_clust_6="14000.00000"></scales>
<clustering>
<clus scale="   33.934">  2  4  1 -1</clus>
<clus scale="   45.235">  2  3  1 -1</clus>
<clus scale="   74.695">  2  5  1 -1</clus>
<clus scale="   33.934">  2  3  1 -1</clus>
</clustering>
</event>
<event>
 6    0  0.3584505E+002  0.1082587E+03  0.7546771E-02  0.1263829E+00
          2   -1    0    0  502    0 -0.00000000000E+00  0.00000000000E+00  0.27069367208E+03  0.27069367208E+03  0.00000000000E+00 0. -1.
         21   -1    0    0  503  502  0.00000000000E+00 -0.00000000000E+00 -0.25504896039E+03  0.25504896039E+03  0.00000000000E+00 0. -1.
         21    1    1    2  503  505 -0.13115342530E+02  0.34721927370E+02 -0.12655610453E+03  0.13188658781E+03  0.00000000000E+00 0. -1.
         21    1    1    2  504  501  0.10012263107E+02 -0.10410910012E+03  0.33902360917E+02  0.10994689726E+03  0.00000000000E+00 0. -1.
         21    1    1    2  505  504 -0.35941237832E+02  0.89686431297E+02 -0.57455931443E+02  0.11241268876E+03  0.00000000000E+00 0. -1.
          2    1    1    2  501    0  0.39044317255E+02 -0.20299258545E+02  0.16575438674E+03  0.17149645865E+03  0.00000000000E+00 0. -1.
<scales pt_clust_3="37.11636" pt_clust_4="108.25875" pt_clust_5="14000.00000" pt_clust_6="43.37860"></scales>
<clustering>
<clus scale="   37.116">  2  3  1 -1</clus>
<clus scale="   43.379">  1  6  2 -1</clus>
<clus scale="  108.259">  1  4  2 -1</clus>
<clus scale="   37.116">  2  3  1 -1</clus>
</clustering>
</event>
<event>
 6    0  0.3584505E+002  0.8311783E+02  0.7546771E-02  0.1320429E+00
          2   -1    0    0  505    0 -0.00000000000E+00  0.00000000000E+00  0.25997908879E+04  0.25997908879E+04  0.00000000000E+00 0.  1.
         21   -1    0    0  504  502  0.00000000000E+00 -0.00000000000E+00 -0.29060966923E+03  0.29060966923E+03  0.00000000000E+00 0.  1.
         21    1    1    2  503  502  0.24823612073E+02 -0.22466579770E+02 -0.14951982845E+03  0.15322251148E+03  0.00000000000E+00 0.  1.
         21    1    1    2  504  501 -0.61956119682E+02 -0.73095866626E+01 -0.13922528289E+02  0.63920478856E+02  0.00000000000E+00 0. -1.
         21    1    1    2  505  503  0.68098504778E+02 -0.47457922784E+02 -0.82353234770E+02  0.11692611370E+03  0.00000000000E+00 0. -1.
          2    1    1    2  501    0 -0.30965997169E+02  0.77234089217E+02  0.25549768101E+04  0.25563314531E+04  0.00000000000E+00 0.  1.
<scales pt_clust_3="33.48072" pt_clust_4="56.67068" pt_clust_5="83.11783" pt_clust_6="14000.00000"></scales>
<clustering>
<clus scale="   33.481">  2  3  1 -1</clus>
<clus scale="   56.671">  2  4  1 -1</clus>
<clus scale="   83.118">  2  5  1 -1</clus>
<clus scale="   33.481">  2  3  1 -1</clus>
</clustering>
</event>
<event>
 6    0  0.3584505E+002  0.9583304E+02  0.7546771E-02  0.1289311E+00
          1   -1    0    0  504    0 -0.00000000000E+00  0.00000000000E+00  0.14745459589E+04  0.14745459589E+04  0.00000000000E+00 0.  1.
         21   -1    0    0  505  502  0.00000000000E+00 -0.00000000000E+00 -0.52547645524E+02  0.52547645524E+02  0.00000000000E+00 0. -1.
         21    1    1    2  503  502  0.30579586344E+02  0.91762655170E+02  0.66289048874E+02  0.11725925970E+03  0.00000000000E+00 0. -1.
         21    1    1    2  504  503 -0.80401173387E+02 -0.54579223050E+02  0.12203675068E+04  0.12242304081E+04  0.00000000000E+00 0.  1.
         21    1    1    2  505  501  0.26336017019E+01 -0.44122623450E+02  0.22885776314E+01  0.44260358625E+02  0.00000000000E+00 0. -1.
          1    1    1    2  501    0  0.47187985341E+02  0.69391913294E+01  0.13305318008E+03  0.14134357808E+03  0.00000000000E+00 0.  1.
<scales pt_clust_3="14000.00000" pt_clust_4="95.83304" pt_clust_5="44.20115" pt_clust_6="47.54764"></scales>
<clustering>
<clus scale="   44.201">  2  5  1 -1</clus>
<clus scale="   47.548">  2  6  1 -1</clus>
<clus scale="   95.833">  1  4  2 -1</clus>
<clus scale="   44.201">  2  3  1 -1</clus>
</clustering>
</event>
<event>
 6    0  0.3584505E+002  0.1120364E+03  0.7546771E-02  0.1256845E+00
         21   -1    0    0  504  502  0.00000000000E+00  0.00000000000E+00  0.49155183371E+02  0.49155183371E+02  0.00000000000E+00 0. -1.
          2   -1    0    0  503    0 -0.00000000000E+00 -0.00000000000E+00 -0.14587854978E+04  0.14587854978E+04  0.00000000000E+00 0.  1.
         21    1    1    2  503  502 -0.70178171278E+01  0.59226635554E+02 -0.31321658991E+02  0.67365350428E+02  0.00000000000E+00 0. -1.
         21    1    1    2  504  505 -0.17520904821E+02 -0.44015603286E+02 -0.90468351392E+01  0.48230702508E+02  0.00000000000E+00 0. -1.
         21    1    1    2  505  501 -0.88167490614E+02  0.25401036493E+02 -0.24327714048E+03  0.26000478099E+03  0.00000000000E+00 0. -1.
          2    1    1    2  501    0  0.11270621256E+03 -0.40612068760E+02 -0.11259846798E+04  0.11323398472E+04  0.00000000000E+00 0.  1.
<scales pt_clust_3="36.91410" pt_clust_4="47.37463" pt_clust_5="14000.00000" pt_clust_6="112.03644"></scales>
<clustering>
<clus scale="   47.375">  1  4  2 -1</clus>
<clus scale="   36.914">  1  3  2 -1</clus>
<clus scale="  112.036">  2  6  1 -1</clus>
<clus scale="   47.375">  1  3  2 -1</clus>
</clustering>
</event>
<event>
 6    0  0.3584505E+002  0.8623703E+02  0.7546771E-02  0.1312229E+00
          1   -1    0    0  504    0 -0.00000000000E+00  0.00000000000E+00  0.69642297863E+03  0.69642297863E+03  0.00000000000E+00 0. -1.
         21   -1    0    0  505  502  0.00000000000E+00 -0.00000000000E+00 -0.48567693036E+03  0.48567693036E+03  0.00000000000E+00 0.  1.
         21    1    1    2  503  502  0.53011583824E+02 -0.68302560437E+02 -0.43291614667E+03  0.44146557944E+03  0.00000000000E+00 0.  1.
         21    1    1    2  504  503 -0.83744160340E+02  0.35434002255E+02  0.10794435082E+03  0.14114048243E+03  0.00000000000E+00 0. -1.
         21    1    1    2  505  501  0.49318061331E+02  0.64183538705E+02  0.21179064904E+02  0.83668097889E+02  0.00000000000E+00 0.  1.
          1    1    1    2  501    0 -0.18585484815E+02 -0.31314980524E+02  0.51453877922E+03  0.51582574923E+03  0.00000000000E+00 0. -1.
<scales pt_clust_3="86.23703" pt_clust_4="14000.00000" pt_clust_5="70.49657" pt_clust_6="36.41495"></scales>
<clustering>
<clus scale="   36.415">  1  6  2 -1</clus>
<clus scale="   70.497">  1  5  2 -1</clus>
<clus scale="   86.237">  2  3  1 -1</clus>
<clus scale="   86.237">  2  3  1 -1</clus>
</clustering>
</event>
<event>
 6    0  0.3584505E+002  0.9232874E+02  0.7546771E-02  0.1297308E+00
          2   -1    0    0  505    0 -0.00000000000E+00  0.00000000000E+00  0.39883568382E+03  0.39883568382E+03  0.00000000000E+00 0.  1.
         21   -1    0    0  504  502  0.00000000000E+00 -0.00000000000E+00 -0.11949921281E+03  0.11949921281E+03  0.00000000000E+00 0. -1.
         21    1    1    2  503  502  0.83130504888E+02  0.62592879631E+02 -0.50754268040E+02  0.11577799941E+03  0.00000000000E+00 0. -1.
         21    1    1    2  504  501 -0.69752720318E+02  0.40932644939E+02  0.69137715847E+02  0.10639993969E+03  0.00000000000E+00 0. -1.
         21    1    1    2  505  503  0.16144064774E+02 -0.87600256905E+02  0.11010584079E+03  0.14162532264E+03  0.00000000000E+00 0. -1.
          2    1    1    2  501    0 -0.29521849345E+02 -0.15925267666E+02  0.15084718242E+03  0.15453163489E+03  0.00000000000E+00 0.  1.
<scales pt_clust_3="14000.00000" pt_clust_4="87.67915" pt_clust_5="92.32874" pt_clust_6="33.54331"></scales>
<clustering>
<clus scale="   33.543">  1  6  2 -1</clus>
<clus scale="   87.679">  1  4  2 -1</clus>
<clus scale="   92.329">  1  5  2 -1</clus>
<clus scale="   92.329">  2  3  1 -1</clus>
</clustering>
</event>
<event>
 6    0  0.3584505E+002  0.1145949E+03  0.7546771E-02  0.1252290E+00
          2   -1    0    0  503    0 -0.00000000000E+00  0.00000000000E+00  0.22733346479E+04  0.22733346479E+04  0.00000000000E+00 0. -1.
         21   -1    0    0  501  502  0.00000000000E+00 -0.00000000000E+00 -0.20339576450E+04  0.20339576450E+04  0.00000000000E+00 0. -1.
         21    1    1    2  503  505  0.27566084941E+02 -0.23904912103E+02  0.11050319339E+03  0.11637134360E+03  0.00000000000E+00 0. -1.
         21    1    1    2  504  502  0.10127629452E+03  0.54325234232E+02 -0.16246886709E+04  0.16287484141E+04  0.00000000000E+00 0. -1.
         21    1    1    2  505  504 -0.13403876805E+03  0.20721480879E+02 -0.39261365919E+03  0.41538085715E+03  0.00000000000E+00 0. -1.
          2    1    1    2  501    0  0.51963885868E+01 -0.51141803007E+02  0.21461761397E+04  0.21467916781E+04  0.00000000000E+00 0. -1.
<scales pt_clust_3="36.48745" pt_clust_4="14000.00000" pt_clust_5="114.59493" pt_clust_6="81.68195"></scales>
<clustering>
<clus scale="   36.487">  1  3  2 -1</clus>
<clus scale="   81.682">  1  6  2 -1</clus>
<clus scale="  114.595">  1  5  2 -1</clus>
<clus scale="  114.595">  2  3  1 -1</clus>
</clustering>
</event>
<event>
 6    0  0.3584505E+002  0.6428900E+02  0.7546771E-02  0.1380666E+00
          1   -1    0    0  505    0 -0.00000000000E+00  0.00000000000E+00  0.53918512107E+03  0.53918512107E+03  0.00000000000E+00 0. -1.
         21   -1    0    0  504  502  0.00000000000E+00 -0.00000000000E+00 -0.19927915273E+03  0.19927915273E+03  0.00000000000E+00 0.  1.
         21    1    1    2  503  502  0.25361103001E+02  0.50924198023E+02 -0.14666975053E+02  0.58750145931E+02  0.00000000000E+00 0. -1.
         21    1    1    2  504  501  0.57722091627E+01 -0.65538461474E+02 -0.14035863033E+03  0.15501339761E+03  0.00000000000E+00 0.  1.
         21    1    1    2  505  503  0.51614527964E+02  0.32355376505E+02  0.36218771250E+03  0.36727492287E+03  0.00000000000E+00 0. -1.
          1    1    1    2  501    0 -0.82747840128E+02 -0.17741113054E+02  0.13274386122E+03  0.15742580738E+03  0.00000000000E+00 0. -1.
<scales pt_clust_3="56.88989" pt_clust_4="34.66533" pt_clust_5="14000.00000" pt_clust_6="64.28900"></scales>
<clustering>
<clus scale="   56.890">  2  3  1 -1</clus>
<clus scale="   34.665">  2  4  1 -1</clus>
<clus scale="   64.289">  2  6  1 -1</clus>
<clus scale="   56.890">  2  3  1 -1</clus>
</clustering>
</event>
<event>
 6    0  0.3584505E+002  0.1514028E+03  0.7546771E-02  0.1198760E+00
         21   -1    0    0  505  502  0.00000000000E+00  0.00000000000E+00  0.18523903482E+03  0.18523903482E+03  0.00000000000E+00 0. -1.
          2   -1    0    0  503    0 -0.00000000000E+00 -0.00000000000E+00 -0.24348663283E+04  0.24348663283E+04  0.00000000000E+00 0. -1.
         21    1    1    2  503  502  0.52470801895E+02  0.10165480770E+02  0.60252971247E+01  0.53785000291E+02  0.00000000000E+00 0.  1.
         21    1    1    2  504  501 -0.66745393157E+02 -0.56309347688E+02 -0.10131564849E+04  0.10169128542E+04  0.00000000000E+00 0. -1.
         21    1    1    2  505  504  0.65960756020E+02  0.63026924244E+02  0.13931396417E+03  0.16652806108E+03  0.00000000000E+00 0. -1.
          2    1    1    2  501    0 -0.51686164759E+02 -0.16883057326E+02 -0.13818100699E+04  0.13828794475E+04  0.00000000000E+00 0. -1.
<scales pt_clust_3="53.44644" pt_clust_4="48.35453" pt_clust_5="138.44739" pt_clust_6="48.35453"></scales>
<clustering>
<clus scale="   48.355">  4  6 -1 -1</clus>
<clus scale="   53.446">  1  3  2 -1</clus>
<clus scale="  138.447">  1  5  2 -1</clus>
<clus scale="   53.446">  1  3  2 -1</clus>
</clustering>
</event>
<event>
 6    0  0.3584505E+002  0.9603483E+02  0.7546771E-02  0.1288862E+00
          1   -1    0    0  504    0 -0.00000000000E+00  0.00000000000E+00  0.43645735890E+03  0.43645735890E+03  0.00000000000E+00 0.  1.
         21   -1    0    0  501  502  0.00000000000E+00 -0.00000000000E+00 -0.86808882190E+02  0.86808882190E+02  0.00000000000E+00 0. -1.
         21    1    1    2  503  505  0.24833669231E+02  0.10117612732E+03  0.47424618484E+02  0.11446577788E+03  0.00000000000E+00 0. -1.
         21    1    1    2  504  503  0.19978880417E+02 -0.47096858185E+02  0.80923860043E+02  0.95738920184E+02  0.00000000000E+00 0.  1.
         21    1    1    2  505  502 -0.28949735542E+02  0.87115772171E+01 -0.36417664718E+02  0.47331015931E+02  0.00000000000E+00 0. -1.
          1    1    1    2  501    0 -0.15862814107E+02 -0.62790846357E+02  0.25771766290E+03  0.26573052709E+03  0.00000000000E+00 0.  1.
<scales pt_clust_3="96.03483" pt_clust_4="48.12629" pt_clust_5="30.23208" pt_clust_6="14000.00000"></scales>
<clustering>
<clus scale="   30.232">  2  5  1 -1</clus>
<clus scale="   48.126">  1  4  2 -1</clus>
<clus scale="   96.035">  2  3  1 -1</clus>
<clus scale="   30.232">  2  3  1 -1</clus>
</clustering>
</event>
<event>
 6    0  0.3584505E+002  0.9268354E+02  0.7546771E-02  0.1296480E+00
         -2   -1    0    0    0  501 -0.00000000000E+00  0.00000000000E+00  0.24183466839E+03  0.24183466839E+03  0.00000000000E+00 0. -1.
         21   -1    0    0  504  502  0.00000000000E+00 -0.00000000000E+00 -0.15662619397E+03  0.15662619397E+03  0.00000000000E+00 0. -1.
         21    1    1    2  503  502 -0.37575876332E+02  0.41358127779E+01 -0.45480208639E+02  0.59139672025E+02  0.00000000000E+00 0. -1.
         21    1    1    2  504  501  0.88511656545E+02 -0.92331406139E+02 -0.11565550088E+02  0.12842571336E+03  0.00000000000E+00 0. -1.
         21    1    1    2  505  503 -0.27497727094E+02  0.27379837044E+02 -0.14269098555E+02  0.41344741449E+02  0.00000000000E+00 0.  1.
         -2    1    1    2    0  505 -0.23438053119E+02  0.60815756317E+02  0.15652333170E+03  0.16955073552E+03  0.00000000000E+00 0. -1.
<scales pt_clust_3="35.57795" pt_clust_4="85.38683" pt_clust_5="35.57795" pt_clust_6="65.17590"></scales>
<clustering>
<clus scale="   35.578">  3  5 -1 -1</clus>
<clus scale="   65.176">  1  6  2 -1</clus>
<clus scale="   85.387">  1  4  2 -1</clus>
<clus scale="   92.684">  2  3  1 -1</clus>
</clustering>
</event>
<event>
 6    0  0.3584505E+002  0.1145039E+03  0.7546771E-02  0.1252450E+00
          1   -1    0    0  504    0 -0.00000000000E+00  0.00000000000E+00  0.19368827828E+04  0.19368827828E+04  0.00000000000E+00 0.  1.
         21   -1    0    0  505  502  0.00000000000E+00 -0.00000000000E+00 -0.48755704727E+03  0.48755704727E+03  0.00000000000E+00 0.  1.
         21    1    1    2  503  502  0.13002642895E+03  0.71973488073E+00 -0.35149739262E+03  0.37477701005E+03  0.00000000000E+00 0.  1.
         21    1    1    2  504  503 -0.82307464833E+02  0.54960740674E+02 -0.97429716994E+02  0.13888034971E+03  0.00000000000E+00 0.  1.
         21    1    1    2  505  501 -0.19171996774E+02 -0.40767787665E+02  0.76751934644E+02  0.88996839511E+02  0.00000000000E+00 0.  1.
          1    1    1    2  501    0 -0.28546967344E+02 -0.14912687889E+02  0.18215009105E+04  0.18217856308E+04  0.00000000000E+00 0.  1.
<scales pt_clust_3="114.50391" pt_clust_4="14000.00000" pt_clust_5="65.02047" pt_clust_6="32.20742"></scales>
<clustering>
<clus scale="   32.207">  1  6  2 -1</clus>
<clus scale="   65.020">  1  5  2 -1</clus>
<clus scale="  114.504">  2  3  1 -1</clus>
<clus scale="  114.504">  2  3  1 -1</clus>
</clustering>
</event>
<event>
 6    0  0.3584505E+002  0.1116211E+03  0.7546771E-02  0.1257597E+00
         21   -1    0    0  505  502  0.00000000000E+00  0.00000000000E+00  0.31406074870E+03  0.31406074870E+03  0.00000000000E+00 0.  1.
          2   -1    0    0  503    0 -0.00000000000E+00 -0.00000000000E+00 -0.13440440575E+04  0.13440440575E+04  0.00000000000E+00 0.  1.
         21    1    1    2  503  502  0.19723306916E+02 -0.12839626678E+03 -0.21626392552E+03  0.25227900357E+03  0.00000000000E+00 0. -1.
         21    1    1    2  504  501  0.48544827268E+01  0.97570958041E+02 -0.44239890137E+02  0.10724190289E+03  0.00000000000E+00 0.  1.
         21    1    1    2  505  504 -0.45979364811E+02  0.95127956851E+01  0.26224613183E+03  0.26641627002E+03  0.00000000000E+00 0.  1.
          2    1    1    2  501    0  0.21401575168E+02  0.21312513057E+02 -0.10317256250E+04  0.10321676298E+04  0.00000000000E+00 0.  1.
<scales pt_clust_3="14000.00000" pt_clust_4="111.62109" pt_clust_5="46.84225" pt_clust_6="30.20349"></scales>
<clustering>
<clus scale="   30.203">  2  6  1 -1</clus>
<clus scale="   46.842">  1  5  2 -1</clus>
<clus scale="  111.621">  1  4  2 -1</clus>
<clus scale="   46.842">  1  3  2 -1</clus>
</clustering>
</event>
<event>
 6    0  0.3584505E+002  0.1046143E+03  0.7546771E-02  0.1270881E+00
         21   -1    0    0  503  502  0.00000000000E+00  0.00000000000E+00  0.11565122467E+04  0.11565122467E+04  0.00000000000E+00 0.  1.
          2   -1    0    0  505    0 -0.00000000000E+00 -0.00000000000E+00 -0.16831723400E+03  0.16831723400E+03  0.00000000000E+00 0. -1.
         21    1    1    2  503  501  0.17670577462E+02  0.28336047757E+02  0.94664845983E+03  0.94723729203E+03  0.00000000000E+00 0.  1.
         21    1    1    2  504  502  0.31943193859E+02  0.15268901315E+01  0.13175150418E+03  0.13557712890E+03  0.00000000000E+00 0.  1.
         21    1    1    2  505  504 -0.49572705675E+02 -0.11078602510E+03 -0.10411015032E+03  0.15990597207E+03  0.00000000000E+00 0. -1.
          2    1    1    2  501    0 -0.41065645727E-01  0.80923087207E+02  0.13905199053E+02  0.82109087744E+02  0.00000000000E+00 0. -1.
<scales pt_clust_3="55.82981" pt_clust_4="31.97967" pt_clust_5="104.61431" pt_clust_6="14000.00000"></scales>
<clustering>
<clus scale="   31.980">  1  4  2 -1</clus>
<clus scale="   55.830">  1  3  2 -1</clus>
<clus scale="  104.614">  2  5  1 -1</clus>
<clus scale="   31.980">  1  3  2 -1</clus>
</clustering>
</event>
<event>
 6    0  0.3584505E+002  0.1722762E+03  0.7546771E-02  0.1175495E+00
         21   -1    0    0  505  502  0.00000000000E+00  0.00000000000E+00  0.55927987371E+03  0.55927987371E+03  0.00000000000E+00 0. -1.
          1   -1    0    0  502    0 -0.00000000000E+00 -0.00000000000E+00 -0.11895181109E+04  0.11895181109E+04  0.00000000000E+00 0. -1.
         21    1    1    2  503  501 -0.15960349372E+03 -0.43090637022E+02 -0.13315261342E+03  0.21227269411E+03  0.00000000000E+00 0. -1.
         21    1    1    2  504  503  0.58254059638E+02  0.78663889126E+02  0.22916539027E+03  0.24919534308E+03  0.00000000000E+00 0. -1.
         21    1    1    2  505  504  0.65104580256E+02  0.26840807728E+02  0.27480046238E+03  0.28367997718E+03  0.00000000000E+00 0. -1.
          1    1    1    2  501    0  0.36244853824E+02 -0.62414059832E+02 -0.10010514764E+04  0.10036499703E+04  0.00000000000E+00 0. -1.
<scales pt_clust_3="161.40992" pt_clust_4="51.07404" pt_clust_5="51.07404" pt_clust_6="72.17482"></scales>
<clustering>
<clus scale="   51.074">  4  5 -1 -1</clus>
<clus scale="   72.175">  2  6  1 -1</clus>
<clus scale="  161.410">  2  3  1 -1</clus>
<clus scale="  172.276">  1  3  2 -1</clus>
</clustering>
</event>
<event>
 6    0  0.3584505E+002  0.1078133E+03  0.7546771E-02  0.1264674E+00
         21   -1    0    0  501  502  0.00000000000E+00  0.00000000000E+00  0.43820411944E+02  0.43820411944E+02  0.00000000000E+00 0. -1.
          2   -1    0    0  503    0 -0.00000000000E+00 -0.00000000000E+00 -0.21304344677E+04  0.21304344677E+04  0.00000000000E+00 0. -1.
         21    1    1    2  503  504  0.65273857750E+02 -0.12716624776E+03 -0.54454080595E+03  0.56298900559E+03  0.00000000000E+00 0. -1.
         21    1    1    2  504  505 -0.79055145974E+02  0.19065899377E+02 -0.49877367230E+02  0.95399037657E+02  0.00000000000E+00 0. -1.
         21    1    1    2  505  502  0.62709277147E+01  0.68288624595E+02 -0.90309602038E+02  0.11339526006E+03  0.00000000000E+00 0. -1.
          2    1    1    2  501    0  0.75103605092E+01  0.39811723791E+02 -0.14018862806E+04  0.14024715764E+04  0.00000000000E+00 0. -1.
<scales pt_clust_3="107.81330" pt_clust_4="14000.00000" pt_clust_5="74.21861" pt_clust_6="40.51393"></scales>
<clustering>
<clus scale="   40.514">  2  6  1 -1</clus>
<clus scale="   74.219">  1  5  2 -1</clus>
<clus scale="  107.813">  2  3  1 -1</clus>
<clus scale="   74.219">  1  3  2 -1</clus>
</clustering>
</event>
<event>
 6    0  0.3584505E+002  0.9755340E+02  0.7546771E-02  0.1285527E+00
         21   -1    0    0  504  502  0.00000000000E+00  0.00000000000E+00  0.48954503077E+02  0.48954503077E+02  0.00000000000E+00 0.  1.
          2   -1    0    0  503    0 -0.00000000000E+00 -0.00000000000E+00 -0.93330788624E+03  0.93330788624E+03  0.00000000000E+00 0. -1.
         21    1    1    2  503  502 -0.12013639318E+02 -0.11196432713E+03 -0.26871736934E+03  0.29135779149E+03  0.00000000000E+00 0. -1.
         21    1    1    2  504  505  0.59276194130E+02  0.76686254084E+02 -0.47434033338E+02  0.10790938919E+03  0.00000000000E+00 0.  1.
         21    1    1    2  505  501 -0.63339277846E+01  0.48484260934E+02 -0.86390232316E+02  0.99267892287E+02  0.00000000000E+00 0. -1.
          2    1    1    2  501    0 -0.40928627027E+02 -0.13206187887E+02 -0.48181174818E+03  0.48372731636E+03  0.00000000000E+00 0. -1.
<scales pt_clust_3="14000.00000" pt_clust_4="97.55340" pt_clust_5="48.08675" pt_clust_6="43.00646"></scales>
<clustering>
<clus scale="   43.006">  2  6  1 -1</clus>
<clus scale="   48.087">  2  5  1 -1</clus>
<clus scale="   97.553">  1  4  2 -1</clus>
<clus scale="   97.553">  1  3  2 -1</clus>
</clustering>
</event>
<event>
 6    0  0.3584505E+002  0.2655141E+03  0.7546771E-02  0.1103875E+00
         21   -1    0    0  505  502  0.00000000000E+00  0.00000000000E+00  0.27509941413E+03  0.27509941413E+03  0.00000000000E+00 0. -1.
          1   -1    0    0  504    0 -0.00000000000E+00 -0.00000000000E+00 -0.23170728293E+04  0.23170728293E+04  0.00000000000E+00 0. -1.
         21    1    1    2  503  502 -0.42941747522E+02  0.63982443480E+01  0.13102354660E+03  0.13802934824E+03  0.00000000000E+00 0. -1.
         21    1    1    2  504  503 -0.99834789825E+02  0.24499306369E+03 -0.59160201863E+02  0.27108765372E+03  0.00000000000E+00 0. -1.
         21    1    1    2  505  501  0.20659737495E+03 -0.14433951045E+03 -0.45988637673E+03  0.52441572165E+03  0.00000000000E+00 0. -1.
          1    1    1    2  501    0 -0.63820837607E+02 -0.10705179759E+03 -0.16539503831E+04  0.16586395198E+04  0.00000000000E+00 0. -1.
<scales pt_clust_3="43.41579" pt_clust_4="14000.00000" pt_clust_5="265.51414" pt_clust_6="124.90909"></scales>
<clustering>
<clus scale="   43.416">  1  3  2 -1</clus>
<clus scale="  124.909">  2  6  1 -1</clus>
<clus scale="  265.514">  2  5  1 -1</clus>
<clus scale="   43.416">  1  3  2 -1</clus>
</clustering>
</event>
<event>
 6    0  0.3584505E+002  0.1173667E+03  0.7546771E-02  0.1247506E+00
         21   -1    0    0  505  502  0.00000000000E+00  0.00000000000E+00  0.68782357012E+03  0.68782357012E+03  0.00000000000E+00 0. -1.
          2   -1    0    0  504    0 -0.00000000000E+00 -0.00000000000E+00 -0.11338989182E+04  0.11338989182E+04  0.00000000000E+00 0.  1.
         21    1    1    2  503  502 -0.10960144254E+03  0.33806318461E+02  0.61908364553E+03  0.62961885577E+03  0.00000000000E+00 0. -1.
         21    1    1    2  504  503  0.48303429612E+02  0.98605077436E+02 -0.33397604401E+03  0.35156248460E+03  0.00000000000E+00 0.  1.
         21    1    1    2  505  501  0.48986478442E+02 -0.44149695693E+01  0.37077006576E+02  0.61594410811E+02  0.00000000000E+00 0. -1.
          2    1    1    2  501    0  0.12311534489E+02 -0.12799642633E+03 -0.76825995618E+03  0.77894673714E+03  0.00000000000E+00 0.  1.
<scales pt_clust_3="68.38452" pt_clust_4="117.36665" pt_clust_5="49.18503" pt_clust_6="14000.00000"></scales>
<clustering>
<clus scale="   49.185">  1  5  2 -1</clus>
<clus scale="   68.385">  1  3  2 -1</clus>
<clus scale="  117.367">  1  4  2 -1</clus>
<clus scale="   49.185">  1  3  2 -1</clus>
</clustering>
</event>
<event>
 6    0  0.3584505E+002  0.9392283E+02  0.7546771E-02  0.1293621E+00
         21   -1    0    0  504  502  0.00000000000E+00  0.00000000000E+00  0.11576910623E+04  0.11576910623E+04  0.00000000000E+00 0.  1.
          1   -1    0    0  505    0 -0.00000000000E+00 -0.00000000000E+00 -0.15822083357E+04  0.15822083357E+04  0.00000000000E+00 0.  1.
         21    1    1    2  503  501  0.57303610940E+02 -0.27245750088E+02 -0.18774070054E+03  0.19817317014E+03  0.00000000000E+00 0. -1.
         21    1    1    2  504  503 -0.58586179093E+02 -0.33696216023E+02  0.10299213114E+04  0.10321364653E+04  0.00000000000E+00 0.  1.
         21    1    1    2  505  502 -0.60087347318E+01  0.11044039843E+03  0.95708802179E+02  0.14626469606E+03  0.00000000000E+00 0.  1.
          1    1    1    2  501    0  0.72913028847E+01 -0.49498432320E+02 -0.13624066864E+04  0.13633250665E+04  0.00000000000E+00 0.  1.
<scales pt_clust_3="93.92283" pt_clust_4="67.67843" pt_clust_5="14000.00000" pt_clust_6="50.03257"></scales>
<clustering>
<clus scale="   50.033">  2  6  1 -1</clus>
<clus scale="   67.678">  1  4  2 -1</clus>
<clus scale="   93.923">  2  3  1 -1</clus>
<clus scale="   67.678">  1  3  2 -1</clus>
</clustering>
</event>
<event>
 6    0  0.3584505E+002  0.1497094E+03  0.7546771E-02  0.1200831E+00
          4   -1    0    0  503    0 -0.00000000000E+00  0.00000000000E+00  0.78100500206E+03  0.78100500206E+03  0.00000000000E+00 0.  1.
         21   -1    0    0  504  502  0.00000000000E+00 -0.00000000000E+00 -0.51563497877E+03  0.51563497877E+03  0.00000000000E+00 0. -1.
         21    1    1    2  503  505  0.41447128836E+02  0.15064458951E+03 -0.43768346318E+03  0.46473483922E+03  0.00000000000E+00 0. -1.
         21    1    1    2  504  501 -0.51624273404E+02 -0.10631311317E+03  0.30342772267E+03  0.32563158097E+03  0.00000000000E+00 0.  1.
         21    1    1    2  505  502 -0.34092336120E+02  0.12706756284E+01 -0.45368004202E+02  0.56764053801E+02  0.00000000000E+00 0. -1.
          4    1    1    2  501    0  0.44269480689E+02 -0.45602151962E+02  0.44499376800E+03  0.44950950684E+03  0.00000000000E+00 0.  1.
<scales pt_clust_3="14000.00000" pt_clust_4="149.70939" pt_clust_5="34.11601" pt_clust_6="63.43609"></scales>
<clustering>
<clus scale="   34.116">  2  5  1 -1</clus>
<clus scale="   63.436">  1  6  2 -1</clus>
<clus scale="  149.709">  1  4  2 -1</clus>
<clus scale="   34.116">  2  3  1 -1</clus>
</clustering>
</event>
<event>
 6    0  0.3584505E+002  0.2395750E+03  0.7546771E-02  0.1120076E+00
          1   -1    0    0  505    0 -0.00000000000E+00  0.00000000000E+00  0.38128982367E+03  0.38128982367E+03  0.00000000000E+00 0.  1.
         21   -1    0    0  503  502  0.00000000000E+00 -0.00000000000E+00 -0.46662379688E+03  0.46662379688E+03  0.00000000000E+00 0. -1.
         21    1    1    2  503  501 -0.18185044887E+03 -0.19664560818E+03 -0.21781345572E+03  0.34522714619E+03  0.00000000000E+00 0. -1.
         21    1    1    2  504  502 -0.49796578726E+02  0.16543020828E+03  0.45741175437E+02  0.17871515939E+03  0.00000000000E+00 0. -1.
         21    1    1    2  505  504  0.90233266501E+02 -0.88798284589E+02  0.31819944276E+02  0.13053615048E+03  0.00000000000E+00 0. -1.
          1    1    1    2  501    0  0.14141376110E+03  0.12001368449E+03  0.54918362800E+02  0.19343516450E+03  0.00000000000E+00 0.  1.
<scales pt_clust_3="239.57504" pt_clust_4="133.19465" pt_clust_5="126.59849" pt_clust_6="14000.00000"></scales>
<clustering>
<clus scale="  126.598">  1  5  2 -1</clus>
<clus scale="  133.195">  1  4  2 -1</clus>
<clus scale="  239.575">  2  3  1 -1</clus>
<clus scale="  239.575">  2  3  1 -1</clus>
</clustering>
</event>
<event>
 6    0  0.3584505E+002  0.1885140E+03  0.7546771E-02  0.1159808E+00
          2   -1    0    0  504    0 -0.00000000000E+00  0.00000000000E+00  0.21023904410E+04  0.21023904410E+04  0.00000000000E+00 0. -1.
         21   -1    0    0  505  502  0.00000000000E+00 -0.00000000000E+00 -0.21967862884E+03  0.21967862884E+03  0.00000000000E+00 0.  1.
         21    1    1    2  503  501 -0.44652183427E+02  0.36609056177E+02 -0.28027446464E+02  0.64183940626E+02  0.00000000000E+00 0.  1.
         21    1    1    2  504  502 -0.55414654847E+02 -0.32626496495E+02 -0.68890326704E+02  0.94239850162E+02  0.00000000000E+00 0.  1.
         21    1    1    2  505  503 -0.21816699864E+02  0.12653265381E+03 -0.41271426626E+02  0.13486960936E+03  0.00000000000E+00 0.  1.
          2    1    1    2  501    0  0.12188353814E+03 -0.13051521349E+03  0.20209010119E+04  0.20287756697E+04  0.00000000000E+00 0. -1.
<scales pt_clust_3="41.26562" pt_clust_4="64.30608" pt_clust_5="41.26562" pt_clust_6="178.18775"></scales>
<clustering>
<clus scale="   41.266">  3  5 -1 -1</clus>
<clus scale="   64.306">  2  4  1 -1</clus>
<clus scale="  178.188">  1  6  2 -1</clus>
<clus scale="   64.306">  2  3  1 -1</clus>
</clustering>
</event>
<event>
 6    0  0.3584505E+002  0.9806192E+02  0.7546771E-02  0.1284425E+00
          2   -1    0    0  503    0 -0.00000000000E+00  0.00000000000E+00  0.30133119919E+04  0.30133119919E+04  0.00000000000E+00 0.  1.
         21   -1    0    0  505  502  0.00000000000E+00 -0.00000000000E+00 -0.28883473984E+02  0.28883473984E+02  0.00000000000E+00 0.  1.
         21    1    1    2  503  504  0.98464702202E+01  0.94671074346E+02  0.93427166224E+03  0.93910761053E+03  0.00000000000E+00 0.  1.
         21    1    1    2  504  502 -0.12524413552E+03 -0.67735643044E+00  0.15744056610E+03  0.20118171922E+03  0.00000000000E+00 0.  1.
         21    1    1    2  505  501  0.31957284678E+02  0.79182917039E+00  0.10556579501E+03  0.11029973759E+03  0.00000000000E+00 0. -1.
          2    1    1    2  501    0  0.83440380623E+02 -0.94785547086E+02  0.17871504946E+04  0.17916063986E+04  0.00000000000E+00 0.  1.
<scales pt_clust_3="95.59875" pt_clust_4="14000.00000" pt_clust_5="31.96709" pt_clust_6="98.06192"></scales>
<clustering>
<clus scale="   31.967">  2  5  1 -1</clus>
<clus scale="   95.599">  1  3  2 -1</clus>
<clus scale="   98.062">  1  6  2 -1</clus>
<clus scale="   31.967">  2  3  1 -1</clus>
</clustering>
</event>
<event>
 6    0  0.3584505E+002  0.2034550E+03  0.7546771E-02  0.1146856E+00
         -3   -1    0    0    0  501 -0.00000000000E+00  0.00000000000E+00  0.25669042536E+03  0.25669042536E+03  0.00000000000E+00 0.  1.
         21   -1    0    0  504  502  0.00000000000E+00 -0.00000000000E+00 -0.44022091984E+03  0.44022091984E+03  0.00000000000E+00 0.  1.
         21    1    1    2  503  505  0.22799143342E+03 -0.74983745057E+02 -0.13763667721E+02  0.24039986332E+03  0.00000000000E+00 0.  1.
         21    1    1    2  504  501 -0.15281265336E+03  0.82056815711E+02 -0.83896867872E+02  0.19267514752E+03  0.00000000000E+00 0.  1.
         21    1    1    2  505  502 -0.36923613647E+02 -0.24270151748E+00 -0.16851397091E+03  0.17251194318E+03  0.00000000000E+00 0.  1.
         -3    1    1    2    0  503 -0.38255166413E+02 -0.68303691360E+01  0.82644012025E+02  0.91324391175E+02  0.00000000000E+00 0.  1.
<scales pt_clust_3="203.45504" pt_clust_4="14000.00000" pt_clust_5="36.92441" pt_clust_6="39.44590"></scales>
<clustering>
<clus scale="   36.924">  2  5  1 -1</clus>
<clus scale="   39.446">  1  6  2 -1</clus>
<clus scale="  203.455">  1  3  2 -1</clus>
<clus scale="   36.924">  2  3  1 -1</clus>
</clustering>
</event>
<event>
 6    0  0.3584505E+002  0.1572954E+03  0.7546771E-02  0.1191784E+00
         21   -1    0    0  501  502  0.00000000000E+00  0.00000000000E+00  0.61069545878E+03  0.61069545878E+03  0.00000000000E+00 0.  1.
          1   -1    0    0  503    0 -0.00000000000E+00 -0.00000000000E+00 -0.16221313780E+04  0.16221313780E+04  0.00000000000E+00 0. -1.
         21    1    1    2  503  505 -0.41359521679E+02 -0.14971670861E+03 -0.16467034029E+03  0.22636701138E+03  0.00000000000E+00 0.  1.
         21    1    1    2  504  502 -0.64974184268E+02  0.41323435867E+02  0.41043701848E+03  0.41759767374E+03  0.00000000000E+00 0.  1.
         21    1    1    2  505  504  0.66980963307E+02  0.12442641385E+03  0.13534299635E+03  0.19566836375E+03  0.00000000000E+00 0.  1.
          1    1    1    2  501    0  0.39352742640E+02 -0.16033141107E+02 -0.13925455937E+04  0.13931937879E+04  0.00000000000E+00 0. -1.
<scales pt_clust_3="157.29543" pt_clust_4="76.34891" pt_clust_5="14000.00000" pt_clust_6="42.49353"></scales>
<clustering>
<clus scale="   42.494">  2  6  1 -1</clus>
<clus scale="   76.349">  1  4  2 -1</clus>
<clus scale="  157.295">  2  3  1 -1</clus>
<clus scale="   76.349">  1  3  2 -1</clus>
</clustering>
</event>
<event>
 6    0  0.3584505E+002  0.1317587E+03  0.7546771E-02  0.1224869E+00
         21   -1    0    0  505  502  0.00000000000E+00  0.00000000000E+00  0.13874399977E+03  0.13874399977E+03  0.00000000000E+00 0.  1.
          2   -1    0    0  504    0 -0.00000000000E+00 -0.00000000000E+00 -0.24732817030E+04  0.24732817030E+04  0.00000000000E+00 0. -1.
         21    1    1    2  503  501  0.45149942935E+02  0.69578857256E+02  0.67305264194E+02  0.10681635321E+03  0.00000000000E+00 0.  1.
         21    1    1    2  504  502  0.37517503289E+02 -0.33183536028E+02 -0.30946424494E+03  0.31349135397E+03  0.00000000000E+00 0.  1.
         21    1    1    2  505  503 -0.20868389406E+02  0.44421041265E+02  0.36026870793E+02  0.60882296298E+02  0.00000000000E+00 0.  1.
          2    1    1    2  501    0 -0.61799056818E+02 -0.80816362493E+02 -0.21284055933E+04  0.21308356993E+04  0.00000000000E+00 0. -1.
<scales pt_clust_3="47.78949" pt_clust_4="50.08703" pt_clust_5="47.78949" pt_clust_6="116.19215"></scales>
<clustering>
<clus scale="   47.789">  3  5 -1 -1</clus>
<clus scale="   50.087">  2  4  1 -1</clus>
<clus scale="  116.192">  2  6  1 -1</clus>
<clus scale="  131.759">  1  3  2 -1</clus>
</clustering>
</event>
<event>
 6    0  0.3584505E+002  0.7133189E+02  0.7546771E-02  0.1355622E+00
         21   -1    0    0  504  502  0.00000000000E+00  0.00000000000E+00  0.98453795454E+02  0.98453795454E+02  0.00000000000E+00 0.  1.
          2   -1    0    0  503    0 -0.00000000000E+00 -0.00000000000E+00 -0.15020217936E+04  0.15020217936E+04  0.00000000000E+00 0. -1.
         21    1    1    2  503  505 -0.40308397641E+02 -0.78551812091E+02 -0.12389408033E+03  0.15213447092E+03  0.00000000000E+00 0.  1.
         21    1    1    2  504  501 -0.97060336040E+01  0.68652485680E+02 -0.15723255391E+03  0.17184134219E+03  0.00000000000E+00 0.  1.
         21    1    1    2  505  502  0.72049220482E+01 -0.45722971183E+02  0.68948290029E+02  0.83044371835E+02  0.00000000000E+00 0.  1.
          2    1    1    2  501    0  0.42809509197E+02  0.55622297595E+02 -0.11913896540E+04  0.11934554041E+04  0.00000000000E+00 0. -1.
<scales pt_clust_3="71.33189" pt_clust_4="54.28251" pt_clust_5="46.28716" pt_clust_6="14000.00000"></scales>
<clustering>
<clus scale="   46.287">  1  5  2 -1</clus>
<clus scale="   54.283">  1  4  2 -1</clus>
<clus scale="   71.332">  1  3  2 -1</clus>
<clus scale="   46.287">  1  3  2 -1</clus>
</clustering>
</event>
<event>
 6    0  0.3584505E+002  0.8264375E+02  0.7546771E-02  0.1321712E+00
          1   -1    0    0  504    0 -0.00000000000E+00  0.00000000000E+00  0.45862919702E+03  0.45862919702E+03  0.00000000000E+00 0.  1.
         21   -1    0    0  505  502  0.00000000000E+00 -0.00000000000E+00 -0.77515524637E+03  0.77515524637E+03  0.00000000000E+00 0.  1.
         21    1    1    2  503  502 -0.32561198939E+02  0.25635612964E+02 -0.24067079601E+03  0.24421271134E+03  0.00000000000E+00 0.  1.
         21    1    1    2  504  503  0.81551111828E+02 -0.96643033488E+02 -0.50525669338E+03  0.52084046115E+03  0.00000000000E+00 0.  1.
         21    1    1    2  505  501 -0.29954049481E+02  0.41021455746E+02  0.15213395510E+02  0.53023129998E+02  0.00000000000E+00 0.  1.
          1    1    1    2  501    0 -0.19035863408E+02  0.29985964779E+02  0.41418804453E+03  0.41570814090E+03  0.00000000000E+00 0.  1.
<scales pt_clust_3="42.80281" pt_clust_4="14000.00000" pt_clust_5="82.64375" pt_clust_6="35.51791"></scales>
<clustering>
<clus scale="   35.518">  1  6  2 -1</clus>
<clus scale="   42.803">  2  3  1 -1</clus>
<clus scale="   82.644">  1  5  2 -1</clus>
<clus scale="   42.803">  2  3  1 -1</clus>
</clustering>
</event>
<event>
 6    0  0.3584505E+002  0.7178557E+02  0.7546771E-02  0.1354124E+00
          2   -1    0    0  503    0 -0.00000000000E+00  0.00000000000E+00  0.33281461191E+04  0.33281461191E+04  0.00000000000E+00 0.  1.
         21   -1    0    0  505  502  0.00000000000E+00 -0.00000000000E+00 -0.13522778148E+02  0.13522778148E+02  0.00000000000E+00 0.  1.
         21    1    1    2  503  504 -0.93463200701E+02  0.40804392943E+02  0.19423204370E+04  0.19449958994E+04  0.00000000000E+00 0.  1.
         21    1    1    2  504  502 -0.14167271621E+02 -0.27620291818E+02  0.51812918736E+02  0.60400088189E+02  0.00000000000E+00 0.  1.
         21    1    1    2  505  501  0.80315159297E+02  0.25287962112E+02  0.23279574392E+03  0.24755578004E+03  0.00000000000E+00 0.  1.
          2    1    1    2  501    0  0.27315313025E+02 -0.38472063237E+02  0.10876942413E+04  0.10887171297E+04  0.00000000000E+00 0.  1.
<scales pt_clust_3="71.78557" pt_clust_4="31.04178" pt_clust_5="14000.00000" pt_clust_6="48.00069"></scales>
<clustering>
<clus scale="   31.042">  2  4  1 -1</clus>
<clus scale="   48.001">  1  6  2 -1</clus>
<clus scale="   71.786">  1  3  2 -1</clus>
<clus scale="   31.042">  2  3  1 -1</clus>
</clustering>
</event>
<event>
 6    0  0.3584505E+002  0.1191364E+03  0.7546771E-02  0.1244528E+00
         21   -1    0    0  503  502  0.00000000000E+00  0.00000000000E+00  0.44272854837E+02  0.44272854837E+02  0.00000000000E+00 0. -1.
          2   -1    0    0  505    0 -0.00000000000E+00 -0.00000000000E+00 -0.24757785904E+04  0.24757785904E+04  0.00000000000E+00 0.  1.
         21    1    1    2  503  504 -0.69788410838E+02  0.15946611336E+02 -0.17431404443E+02  0.73678833876E+02  0.00000000000E+00 0. -1.
         21    1    1    2  504  501  0.12030361179E+02 -0.55688323017E+02 -0.10534957945E+04  0.10550352165E+04  0.00000000000E+00 0.  1.
         21    1    1    2  505  502 -0.26446467247E+01  0.61224777553E+02 -0.49727281955E+02  0.78919389970E+02  0.00000000000E+00 0.  1.
          2    1    1    2  501    0  0.60402696384E+02 -0.21483065872E+02 -0.13108512547E+04  0.13124180049E+04  0.00000000000E+00 0.  1.
<scales pt_clust_3="103.42958" pt_clust_4="55.73757" pt_clust_5="61.28187" pt_clust_6="55.73757"></scales>
<clustering>
<clus scale="   55.738">  4  6 -1 -1</clus>
<clus scale="   61.282">  1  5  2 -1</clus>
<clus scale="  103.430">  1  3  2 -1</clus>
<clus scale="   61.282">  1  3  2 -1</clus>
</clustering>
</event>
<event>
 6    0  0.3584505E+002  0.2268475E+03  0.7546771E-02  0.1128878E+00
         21   -1    0    0  503  502  0.00000000000E+00  0.00000000000E+00  0.37211447251E+03  0.37211447251E+03  0.00000000000E+00 0.  1.
          2   -1    0    0  505    0 -0.00000000000E+00 -0.00000000000E+00 -0.89051109741E+03  0.89051109741E+03  0.00000000000E+00 0.  1.
         21    1    1    2  503  504  0.89926474414E+02  0.88226275151E+01  0.17706543025E+03  0.19878826964E+03  0.00000000000E+00 0.  1.
         21    1    1    2  504  501 -0.97034230465E+02 -0.93786026990E+02 -0.41065184953E+03  0.43225733338E+03  0.00000000000E+00 0.  1.
         21    1    1    2  505  502  0.44250556369E+01  0.17698856774E+03  0.12165905231E+03  0.21481494184E+03  0.00000000000E+00 0.  1.
          2    1    1    2  501    0  0.26827004141E+01 -0.92025168268E+02 -0.40646925793E+03  0.41676502506E+03  0.00000000000E+00 0.  1.
<scales pt_clust_3="90.35823" pt_clust_4="81.44847" pt_clust_5="204.29332" pt_clust_6="81.44847"></scales>
<clustering>
<clus scale="   81.448">  4  6 -1 -1</clus>
<clus scale="   90.358">  1  3  2 -1</clus>
<clus scale="  204.293">  1  5  2 -1</clus>
<clus scale="   90.358">  1  3  2 -1</clus>
</clustering>
</event>
<event>
 6    0  0.3584505E+002  0.3598896E+03  0.7546771E-02  0.1058628E+00
         21   -1    0    0  505  502  0.00000000000E+00  0.00000000000E+00  0.54675175042E+03  0.54675175042E+03  0.00000000000E+00 0. -1.
          2   -1    0    0  504    0 -0.00000000000E+00 -0.00000000000E+00 -0.81911692073E+03  0.81911692073E+03  0.00000000000E+00 0. -1.
         21    1    1    2  503  502  0.22831064151E+02 -0.42589757884E+02  0.14470008111E+03  0.15255575518E+03  0.00000000000E+00 0. -1.
         21    1    1    2  504  503 -0.35513098053E+03 -0.41767613718E+02  0.16277118835E+03  0.39288294268E+03  0.00000000000E+00 0. -1.
         21    1    1    2  505  501 -0.26691026935E+02  0.13107625881E+03  0.35878642791E+01  0.13381430907E+03  0.00000000000E+00 0.  1.
          2    1    1    2  501    0  0.35899094332E+03 -0.46718887207E+02 -0.58342430404E+03  0.68661566422E+03  0.00000000000E+00 0. -1.
<scales pt_clust_3="48.32334" pt_clust_4="14000.00000" pt_clust_5="125.80127" pt_clust_6="359.88965"></scales>
<clustering>
<clus scale="   48.323">  1  3  2 -1</clus>
<clus scale="  125.801">  1  5  2 -1</clus>
<clus scale="  359.890">  2  6  1 -1</clus>
<clus scale="   48.323">  1  3  2 -1</clus>
</clustering>
</event>
<event>
 6    0  0.3584505E+002  0.1556085E+03  0.7546771E-02  0.1193746E+00
         21   -1    0    0  504  502  0.00000000000E+00  0.00000000000E+00  0.41087536091E+03  0.41087536091E+03  0.00000000000E+00 0. -1.
          2   -1    0    0  505    0 -0.00000000000E+00 -0.00000000000E+00 -0.46010049619E+03  0.46010049619E+03  0.00000000000E+00 0. -1.
         21    1    1    2  503  502 -0.39763880764E+02  0.11584062667E+02  0.23177745985E+03  0.23544882165E+03  0.00000000000E+00 0. -1.
         21    1    1    2  504  501 -0.78565477660E+01  0.43585954836E+02  0.54691120235E+01  0.44624791183E+02  0.00000000000E+00 0. -1.
         21    1    1    2  505  503  0.81724118572E+02 -0.20011844433E+03  0.50948832285E+02  0.22208558447E+03  0.00000000000E+00 0. -1.
          2    1    1    2  501    0 -0.34103690042E+02  0.14494842682E+03 -0.33742053944E+03  0.36881665980E+03  0.00000000000E+00 0. -1.
<scales pt_clust_3="41.41687" pt_clust_4="47.18769" pt_clust_5="155.60851" pt_clust_6="14000.00000"></scales>
<clustering>
<clus scale="   41.417">  1  3  2 -1</clus>
<clus scale="   47.188">  1  4  2 -1</clus>
<clus scale="  155.609">  1  5  2 -1</clus>
<clus scale="   41.417">  1  3  2 -1</clus>
</clustering>
</event>
<event>
 6    0  0.3584505E+002  0.1121933E+03  0.7546771E-02  0.1256561E+00
         21   -1    0    0  504  502  0.00000000000E+00  0.00000000000E+00  0.40250770729E+03  0.40250770729E+03  0.00000000000E+00 0.  1.
          3   -1    0    0  503    0 -0.00000000000E+00 -0.00000000000E+00 -0.21496761954E+04  0.21496761954E+04  0.00000000000E+00 0.  1.
         21    1    1    2  503  502  0.53505272371E+02 -0.13670517800E+02  0.36152742955E+03  0.36572090390E+03  0.00000000000E+00 0.  1.
         21    1    1    2  504  505  0.51892729670E+02 -0.59014225986E+02 -0.20321435801E+02  0.81169544870E+02  0.00000000000E+00 0.  1.
         21    1    1    2  505  501 -0.37742172077E+02  0.11637181071E+03 -0.49532136540E+03  0.51020596322E+03  0.00000000000E+00 0.  1.
          3    1    1    2  501    0 -0.67655829964E+02 -0.43687066920E+02 -0.15930531164E+04  0.15950874907E+04  0.00000000000E+00 0.  1.
<scales pt_clust_3="55.22406" pt_clust_4="14000.00000" pt_clust_5="112.19330" pt_clust_6="79.56011"></scales>
<clustering>
<clus scale="   55.224">  1  3  2 -1</clus>
<clus scale="   79.560">  2  6  1 -1</clus>
<clus scale="  112.193">  2  5  1 -1</clus>
<clus scale="   55.224">  1  3  2 -1</clus>
</clustering>
</event>
<event>
 6    0  0.3584505E+002  0.8302873E+02  0.7546771E-02  0.1320670E+00
         21   -1    0    0  501  502  0.00000000000E+00  0.00000000000E+00  0.62118531618E+03  0.62118531618E+03  0.00000000000E+00 0. -1.
          2   -1    0    0  503    0 -0.00000000000E+00 -0.00000000000E+00 -0.20476598657E+04  0.20476598657E+04  0.00000000000E+00 0. -1.
         21    1    1    2  503  504  0.98911499341E+02 -0.26273367764E+02 -0.64710994048E+02  0.12108380282E+03  0.00000000000E+00 0. -1.
         21    1    1    2  504  505  0.13051081885E+02  0.10898654564E+03  0.16351417971E+03  0.19693980003E+03  0.00000000000E+00 0. -1.
         21    1    1    2  505  502 -0.32908176308E+02 -0.57740383062E+02  0.40920316365E+03  0.41456498773E+03  0.00000000000E+00 0. -1.
          2    1    1    2  501    0 -0.79054404918E+02 -0.24972794815E+02 -0.19344808989E+04  0.19362565913E+04  0.00000000000E+00 0. -1.
<scales pt_clust_3="14000.00000" pt_clust_4="61.20642" pt_clust_5="66.45976" pt_clust_6="83.02873"></scales>
<clustering>
<clus scale="   66.460">  1  5  2 -1</clus>
<clus scale="   61.206">  1  4  2 -1</clus>
<clus scale="   83.029">  2  6  1 -1</clus>
<clus scale="   66.460">  1  3  2 -1</clus>
</clustering>
</event>
<event>
 6    0  0.3584505E+002  0.9271185E+02  0.7546771E-02  0.1296414E+00
         21   -1    0    0  504  502  0.00000000000E+00  0.00000000000E+00  0.17281777967E+03  0.17281777967E+03  0.00000000000E+00 0.  1.
          2   -1    0    0  505    0 -0.00000000000E+00 -0.00000000000E+00 -0.93280097911E+03  0.93280097911E+03  0.00000000000E+00 0.  1.
         21    1    1    2  503  501  0.54944402795E+02 -0.30096715881E+02 -0.21034408185E+03  0.21947512951E+03  0.00000000000E+00 0.  1.
         21    1    1    2  504  503  0.66512330810E+02  0.67517196699E+02  0.10708488762E+03  0.14300222081E+03  0.00000000000E+00 0.  1.
         21    1    1    2  505  502 -0.10157679188E+03 -0.13341141060E+02 -0.18441686126E+02  0.10409575630E+03  0.00000000000E+00 0.  1.
          2    1    1    2  501    0 -0.19879941730E+02 -0.24079339757E+02 -0.63828231908E+03  0.63904565216E+03  0.00000000000E+00 0.  1.
<scales pt_clust_3="62.51452" pt_clust_4="92.71185" pt_clust_5="14000.00000" pt_clust_6="31.22542"></scales>
<clustering>
<clus scale="   31.225">  2  6  1 -1</clus>
<clus scale="   62.515">  2  3  1 -1</clus>
<clus scale="   92.712">  1  4  2 -1</clus>
<clus scale="   92.712">  1  3  2 -1</clus>
</clustering>
</event>
<event>
 6    0  0.3584505E+002  0.8847411E+02  0.7546771E-02  0.1306589E+00
         21   -1    0    0  504  502  0.00000000000E+00  0.00000000000E+00  0.92316569711E+02  0.92316569711E+02  0.00000000000E+00 0.  1.
         -1   -1    0    0    0  501 -0.00000000000E+00 -0.00000000000E+00 -0.50494251765E+03  0.50494251765E+03  0.00000000000E+00 0.  1.
         21    1    1    2  503  502  0.24104030891E+02 -0.33278582115E+02  0.34853159675E+01  0.41238522769E+02  0.00000000000E+00 0. -1.
         21    1    1    2  504  501 -0.91741004916E+02  0.94734192056E+02 -0.50690722253E+01  0.13197224943E+03  0.00000000000E+00 0.  1.
         21    1    1    2  505  503  0.53221912358E+02 -0.32871821878E+02 -0.17498390660E+03  0.18582921245E+03  0.00000000000E+00 0.  1.
         -1    1    1    2    0  505  0.14415061668E+02 -0.28583788063E+02 -0.23605828507E+03  0.23821910271E+03  0.00000000000E+00 0.  1.
<scales pt_clust_3="43.32021" pt_clust_4="88.47411" pt_clust_5="14000.00000" pt_clust_6="32.01292"></scales>
<clustering>
<clus scale="   32.013">  2  6  1 -1</clus>
<clus scale="   43.320">  1  3  2 -1</clus>
<clus scale="   88.474">  1  4  2 -1</clus>
<clus scale="   43.320">  1  3  2 -1</clus>
</clustering>
</event>
<event>
 6    0  0.3584505E+002  0.1056978E+03  0.7546771E-02  0.1268751E+00
         21   -1    0    0  504  502  0.00000000000E+00  0.00000000000E+00  0.28518142686E+04  0.28518142686E+04  0.00000000000E+00 0.  1.
         -4   -1    0    0    0  501 -0.00000000000E+00 -0.00000000000E+00 -0.15271628287E+03  0.15271628287E+03  0.00000000000E+00 0.  1.
         21    1    1    2  503  502 -0.45197241850E+02 -0.53181368112E+02  0.49760257795E+02  0.85715411922E+02  0.00000000000E+00 0.  1.
         21    1    1    2  504  505  0.33863447344E+02  0.13122057636E+02  0.22202796076E+04  0.22205766047E+04  0.00000000000E+00 0.  1.
         21    1    1    2  505  501  0.96095679245E+02 -0.24039511332E+02  0.53741476284E+03  0.54646766143E+03  0.00000000000E+00 0.  1.
         -4    1    1    2    0  503 -0.84761884738E+02  0.64098821808E+02 -0.10835664247E+03  0.15177087345E+03  0.00000000000E+00 0.  1.
<scales pt_clust_3="66.39343" pt_clust_4="36.31696" pt_clust_5="105.69779" pt_clust_6="14000.00000"></scales>
<clustering>
<clus scale="   36.317">  1  4  2 -1</clus>
<clus scale="   66.393">  1  3  2 -1</clus>
<clus scale="  105.698">  1  5  2 -1</clus>
<clus scale="   36.317">  1  3  2 -1</clus>
</clustering>
</event>
<event>
 6    0  0.3584505E+002  0.1354894E+03  0.7546771E-02  0.1219530E+00
         21   -1    0    0  503  502  0.00000000000E+00  0.00000000000E+00  0.28416180085E+03  0.28416180085E+03  0.00000000000E+00 0. -1.
          2   -1    0    0  502    0 -0.00000000000E+00 -0.00000000000E+00 -0.17257943168E+04  0.17257943168E+04  0.00000000000E+00 0. -1.
         21    1    1    2  503  504 -0.19133589928E+02  0.26013299211E+02  0.24430077296E+03  0.24642575691E+03  0.00000000000E+00 0. -1.
         21    1    1    2  504  505 -0.20266926220E+02  0.14079694591E+03 -0.13341042921E+03  0.19502018074E+03  0.00000000000E+00 0. -1.
         21    1    1    2  505  501  0.38241623319E+02 -0.91420171970E+02 -0.35373175564E+03  0.36735027500E+03  0.00000000000E+00 0. -1.
          2    1    1    2  501    0  0.11588928284E+01 -0.75390073150E+02 -0.11987911040E+04  0.12011599049E+04  0.00000000000E+00 0. -1.
<scales pt_clust_3="32.29220" pt_clust_4="135.48945" pt_clust_5="14000.00000" pt_clust_6="74.59818"></scales>
<clustering>
<clus scale="   32.292">  1  3  2 -1</clus>
<clus scale="   74.598">  2  6  1 -1</clus>
<clus scale="  135.489">  1  4  2 -1</clus>
<clus scale="   32.292">  1  3  2 -1</clus>
</clustering>
</event>
<event>
 6    0  0.3584505E+002  0.1212956E+03  0.7546771E-02  0.1240975E+00
         21   -1    0    0  504  502  0.00000000000E+00  0.00000000000E+00  0.14339292123E+04  0.14339292123E+04  0.00000000000E+00 0. -1.
          2   -1    0    0  505    0 -0.00000000000E+00 -0.00000000000E+00 -0.53983752370E+02  0.53983752370E+02  0.00000000000E+00 0. -1.
         21    1    1    2  503  502 -0.31879001612E+02 -0.10167916717E+03  0.94547435121E+03  0.95146028429E+03  0.00000000000E+00 0. -1.
         21    1    1    2  504  501 -0.71706211701E+02  0.24031846893E+02  0.29028015123E+03  0.29996979291E+03  0.00000000000E+00 0. -1.
         21    1    1    2  505  503  0.79404309549E+02  0.95628528318E+02  0.15987734305E+03  0.20251080125E+03  0.00000000000E+00 0. -1.
          2    1    1    2  501    0  0.24180903763E+02 -0.17981208042E+02 -0.15686385567E+02  0.33972086212E+02  0.00000000000E+00 0. -1.
<scales pt_clust_3="121.29558" pt_clust_4="70.88365" pt_clust_5="14000.00000" pt_clust_6="30.13370"></scales>
<clustering>
<clus scale="   30.134">  2  6  1 -1</clus>
<clus scale="   70.884">  1  4  2 -1</clus>
<clus scale="  121.296">  1  3  2 -1</clus>
<clus scale="   70.884">  1  3  2 -1</clus>
</clustering>
</event>
<event>
 6    0  0.3584505E+002  0.6854194E+02  0.7546771E-02  0.1365123E+00
          1   -1    0    0  503    0 -0.00000000000E+00  0.00000000000E+00  0.15110221582E+03  0.15110221582E+03  0.00000000000E+00 0. -1.
         21   -1    0    0  504  502  0.00000000000E+00 -0.00000000000E+00 -0.22015507679E+03  0.22015507679E+03  0.00000000000E+00 0. -1.
         21    1    1    2  503  502  0.62343192970E+02  0.27423163720E+02 -0.16034191398E+01  0.68126900495E+02  0.00000000000E+00 0. -1.
         21    1    1    2  504  505 -0.45559191850E+02  0.26838494588E+02 -0.99436159606E+02  0.11262102198E+03  0.00000000000E+00 0. -1.
         21    1    1    2  505  501  0.53829432171E+02 -0.56123652930E+02 -0.41861654961E+02  0.88316874617E+02  0.00000000000E+00 0. -1.
          1    1    1    2  501    0 -0.70613433291E+02  0.18619946210E+01  0.73848372734E+02  0.10219249552E+03  0.00000000000E+00 0. -1.
<scales pt_clust_3="14000.00000" pt_clust_4="52.87669" pt_clust_5="49.41069" pt_clust_6="68.54194"></scales>
<clustering>
<clus scale="   52.877">  2  4  1 -1</clus>
<clus scale="   49.411">  2  5  1 -1</clus>
<clus scale="   68.542">  1  6  2 -1</clus>
<clus scale="   52.877">  2  3  1 -1</clus>
</clustering>
</event>
<event>
 6    0  0.3584505E+002  0.7328979E+02  0.7546771E-02  0.1349250E+00
          2   -1    0    0  504    0 -0.00000000000E+00  0.00000000000E+00  0.50353022020E+03  0.50353022020E+03  0.00000000000E+00 0. -1.
         21   -1    0    0  505  502  0.00000000000E+00 -0.00000000000E+00 -0.15135167665E+03  0.15135167665E+03  0.00000000000E+00 0.  1.
         21    1    1    2  503  501 -0.85206886769E+01 -0.10299217395E+03 -0.98790497940E+02  0.14296696301E+03  0.00000000000E+00 0.  1.
         21    1    1    2  504  502 -0.39356155143E+02  0.63269727399E+02  0.89914469848E+02  0.11677575622E+03  0.00000000000E+00 0.  1.
         21    1    1    2  505  503  0.74041819885E+01  0.31730116263E+02  0.86421978550E+00  0.32594003510E+02  0.00000000000E+00 0. -1.
          2    1    1    2  501    0  0.40472661832E+02  0.79923302834E+01  0.36019035186E+03  0.36254517411E+03  0.00000000000E+00 0. -1.
<scales pt_clust_3="14000.00000" pt_clust_4="73.28979" pt_clust_5="32.58254" pt_clust_6="41.37161"></scales>
<clustering>
<clus scale="   32.583">  2  5  1 -1</clus>
<clus scale="   41.372">  1  6  2 -1</clus>
<clus scale="   73.290">  1  4  2 -1</clus>
<clus scale="   32.583">  2  3  1 -1</clus>
</clustering>
</event>
<event>
 6    0  0.3584505E+002  0.1287965E+03  0.7546771E-02  0.1229253E+00
          2   -1    0    0  503    0 -0.00000000000E+00  0.00000000000E+00  0.10663790324E+04  0.10663790324E+04  0.00000000000E+00 0.  1.
         21   -1    0    0  505  502  0.00000000000E+00 -0.00000000000E+00 -0.11626866575E+03  0.11626866575E+03  0.00000000000E+00 0.  1.
         21    1    1    2  503  502  0.29231660663E+02  0.13975465355E+03 -0.34470765643E+02  0.14688119982E+03  0.00000000000E+00 0.  1.
         21    1    1    2  504  501 -0.64778177959E+02 -0.10063177161E+02  0.12606417610E+03  0.14209031061E+03  0.00000000000E+00 0.  1.
         21    1    1    2  505  504  0.68210589799E+02 -0.90329241919E+02  0.17606868022E+03  0.20931372784E+03  0.00000000000E+00 0.  1.
          2    1    1    2  501    0 -0.32664072503E+02 -0.39362234474E+02  0.68244827594E+03  0.68436245986E+03  0.00000000000E+00 0.  1.
<scales pt_clust_3="128.79647" pt_clust_4="79.85645" pt_clust_5="14000.00000" pt_clust_6="51.15005"></scales>
<clustering>
<clus scale="   51.150">  1  6  2 -1</clus>
<clus scale="   79.856">  1  4  2 -1</clus>
<clus scale="  128.796">  2  3  1 -1</clus>
<clus scale="  128.796">  2  3  1 -1</clus>
</clustering>
</event>
<event>
 6    0  0.3584505E+002  0.8124352E+02  0.7546771E-02  0.1325559E+00
         21   -1    0    0  503  502  0.00000000000E+00  0.00000000000E+00  0.90052821019E+02  0.90052821019E+02  0.00000000000E+00 0.  1.
          2   -1    0    0  505    0 -0.00000000000E+00 -0.00000000000E+00 -0.14506886905E+04  0.14506886905E+04  0.00000000000E+00 0. -1.
         21    1    1    2  503  504  0.11710516454E+02  0.44955338630E+02  0.18232571289E+02  0.49905363667E+02  0.00000000000E+00 0.  1.
         21    1    1    2  504  501 -0.60123237580E+01 -0.12374954088E+03 -0.22081156092E+02  0.12584782223E+03  0.00000000000E+00 0.  1.
         21    1    1    2  505  502  0.19696899463E+02  0.22837331558E+02 -0.64087266855E+02  0.70828591219E+02  0.00000000000E+00 0. -1.
          2    1    1    2  501    0 -0.25395092160E+02  0.55956870692E+02 -0.12927000178E+04  0.12941597344E+04  0.00000000000E+00 0. -1.
<scales pt_clust_3="46.76567" pt_clust_4="14000.00000" pt_clust_5="30.15811" pt_clust_6="81.24352"></scales>
<clustering>
<clus scale="   30.158">  2  5  1 -1</clus>
<clus scale="   46.766">  1  3  2 -1</clus>
<clus scale="   81.244">  2  6  1 -1</clus>
<clus scale="   46.766">  1  3  2 -1</clus>
</clustering>
</event>
<event>
 6    0  0.3584505E+002  0.1283474E+03  0.7546771E-02  0.1229929E+00
         21   -1    0    0  503  502  0.00000000000E+00  0.00000000000E+00  0.45378782364E+03  0.45378782364E+03  0.00000000000E+00 0.  1.
          3   -1    0    0  502    0 -0.00000000000E+00 -0.00000000000E+00 -0.36022812794E+03  0.36022812794E+03  0.00000000000E+00 0.  1.
         21    1    1    2  503  505  0.10036593545E+03 -0.23409337820E+02  0.27219948077E+03  0.29105648151E+03  0.00000000000E+00 0.  1.
         21    1    1    2  504  501 -0.88260491638E+02 -0.50009788457E+02  0.41804534733E+02  0.10972015517E+03  0.00000000000E+00 0.  1.
         21    1    1    2  505  504 -0.98840505294E+02  0.50210487623E+01  0.57284043188E+02  0.11435085492E+03  0.00000000000E+00 0.  1.
          3    1    1    2  501    0  0.86735061480E+02  0.68398077514E+02 -0.27772836300E+03  0.29888845998E+03  0.00000000000E+00 0.  1.
<scales pt_clust_3="103.05978" pt_clust_4="57.24095" pt_clust_5="57.24095" pt_clust_6="114.51874"></scales>
<clustering>
<clus scale="   57.241">  4  5 -1 -1</clus>
<clus scale="  103.060">  1  3  2 -1</clus>
<clus scale="  114.519">  2  6  1 -1</clus>
<clus scale="  103.060">  1  3  2 -1</clus>
</clustering>
</event>
<event>
 6    0  0.3584505E+002  0.2060630E+03  0.7546771E-02  0.1144722E+00
          1   -1    0    0  503    0 -0.00000000000E+00  0.00000000000E+00  0.14624063897E+04  0.14624063897E+04  0.00000000000E+00 0.  1.
         21   -1    0    0  505  502  0.00000000000E+00 -0.00000000000E+00 -0.11437738082E+03  0.11437738082E+03  0.00000000000E+00 0.  1.
         21    1    1    2  503  504  0.38025035067E+02 -0.10444347832E+02  0.38875103125E+02  0.55373832596E+02  0.00000000000E+00 0. -1.
         21    1    1    2  504  502  0.13152785438E+03 -0.11078839345E+03  0.34826229182E+02  0.17546085273E+03  0.00000000000E+00 0.  1.
         21    1    1    2  505  501 -0.16282077521E+03  0.71447748011E+02  0.18912291103E+03  0.25958208916E+03  0.00000000000E+00 0.  1.
          1    1    1    2  501    0 -0.67321142326E+01  0.49784993270E+02  0.10852047655E+04  0.10863669960E+04  0.00000000000E+00 0.  1.
<scales pt_clust_3="31.78976" pt_clust_4="31.78976" pt_clust_5="195.07629" pt_clust_6="50.23810"></scales>
<clustering>
<clus scale="   31.790">  3  4 -1 -1</clus>
<clus scale="   50.238">  1  6  2 -1</clus>
<clus scale="  195.076">  1  5  2 -1</clus>
<clus scale="  206.063">  2  3  1 -1</clus>
</clustering>
</event>
<event>
 6    0  0.3584505E+002  0.9734138E+02  0.7546771E-02  0.1285988E+00
         21   -1    0    0  505  502  0.00000000000E+00  0.00000000000E+00  0.27148627765E+02  0.27148627765E+02  0.00000000000E+00 0. -1.
          1   -1    0    0  503    0 -0.00000000000E+00 -0.00000000000E+00 -0.21181172449E+04  0.21181172449E+04  0.00000000000E+00 0.  1.
         21    1    1    2  503  504  0.10274922828E+03  0.19316216432E+02 -0.24666775794E+03  0.26790950512E+03  0.00000000000E+00 0. -1.
         21    1    1    2  504  502  0.36663944859E+02  0.10211324065E+02 -0.15397071232E+02  0.41055886232E+02  0.00000000000E+00 0. -1.
         21    1    1    2  505  501 -0.50261641883E+02  0.76524303494E+01 -0.29425464835E+03  0.29861445111E+03  0.00000000000E+00 0.  1.
          1    1    1    2  501    0 -0.89151531254E+02 -0.37179970846E+02 -0.15346491396E+04  0.15376860302E+04  0.00000000000E+00 0.  1.
<scales pt_clust_3="97.34138" pt_clust_4="38.05937" pt_clust_5="45.61882" pt_clust_6="14000.00000"></scales>
<clustering>
<clus scale="   38.059">  1  4  2 -1</clus>
<clus scale="   45.619">  1  5  2 -1</clus>
<clus scale="   97.341">  1  3  2 -1</clus>
<clus scale="   38.059">  1  3  2 -1</clus>
</clustering>
</event>
<event>
 6    0  0.3584505E+002  0.1314979E+03  0.7546771E-02  0.1225250E+00
          2   -1    0    0  502    0 -0.00000000000E+00  0.00000000000E+00  0.49435830463E+03  0.49435830463E+03  0.00000000000E+00 0.  1.
         21   -1    0    0  503  502  0.00000000000E+00 -0.00000000000E+00 -0.80045408075E+03  0.80045408075E+03  0.00000000000E+00 0. -1.
         21    1    1    2  503  504 -0.66370182210E+02  0.31956257902E+02 -0.80453039286E+02  0.10908205643E+03  0.00000000000E+00 0.  1.
         21    1    1    2  504  505 -0.54567123200E+01  0.44543218534E+02 -0.46535930356E+03  0.46751808033E+03  0.00000000000E+00 0. -1.
         21    1    1    2  505  501  0.16204628292E+02  0.38090342827E+02 -0.22888983550E+03  0.23260271063E+03  0.00000000000E+00 0. -1.
          2    1    1    2  501    0  0.55622266238E+02 -0.11458981926E+03  0.46860640222E+03  0.48560953799E+03  0.00000000000E+00 0.  1.
<scales pt_clust_3="73.66277" pt_clust_4="33.86660" pt_clust_5="33.86660" pt_clust_6="126.68177"></scales>
<clustering>
<clus scale="   33.867">  4  5 -1 -1</clus>
<clus scale="   73.663">  2  3  1 -1</clus>
<clus scale="  126.682">  1  6  2 -1</clus>
<clus scale="   73.663">  2  3  1 -1</clus>
</clustering>
</event>
<event>
 6    0  0.3584505E+002  0.1183364E+03  0.7546771E-02  0.1245867E+00
         21   -1    0    0  505  502  0.00000000000E+00  0.00000000000E+00  0.35296032491E+03  0.35296032491E+03  0.00000000000E+00 0.  1.
          1   -1    0    0  503    0 -0.00000000000E+00 -0.00000000000E+00 -0.24912732168E+04  0.24912732168E+04  0.00000000000E+00 0. -1.
         21    1    1    2  503  504  0.97625374544E+02 -0.10097604874E+02 -0.36716234214E+03  0.38005376049E+03  0.00000000000E+00 0. -1.
         21    1    1    2  504  502 -0.12178781500E+03 -0.15249386097E+02 -0.55776554729E+03  0.57111051592E+03  0.00000000000E+00 0. -1.
         21    1    1    2  505  501  0.10393521984E+03  0.56729509274E+02  0.32830096572E+03  0.34900184990E+03  0.00000000000E+00 0.  1.
          1    1    1    2  501    0 -0.79772779378E+02 -0.31382518303E+02 -0.15416859681E+04  0.15440674153E+04  0.00000000000E+00 0. -1.
<scales pt_clust_3="69.90637" pt_clust_4="118.33641" pt_clust_5="14000.00000" pt_clust_6="85.72374"></scales>
<clustering>
<clus scale="   85.724">  2  6  1 -1</clus>
<clus scale="   69.906">  2  3  1 -1</clus>
<clus scale="  118.336">  2  4  1 -1</clus>
<clus scale="  118.336">  1  3  2 -1</clus>
</clustering>
</event>
<event>
 6    0  0.3584505E+002  0.9259927E+02  0.7546771E-02  0.1296677E+00
          2   -1    0    0  504    0 -0.00000000000E+00  0.00000000000E+00  0.19790910764E+04  0.19790910764E+04  0.00000000000E+00 0.  1.
         21   -1    0    0  503  502  0.00000000000E+00 -0.00000000000E+00 -0.81933325686E+02  0.81933325686E+02  0.00000000000E+00 0. -1.
         21    1    1    2  503  505  0.22427256245E+02 -0.20723128032E+02 -0.27468552763E+02  0.41072512086E+02  0.00000000000E+00 0. -1.
         21    1    1    2  504  502  0.10739253498E+03  0.48706074926E+02  0.45449125189E+02  0.12637666432E+03  0.00000000000E+00 0. -1.
         21    1    1    2  505  501 -0.51275693358E+02  0.19677614778E+02  0.11967171584E+03  0.13167279455E+03  0.00000000000E+00 0. -1.
          2    1    1    2  501    0 -0.78544097863E+02 -0.47660561673E+02  0.17595054624E+04  0.17619024311E+04  0.00000000000E+00 0.  1.
<scales pt_clust_3="30.53571" pt_clust_4="14000.00000" pt_clust_5="51.37076" pt_clust_6="92.59927"></scales>
<clustering>
<clus scale="   30.536">  2  3  1 -1</clus>
<clus scale="   51.371">  2  5  1 -1</clus>
<clus scale="   92.599">  1  6  2 -1</clus>
<clus scale="   30.536">  2  3  1 -1</clus>
</clustering>
</event>
<event>
 6    0  0.3584505E+002  0.9418333E+02  0.7546771E-02  0.1293026E+00
          2   -1    0    0  504    0 -0.00000000000E+00  0.00000000000E+00  0.24023507038E+04  0.24023507038E+04  0.00000000000E+00 0.  1.
         21   -1    0    0  501  502  0.00000000000E+00 -0.00000000000E+00 -0.16006107811E+03  0.16006107811E+03  0.00000000000E+00 0.  1.
         21    1    1    2  503  505 -0.54506726658E+02  0.45453915721E+02  0.47435785396E+02  0.85365071555E+02  0.00000000000E+00 0.  1.
         21    1    1    2  504  503  0.38029695060E+02  0.30504271085E+02  0.68657425579E+03  0.68830296889E+03  0.00000000000E+00 0.  1.
         21    1    1    2  505  502 -0.45932710054E+02 -0.38466671758E+02 -0.13298883316E+03  0.14586133290E+03  0.00000000000E+00 0.  1.
          2    1    1    2  501    0  0.62409741651E+02 -0.37491515048E+02  0.16412684177E+04  0.16428824086E+04  0.00000000000E+00 0.  1.
<scales pt_clust_3="14000.00000" pt_clust_4="48.75211" pt_clust_5="59.72949" pt_clust_6="94.18333"></scales>
<clustering>
<clus scale="   48.752">  1  4  2 -1</clus>
<clus scale="   59.729">  2  5  1 -1</clus>
<clus scale="   94.183">  1  6  2 -1</clus>
<clus scale="   59.729">  2  3  1 -1</clus>
</clustering>
</event>
<event>
 6    0  0.3584505E+002  0.9550503E+02  0.7546771E-02  0.1290043E+00
          2   -1    0    0  502    0 -0.00000000000E+00  0.00000000000E+00  0.68515168231E+03  0.68515168231E+03  0.00000000000E+00 0.  1.
         21   -1    0    0  505  502  0.00000000000E+00 -0.00000000000E+00 -0.17311526776E+03  0.17311526776E+03  0.00000000000E+00 0. -1.
         21    1    1    2  503  501 -0.62208569991E+02  0.52712618709E+02  0.11406870093E+03  0.14021481692E+03  0.00000000000E+00 0.  1.
         21    1    1    2  504  503  0.80770795881E+02 -0.31615245507E+02 -0.35425183433E+02  0.93693056504E+02  0.00000000000E+00 0. -1.
         21    1    1    2  505  504 -0.18913936528E+02 -0.63279909872E+02 -0.83098303843E+02  0.10614806682E+03  0.00000000000E+00 0. -1.
          2    1    1    2  501    0  0.35171063768E+00  0.42182536670E+02  0.51649120089E+03  0.51821100982E+03  0.00000000000E+00 0.  1.
<scales pt_clust_3="95.50503" pt_clust_4="14000.00000" pt_clust_5="63.26846" pt_clust_6="42.18400"></scales>
<clustering>
<clus scale="   42.184">  1  6  2 -1</clus>
<clus scale="   63.268">  2  5  1 -1</clus>
<clus scale="   95.505">  1  3  2 -1</clus>
<clus scale="   63.268">  2  3  1 -1</clus>
</clustering>
</event>
<event>
 6    0  0.3584505E+002  0.1432425E+03  0.7546771E-02  0.1209031E+00
         21   -1    0    0  504  502  0.00000000000E+00  0.00000000000E+00  0.10864600611E+04  0.10864600611E+04  0.00000000000E+00 0. -1.
          2   -1    0    0  503    0 -0.00000000000E+00 -0.00000000000E+00 -0.21658203685E+03  0.21658203685E+03  0.00000000000E+00 0.  1.
         21    1    1    2  503  502  0.14629025094E+03 -0.16367165343E+02  0.57422436277E+03  0.59279198748E+03  0.00000000000E+00 0. -1.
         21    1    1    2  504  505 -0.87706143180E+01  0.46676910436E+02  0.36314539501E+03  0.36623794937E+03  0.00000000000E+00 0. -1.
         21    1    1    2  505  501 -0.13762317531E+03 -0.14238537007E+03  0.23814628406E+02  0.19945141894E+03  0.00000000000E+00 0.  1.
          2    1    1    2  501    0  0.10353868309E+00  0.11207562498E+03 -0.91306361958E+02  0.14456074214E+03  0.00000000000E+00 0.  1.
<scales pt_clust_3="143.24252" pt_clust_4="47.49376" pt_clust_5="14000.00000" pt_clust_6="113.79782"></scales>
<clustering>
<clus scale="   47.494">  1  4  2 -1</clus>
<clus scale="  113.798">  2  6  1 -1</clus>
<clus scale="  143.243">  1  3  2 -1</clus>
<clus scale="   47.494">  1  3  2 -1</clus>
</clustering>
</event>
<event>
 6    0  0.3584505E+002  0.2110926E+03  0.7546771E-02  0.1140704E+00
         -2   -1    0    0    0  501 -0.00000000000E+00  0.00000000000E+00  0.47785268390E+02  0.47785268390E+02  0.00000000000E+00 0. -1.
         21   -1    0    0  503  502  0.00000000000E+00 -0.00000000000E+00 -0.14244663079E+04  0.14244663079E+04  0.00000000000E+00 0. -1.
         21    1    1    2  503  501  0.60741493134E+01  0.35310778047E+02 -0.13428260220E+03  0.13898044319E+03  0.00000000000E+00 0. -1.
         21    1    1    2  504  505  0.68975945857E+02 -0.14432157331E+03 -0.56350723609E+03  0.58577026448E+03  0.00000000000E+00 0. -1.
         21    1    1    2  505  502  0.33828941194E+02 -0.53508967629E+02 -0.41067750423E+03  0.41552812102E+03  0.00000000000E+00 0. -1.
         -2    1    1    2    0  504 -0.10887903637E+03  0.16251976289E+03 -0.26821369698E+03  0.33197274758E+03  0.00000000000E+00 0. -1.
<scales pt_clust_3="35.82941" pt_clust_4="38.06844" pt_clust_5="38.06844" pt_clust_6="201.75056"></scales>
<clustering>
<clus scale="   35.829">  2  3  1 -1</clus>
<clus scale="   38.068">  4  5 -1 -1</clus>
<clus scale="  201.751">  1  6  2 -1</clus>
<clus scale="   35.829">  2  3  1 -1</clus>
</clustering>
</event>
<event>
 6    0  0.3584505E+002  0.6836249E+02  0.7546771E-02  0.1365752E+00
         21   -1    0    0  504  502  0.00000000000E+00  0.00000000000E+00  0.57514341950E+03  0.57514341950E+03  0.00000000000E+00 0.  1.
          3   -1    0    0  503    0 -0.00000000000E+00 -0.00000000000E+00 -0.70253020344E+03  0.70253020344E+03  0.00000000000E+00 0. -1.
         21    1    1    2  503  505 -0.87415471644E+02 -0.48392606219E+01 -0.92739944426E+02  0.12753658463E+03  0.00000000000E+00 0.  1.
         21    1    1    2  504  501  0.29380587343E+01 -0.35704651817E+02  0.24711252793E+03  0.24969592670E+03  0.00000000000E+00 0.  1.
         21    1    1    2  505  502  0.56029917871E+02  0.67399765759E+02  0.30246509414E+03  0.31490826171E+03  0.00000000000E+00 0.  1.
          3    1    1    2  501    0  0.28447495039E+02 -0.26855853320E+02 -0.58422446157E+03  0.58553284992E+03  0.00000000000E+00 0. -1.
<scales pt_clust_3="14000.00000" pt_clust_4="35.82533" pt_clust_5="68.36249" pt_clust_6="39.17495"></scales>
<clustering>
<clus scale="   35.825">  1  4  2 -1</clus>
<clus scale="   39.175">  2  6  1 -1</clus>
<clus scale="   68.362">  1  5  2 -1</clus>
<clus scale="   35.825">  1  3  2 -1</clus>
</clustering>
</event>
<event>
 6    0  0.3584505E+002  0.7126412E+02  0.7546771E-02  0.1355846E+00
         21   -1    0    0  505  502  0.00000000000E+00  0.00000000000E+00  0.20265178239E+02  0.20265178239E+02  0.00000000000E+00 0. -1.
          2   -1    0    0  503    0 -0.00000000000E+00 -0.00000000000E+00 -0.12151870261E+04  0.12151870261E+04  0.00000000000E+00 0. -1.
         21    1    1    2  503  504  0.58460092482E+02 -0.41653704563E+02 -0.51169738652E+03  0.51670768224E+03  0.00000000000E+00 0. -1.
         21    1    1    2  504  502 -0.52012135013E+02  0.17688888273E+02 -0.20621990750E+03  0.21341229863E+03  0.00000000000E+00 0.  1.
         21    1    1    2  505  501 -0.35387951351E+02 -0.48391856224E+02 -0.75865686377E+02  0.96693749637E+02  0.00000000000E+00 0. -1.
          2    1    1    2  501    0  0.28939993881E+02  0.72356672514E+02 -0.40113886742E+03  0.40863847379E+03  0.00000000000E+00 0. -1.
<scales pt_clust_3="63.91694" pt_clust_4="54.93777" pt_clust_5="71.26412" pt_clust_6="14000.00000"></scales>
<clustering>
<clus scale="   54.938">  1  4  2 -1</clus>
<clus scale="   63.917">  2  3  1 -1</clus>
<clus scale="   71.264">  1  5  2 -1</clus>
<clus scale="   54.938">  1  3  2 -1</clus>
</clustering>
</event>
<event>
 6    0  0.3584505E+002  0.1080116E+03  0.7546771E-02  0.1264297E+00
         21   -1    0    0  505  502  0.00000000000E+00  0.00000000000E+00  0.17987269922E+03  0.17987269922E+03  0.00000000000E+00 0.  1.
          2   -1    0    0  504    0 -0.00000000000E+00 -0.00000000000E+00 -0.36287337616E+03  0.36287337616E+03  0.00000000000E+00 0. -1.
         21    1    1    2  503  501  0.35154267063E+02  0.29625233676E+02 -0.74769879243E+01  0.46576628383E+02  0.00000000000E+00 0. -1.
         21    1    1    2  504  502  0.78340359419E+02 -0.24660555548E+02  0.12136116384E+03  0.14653971135E+03  0.00000000000E+00 0.  1.
         21    1    1    2  505  503 -0.70079646531E+01 -0.32232471957E+02  0.67299740499E-01  0.32985577853E+02  0.00000000000E+00 0.  1.
          2    1    1    2  501    0 -0.10648666183E+03  0.27267793829E+02 -0.29695215260E+03  0.31664415779E+03  0.00000000000E+00 0. -1.
<scales pt_clust_3="42.91296" pt_clust_4="108.01159" pt_clust_5="32.98551" pt_clust_6="14000.00000"></scales>
<clustering>
<clus scale="   32.986">  1  5  2 -1</clus>
<clus scale="   42.913">  1  3  2 -1</clus>
<clus scale="  108.012">  1  4  2 -1</clus>
<clus scale="   32.986">  1  3  2 -1</clus>
</clustering>
</event>
<event>
 6    0  0.3584505E+002  0.1856399E+03  0.7546771E-02  0.1162454E+00
         21   -1    0    0  501  502  0.00000000000E+00  0.00000000000E+00  0.41799359845E+03  0.41799359845E+03  0.00000000000E+00 0. -1.
         -2   -1    0    0    0  501 -0.00000000000E+00 -0.00000000000E+00 -0.10200611425E+04  0.10200611425E+04  0.00000000000E+00 0. -1.
         21    1    1    2  503  502 -0.17621244942E+03 -0.71263412306E+02  0.36823995445E+03  0.41440314347E+03  0.00000000000E+00 0. -1.
         21    1    1    2  504  505  0.18623376574E+02  0.55422341920E+02 -0.63415432149E+02  0.86255337073E+02  0.00000000000E+00 0.  1.
         21    1    1    2  505  503  0.13812617212E+03 -0.22029127164E+02 -0.32338652295E+03  0.35233927554E+03  0.00000000000E+00 0. -1.
         -2    1    1    2    0  504  0.19462900726E+02  0.37870197551E+02 -0.58350554340E+03  0.58505698487E+03  0.00000000000E+00 0. -1.
<scales pt_clust_3="14000.00000" pt_clust_4="65.70604" pt_clust_5="185.63994" pt_clust_6="42.57883"></scales>
<clustering>
<clus scale="   42.579">  2  6  1 -1</clus>
<clus scale="   65.706">  2  4  1 -1</clus>
<clus scale="  185.640">  2  5  1 -1</clus>
<clus scale="  185.640">  1  3  2 -1</clus>
</clustering>
</event>
<event>
 6    0  0.3584505E+002  0.8544255E+02  0.7546771E-02  0.1314279E+00
          3   -1    0    0  504    0 -0.00000000000E+00  0.00000000000E+00  0.19095992399E+04  0.19095992399E+04  0.00000000000E+00 0.  1.
         21   -1    0    0  503  502  0.00000000000E+00 -0.00000000000E+00 -0.69472862162E+03  0.69472862162E+03  0.00000000000E+00 0.  1.
         21    1    1    2  503  501  0.14687637539E+02  0.34333348236E+02 -0.37851258393E+03  0.38035020927E+03  0.00000000000E+00 0.  1.
         21    1    1    2  504  505  0.80755372708E+01 -0.90044123964E+02  0.47805963976E+02  0.10226714406E+03  0.00000000000E+00 0. -1.
         21    1    1    2  505  502 -0.56500549683E+02 -0.23008351168E+02 -0.28382365460E+03  0.29030598211E+03  0.00000000000E+00 0.  1.
          3    1    1    2  501    0  0.33737374872E+02  0.78719126897E+02  0.18294008928E+04  0.18314045261E+04  0.00000000000E+00 0.  1.
<scales pt_clust_3="37.34308" pt_clust_4="85.44255" pt_clust_5="43.91019" pt_clust_6="14000.00000"></scales>
<clustering>
<clus scale="   37.343">  2  3  1 -1</clus>
<clus scale="   43.910">  2  5  1 -1</clus>
<clus scale="   85.443">  2  4  1 -1</clus>
<clus scale="   37.343">  2  3  1 -1</clus>
</clustering>
</event>
<event>
 6    0  0.3584505E+002  0.1329678E+03  0.7546771E-02  0.1223117E+00
          2   -1    0    0  504    0 -0.00000000000E+00  0.00000000000E+00  0.44017348005E+04  0.44017348005E+04  0.00000000000E+00 0. -1.
         21   -1    0    0  505  502  0.00000000000E+00 -0.00000000000E+00 -0.71350807950E+03  0.71350807950E+03  0.00000000000E+00 0.  1.
         21    1    1    2  503  502 -0.89113256671E+02  0.58194154989E+02  0.80206680159E+03  0.80909757533E+03  0.00000000000E+00 0. -1.
         21    1    1    2  504  503  0.13159493218E+02  0.33234191342E+02  0.28657306061E+03  0.28879370285E+03  0.00000000000E+00 0.  1.
         21    1    1    2  505  501  0.28932839554E+02 -0.13023436416E+03 -0.70232166757E+03  0.71488028617E+03  0.00000000000E+00 0.  1.
          2    1    1    2  501    0  0.47020923900E+02  0.38806017824E+02  0.33019085264E+04  0.33024713157E+04  0.00000000000E+00 0. -1.
<scales pt_clust_3="14000.00000" pt_clust_4="35.74470" pt_clust_5="132.96777" pt_clust_6="87.19938"></scales>
<clustering>
<clus scale="   35.745">  1  4  2 -1</clus>
<clus scale="   87.199">  1  6  2 -1</clus>
<clus scale="  132.968">  2  5  1 -1</clus>
<clus scale="  132.968">  2  3  1 -1</clus>
</clustering>
</event>
<event>
 6    0  0.3584505E+002  0.1606592E+03  0.7546771E-02  0.1187955E+00
         21   -1    0    0  503  502  0.00000000000E+00  0.00000000000E+00  0.18841023105E+03  0.18841023105E+03  0.00000000000E+00 0.  1.
          2   -1    0    0  504    0 -0.00000000000E+00 -0.00000000000E+00 -0.91386125954E+03  0.91386125954E+03  0.00000000000E+00 0.  1.
         21    1    1    2  503  501 -0.12400377114E+03 -0.15093203688E+02 -0.25756517149E+03  0.28625959830E+03  0.00000000000E+00 0.  1.
         21    1    1    2  504  505  0.20337723046E+03  0.10497716441E+02 -0.89390098443E+02  0.22240298924E+03  0.00000000000E+00 0.  1.
         21    1    1    2  505  502 -0.38477168074E+02 -0.14803772731E+02  0.10250403588E+03  0.11048403288E+03  0.00000000000E+00 0.  1.
          2    1    1    2  501    0 -0.40896291253E+02  0.19399259978E+02 -0.48099979444E+03  0.48312487017E+03  0.00000000000E+00 0.  1.
<scales pt_clust_3="160.65922" pt_clust_4="14000.00000" pt_clust_5="41.22674" pt_clust_6="45.63437"></scales>
<clustering>
<clus scale="   41.227">  1  5  2 -1</clus>
<clus scale="   45.634">  2  6  1 -1</clus>
<clus scale="  160.659">  2  3  1 -1</clus>
<clus scale="   41.227">  1  3  2 -1</clus>
</clustering>
</event>
<event>
 6    0  0.3584505E+002  0.9796267E+02  0.7546771E-02  0.1284639E+00
         21   -1    0    0  504  502  0.00000000000E+00  0.00000000000E+00  0.96042619697E+03  0.96042619697E+03  0.00000000000E+00 0. -1.
          2   -1    0    0  503    0 -0.00000000000E+00 -0.00000000000E+00 -0.10141064806E+04  0.10141064806E+04  0.00000000000E+00 0.  1.
         21    1    1    2  503  502 -0.89275356940E+02 -0.57924888216E+02  0.16183292635E+03  0.19368861114E+03  0.00000000000E+00 0.  1.
         21    1    1    2  504  505  0.34070105487E+02 -0.67792164100E+01  0.65841642368E+03  0.65933217488E+03  0.00000000000E+00 0. -1.
         21    1    1    2  505  501  0.98799567093E+02  0.33562915191E+02  0.10093590397E+03  0.14517534379E+03  0.00000000000E+00 0.  1.
          2    1    1    2  501    0 -0.43594315639E+02  0.31141189435E+02 -0.97486553763E+03  0.97633654776E+03  0.00000000000E+00 0.  1.
<scales pt_clust_3="14000.00000" pt_clust_4="34.73802" pt_clust_5="97.96267" pt_clust_6="53.49738"></scales>
<clustering>
<clus scale="   34.738">  1  4  2 -1</clus>
<clus scale="   53.497">  2  6  1 -1</clus>
<clus scale="   97.963">  2  5  1 -1</clus>
<clus scale="   34.738">  1  3  2 -1</clus>
</clustering>
</event>
<event>
 6    0  0.3584505E+002  0.9271702E+02  0.7546771E-02  0.1296402E+00
          2   -1    0    0  505    0 -0.00000000000E+00  0.00000000000E+00  0.39481617760E+04  0.39481617760E+04  0.00000000000E+00 0.  1.
         21   -1    0    0  504  502  0.00000000000E+00 -0.00000000000E+00 -0.50465971965E+02  0.50465971965E+02  0.00000000000E+00 0. -1.
         21    1    1    2  503  502  0.98785441456E+02  0.69792637539E+02  0.28326856715E+03  0.30801080636E+03  0.00000000000E+00 0. -1.
         21    1    1    2  504  501 -0.65287011471E+02  0.20494220354E+02 -0.57879002696E+01  0.68672459722E+02  0.00000000000E+00 0. -1.
         21    1    1    2  505  503 -0.10693101557E+02 -0.41252886230E+02  0.74298489116E+03  0.74420608137E+03  0.00000000000E+00 0.  1.
          2    1    1    2  501    0 -0.22805328428E+02 -0.49033971663E+02  0.28772302460E+04  0.28777384005E+04  0.00000000000E+00 0.  1.
<scales pt_clust_3="92.71702" pt_clust_4="68.40827" pt_clust_5="42.61623" pt_clust_6="14000.00000"></scales>
<clustering>
<clus scale="   42.616">  1  5  2 -1</clus>
<clus scale="   68.408">  2  4  1 -1</clus>
<clus scale="   92.717">  2  3  1 -1</clus>
<clus scale="   68.408">  2  3  1 -1</clus>
</clustering>
</event>
<event>
 6    0  0.3584505E+002  0.7702493E+02  0.7546771E-02  0.1337713E+00
          2   -1    0    0  504    0 -0.00000000000E+00  0.00000000000E+00  0.23117257356E+03  0.23117257356E+03  0.00000000000E+00 0. -1.
         21   -1    0    0  503  502  0.00000000000E+00 -0.00000000000E+00 -0.15505019358E+03  0.15505019358E+03  0.00000000000E+00 0.  1.
         21    1    1    2  503  501  0.43509725611E+01  0.73400510207E+02 -0.88851510371E+02  0.11533064101E+03  0.00000000000E+00 0.  1.
         21    1    1    2  504  505  0.46526949870E+02 -0.20152186837E+01  0.27284576689E+02  0.53974681988E+02  0.00000000000E+00 0.  1.
         21    1    1    2  505  502  0.17458391008E+01 -0.97393092622E+02  0.45227461037E+02  0.10739639508E+03  0.00000000000E+00 0.  1.
          2    1    1    2  501    0 -0.52623761532E+02  0.26007801098E+02  0.92461852625E+02  0.10952104906E+03  0.00000000000E+00 0. -1.
<scales pt_clust_3="77.02493" pt_clust_4="46.57057" pt_clust_5="14000.00000" pt_clust_6="37.46932"></scales>
<clustering>
<clus scale="   46.571">  1  4  2 -1</clus>
<clus scale="   37.469">  1  6  2 -1</clus>
<clus scale="   77.025">  2  3  1 -1</clus>
<clus scale="   77.025">  2  3  1 -1</clus>
</clustering>
</event>
<event>
 6    0  0.3584505E+002  0.1205506E+03  0.7546771E-02  0.1242191E+00
         21   -1    0    0  504  502  0.00000000000E+00  0.00000000000E+00  0.57245787047E+03  0.57245787047E+03  0.00000000000E+00 0.  1.
          2   -1    0    0  503    0 -0.00000000000E+00 -0.00000000000E+00 -0.59986933431E+03  0.59986933431E+03  0.00000000000E+00 0.  1.
         21    1    1    2  503  505 -0.95833168241E+02 -0.40194788348E+02  0.39758374436E+03  0.41094093362E+03  0.00000000000E+00 0.  1.
         21    1    1    2  504  501  0.22508276847E+02  0.29957216164E+02  0.17579777381E+02  0.41389683493E+02  0.00000000000E+00 0.  1.
         21    1    1    2  505  502 -0.44866462844E+02  0.36673844386E+02  0.12598893321E+03  0.13867653602E+03  0.00000000000E+00 0.  1.
          2    1    1    2  501    0  0.11819135424E+03 -0.26436272203E+02 -0.56856391879E+03  0.58132005165E+03  0.00000000000E+00 0.  1.
<scales pt_clust_3="120.55064" pt_clust_4="37.47075" pt_clust_5="59.03087" pt_clust_6="14000.00000"></scales>
<clustering>
<clus scale="   37.471">  1  4  2 -1</clus>
<clus scale="   59.031">  1  5  2 -1</clus>
<clus scale="  120.551">  1  3  2 -1</clus>
<clus scale="   37.471">  1  3  2 -1</clus>
</clustering>
</event>
<event>
 6    0  0.3584505E+002  0.1294892E+03  0.7546771E-02  0.1228216E+00
         21   -1    0    0  505  502  0.00000000000E+00  0.00000000000E+00  0.15145900374E+03  0.15145900374E+03  0.00000000000E+00 0.  1.
          2   -1    0    0  504    0 -0.00000000000E+00 -0.00000000000E+00 -0.57344576067E+03  0.57344576067E+03  0.00000000000E+00 0. -1.
         21    1    1    2  503  502  0.41747498978E+02 -0.85227687404E+01  0.27582373434E+02  0.50757054506E+02  0.00000000000E+00 0.  1.
         21    1    1    2  504  503  0.78143351401E+02  0.12195827259E+03 -0.13721059102E+03  0.19951679104E+03  0.00000000000E+00 0.  1.
         21    1    1    2  505  501 -0.83526568971E+02 -0.10522653547E+03  0.23776068208E+02  0.13643537998E+03  0.00000000000E+00 0.  1.
          2    1    1    2  501    0 -0.36364281407E+02 -0.82089683815E+01 -0.33613460756E+03  0.33819553889E+03  0.00000000000E+00 0. -1.
<scales pt_clust_3="40.94871" pt_clust_4="14000.00000" pt_clust_5="129.48920" pt_clust_6="37.27933"></scales>
<clustering>
<clus scale="   37.279">  2  6  1 -1</clus>
<clus scale="   40.949">  1  3  2 -1</clus>
<clus scale="  129.489">  1  5  2 -1</clus>
<clus scale="   40.949">  1  3  2 -1</clus>
</clustering>
</event>
<event>
 6    0  0.3584505E+002  0.1843506E+03  0.7546771E-02  0.1163658E+00
          2   -1    0    0  503    0 -0.00000000000E+00  0.00000000000E+00  0.32335652053E+04  0.32335652053E+04  0.00000000000E+00 0.  1.
         21   -1    0    0  505  502  0.00000000000E+00 -0.00000000000E+00 -0.96058451290E+02  0.96058451290E+02  0.00000000000E+00 0.  1.
         21    1    1    2  503  504  0.12855356966E+03  0.44518819735E+02  0.24507488041E+02  0.13823372437E+03  0.00000000000E+00 0.  1.
         21    1    1    2  504  502  0.30904279130E+02 -0.41234762720E+01 -0.29794261009E+02  0.43125114657E+02  0.00000000000E+00 0. -1.
         21    1    1    2  505  501 -0.89551207769E+02  0.81461957124E+01  0.10880153641E+04  0.10917248792E+04  0.00000000000E+00 0.  1.
          2    1    1    2  501    0 -0.69906641026E+02 -0.48541539176E+02  0.20547781629E+04  0.20565399384E+04  0.00000000000E+00 0.  1.
<scales pt_clust_3="163.16720" pt_clust_4="31.17816" pt_clust_5="83.75755" pt_clust_6="83.75755"></scales>
<clustering>
<clus scale="   31.178">  2  4  1 -1</clus>
<clus scale="   83.758">  5  6 -1 -1</clus>
<clus scale="  163.167">  2  3  1 -1</clus>
<clus scale="   31.178">  2  3  1 -1</clus>
</clustering>
</event>
<event>
 6    0  0.3584505E+002  0.8992695E+02  0.7546771E-02  0.1303029E+00
          2   -1    0    0  505    0 -0.00000000000E+00  0.00000000000E+00  0.54054483850E+03  0.54054483850E+03  0.00000000000E+00 0. -1.
         21   -1    0    0  501  502  0.00000000000E+00 -0.00000000000E+00 -0.15248657118E+03  0.15248657118E+03  0.00000000000E+00 0. -1.
         21    1    1    2  503  502 -0.81087664776E+00  0.40812346506E+02 -0.99572461199E+02  0.10761496261E+03  0.00000000000E+00 0. -1.
         21    1    1    2  504  503  0.92626324913E+02  0.22698598049E+02  0.29072179625E+02  0.99699819701E+02  0.00000000000E+00 0. -1.
         21    1    1    2  505  504 -0.73475411216E+02 -0.81540122232E+01  0.11142325055E+03  0.13371710710E+03  0.00000000000E+00 0. -1.
          2    1    1    2  501    0 -0.18340037049E+02 -0.55356932332E+02  0.34713529834E+03  0.35199952027E+03  0.00000000000E+00 0. -1.
<scales pt_clust_3="40.82040" pt_clust_4="14000.00000" pt_clust_5="89.92695" pt_clust_6="56.40552"></scales>
<clustering>
<clus scale="   40.820">  2  3  1 -1</clus>
<clus scale="   56.406">  1  6  2 -1</clus>
<clus scale="   89.927">  1  5  2 -1</clus>
<clus scale="   40.820">  2  3  1 -1</clus>
</clustering>
</event>
<event>
 6    0  0.3584505E+002  0.9828881E+02  0.7546771E-02  0.1283936E+00
         21   -1    0    0  504  502  0.00000000000E+00  0.00000000000E+00  0.29039400987E+02  0.29039400987E+02  0.00000000000E+00 0.  1.
          2   -1    0    0  505    0 -0.00000000000E+00 -0.00000000000E+00 -0.20905667661E+04  0.20905667661E+04  0.00000000000E+00 0. -1.
         21    1    1    2  503  501  0.21615604253E+02 -0.53932366454E+02 -0.20345960814E+03  0.21159335208E+03  0.00000000000E+00 0.  1.
         21    1    1    2  504  503 -0.47682104067E+02  0.16713009328E+02 -0.57514808480E+02  0.76556259859E+02  0.00000000000E+00 0.  1.
         21    1    1    2  505  502 -0.17653131967E+02  0.12284732243E+03 -0.26206593891E+03  0.28996836730E+03  0.00000000000E+00 0.  1.
          2    1    1    2  501    0  0.43719631781E+02 -0.85627965299E+02 -0.15384870096E+04  0.15414881879E+04  0.00000000000E+00 0. -1.
<scales pt_clust_3="51.78463" pt_clust_4="50.52631" pt_clust_5="98.28881" pt_clust_6="14000.00000"></scales>
<clustering>
<clus scale="   50.526">  1  4  2 -1</clus>
<clus scale="   51.785">  1  3  2 -1</clus>
<clus scale="   98.289">  1  5  2 -1</clus>
<clus scale="   50.526">  1  3  2 -1</clus>
</clustering>
</event>
<event>
 6    0  0.3584505E+002  0.2126239E+03  0.7546771E-02  0.1139505E+00
         21   -1    0    0  503  502  0.00000000000E+00  0.00000000000E+00  0.28910487543E+03  0.28910487543E+03  0.00000000000E+00 0.  1.
          2   -1    0    0  502    0 -0.00000000000E+00 -0.00000000000E+00 -0.29155986506E+04  0.29155986506E+04  0.00000000000E+00 0.  1.
         21    1    1    2  503  505  0.95125899880E+02 -0.21310445235E+03  0.20344120136E+03  0.30959775007E+03  0.00000000000E+00 0.  1.
         21    1    1    2  504  501 -0.37145321600E+01  0.84643325435E+02 -0.43427005261E+03  0.44245764643E+03  0.00000000000E+00 0. -1.
         21    1    1    2  505  504 -0.19010669215E+02  0.14324982872E+03 -0.15935797651E+03  0.21512062581E+03  0.00000000000E+00 0. -1.
          2    1    1    2  501    0 -0.72400698505E+02 -0.14788701807E+02 -0.22363069474E+04  0.22375275037E+04  0.00000000000E+00 0.  1.
<scales pt_clust_3="212.62387" pt_clust_4="90.48079" pt_clust_5="14000.00000" pt_clust_6="73.89565"></scales>
<clustering>
<clus scale="   73.896">  2  6  1 -1</clus>
<clus scale="   90.481">  2  4  1 -1</clus>
<clus scale="  212.624">  1  3  2 -1</clus>
<clus scale="  212.624">  1  3  2 -1</clus>
</clustering>
</event>
<event>
 6    0  0.3584505E+002  0.1091079E+03  0.7546771E-02  0.1262231E+00
          1   -1    0    0  503    0 -0.00000000000E+00  0.00000000000E+00  0.26639467533E+03  0.26639467533E+03  0.00000000000E+00 0. -1.
         21   -1    0    0  504  502  0.00000000000E+00 -0.00000000000E+00 -0.53346767230E+03  0.53346767230E+03  0.00000000000E+00 0.  1.
         21    1    1    2  503  505 -0.27225316728E+02  0.23398691631E+02  0.10201677627E+02  0.37320113443E+02  0.00000000000E+00 0.  1.
         21    1    1    2  504  501 -0.49917441307E+02 -0.33161546221E+02  0.13597020300E+02  0.61451753884E+02  0.00000000000E+00 0. -1.
         21    1    1    2  505  502  0.10853683903E+03  0.47839050471E+02 -0.48577004355E+03  0.50004135367E+03  0.00000000000E+00 0.  1.
          1    1    1    2  501    0 -0.31394080996E+02 -0.38076195881E+02  0.19489834865E+03  0.20104912664E+03  0.00000000000E+00 0. -1.
<scales pt_clust_3="35.89870" pt_clust_4="109.10795" pt_clust_5="14000.00000" pt_clust_6="56.87043"></scales>
<clustering>
<clus scale="   35.899">  1  3  2 -1</clus>
<clus scale="   56.870">  1  6  2 -1</clus>
<clus scale="  109.108">  1  4  2 -1</clus>
<clus scale="  109.108">  2  3  1 -1</clus>
</clustering>
</event>
<event>
 6    0  0.3584505E+002  0.1481615E+03  0.7546771E-02  0.1202751E+00
         21   -1    0    0  504  502  0.00000000000E+00  0.00000000000E+00  0.10007130059E+03  0.10007130059E+03  0.00000000000E+00 0. -1.
          1   -1    0    0  505    0 -0.00000000000E+00 -0.00000000000E+00 -0.13745141083E+04  0.13745141083E+04  0.00000000000E+00 0. -1.
         21    1    1    2  503  501  0.36336126002E+02  0.21302599654E+03 -0.51804765704E+03  0.56131431856E+03  0.00000000000E+00 0. -1.
         21    1    1    2  504  503 -0.34490372334E+01 -0.79663087560E+02  0.47412599594E+02  0.92768841632E+02  0.00000000000E+00 0. -1.
         21    1    1    2  505  502 -0.14541173721E+02 -0.10855807762E+03 -0.37719109150E+03  0.39277146212E+03  0.00000000000E+00 0. -1.
          1    1    1    2  501    0 -0.18345915048E+02 -0.24804831361E+02 -0.42661665878E+03  0.42773078660E+03  0.00000000000E+00 0. -1.
<scales pt_clust_3="148.16147" pt_clust_4="80.35101" pt_clust_5="14000.00000" pt_clust_6="30.85210"></scales>
<clustering>
<clus scale="   30.852">  2  6  1 -1</clus>
<clus scale="   80.351">  1  4  2 -1</clus>
<clus scale="  148.161">  1  3  2 -1</clus>
<clus scale="   80.351">  1  3  2 -1</clus>
</clustering>
</event>
<event>
 6    0  0.3584505E+002  0.1816201E+03  0.7546771E-02  0.1166244E+00
         21   -1    0    0  501  502  0.00000000000E+00  0.00000000000E+00  0.24228852513E+03  0.24228852513E+03  0.00000000000E+00 0. -1.
          2   -1    0    0  504    0 -0.00000000000E+00 -0.00000000000E+00 -0.44407231556E+04  0.44407231556E+04  0.00000000000E+00 0.  1.
         21    1    1    2  503  502 -0.57991220246E+02 -0.18916997536E+02  0.11771463292E+03  0.13258042550E+03  0.00000000000E+00 0. -1.
         21    1    1    2  504  505  0.21281204730E+03  0.14496122576E+02 -0.12332024235E+04  0.12515140120E+04  0.00000000000E+00 0. -1.
         21    1    1    2  505  503 -0.11310961266E+03  0.89372719531E+02  0.58841710857E+02  0.15570361077E+03  0.00000000000E+00 0. -1.
          2    1    1    2  501    0 -0.41711214403E+02 -0.84951844571E+02 -0.31417885507E+04  0.31432136324E+04  0.00000000000E+00 0.  1.
<scales pt_clust_3="60.99864" pt_clust_4="14000.00000" pt_clust_5="181.62014" pt_clust_6="94.89866"></scales>
<clustering>
<clus scale="   60.999">  1  3  2 -1</clus>
<clus scale="   94.899">  2  6  1 -1</clus>
<clus scale="  181.620">  1  5  2 -1</clus>
<clus scale="   60.999">  1  3  2 -1</clus>
</clustering>
</event>
<event>
 6    0  0.3584505E+002  0.1623209E+03  0.7546771E-02  0.1186101E+00
          1   -1    0    0  504    0 -0.00000000000E+00  0.00000000000E+00  0.93574299849E+03  0.93574299849E+03  0.00000000000E+00 0.  1.
         21   -1    0    0  503  502  0.00000000000E+00 -0.00000000000E+00 -0.15448024317E+03  0.15448024317E+03  0.00000000000E+00 0. -1.
         21    1    1    2  503  505  0.11614417211E+03 -0.66888036341E+02 -0.41990130393E+02  0.14045159013E+03  0.00000000000E+00 0. -1.
         21    1    1    2  504  502 -0.57970508098E+01 -0.37780981867E+02 -0.49065145425E+02  0.62196437876E+02  0.00000000000E+00 0. -1.
         21    1    1    2  505  501 -0.43981556495E+02  0.26851928939E+02  0.16381984275E+03  0.17173335226E+03  0.00000000000E+00 0.  1.
          1    1    1    2  501    0 -0.66365564803E+02  0.77817089269E+02  0.70849818839E+03  0.71584186140E+03  0.00000000000E+00 0.  1.
<scales pt_clust_3="150.42991" pt_clust_4="38.22314" pt_clust_5="43.24237" pt_clust_6="43.24237"></scales>
<clustering>
<clus scale="   38.223">  2  4  1 -1</clus>
<clus scale="   43.242">  5  6 -1 -1</clus>
<clus scale="  150.430">  2  3  1 -1</clus>
<clus scale="   38.223">  2  3  1 -1</clus>
</clustering>
</event>
<event>
 6    0  0.3584505E+002  0.1704717E+03  0.7546771E-02  0.1177357E+00
         21   -1    0    0  504  502  0.00000000000E+00  0.00000000000E+00  0.87741995991E+03  0.87741995991E+03  0.00000000000E+00 0.  1.
          2   -1    0    0  505    0 -0.00000000000E+00 -0.00000000000E+00 -0.85950839680E+03  0.85950839680E+03  0.00000000000E+00 0.  1.
         21    1    1    2  503  501 -0.10361506847E+03  0.11123371796E+02 -0.29186812863E+03  0.30991420800E+03  0.00000000000E+00 0.  1.
         21    1    1    2  504  503  0.14266907138E+03  0.62750375041E+02  0.25416538389E+03  0.29814780876E+03  0.00000000000E+00 0.  1.
         21    1    1    2  505  502  0.35304762250E+02 -0.40574136871E+02  0.58791321905E+03  0.59036822403E+03  0.00000000000E+00 0.  1.
          2    1    1    2  501    0 -0.74358765160E+02 -0.33299609966E+02 -0.53229891120E+03  0.53849811591E+03  0.00000000000E+00 0.  1.
<scales pt_clust_3="170.47167" pt_clust_4="14000.00000" pt_clust_5="53.78370" pt_clust_6="81.30821"></scales>
<clustering>
<clus scale="   53.784">  1  5  2 -1</clus>
<clus scale="   81.308">  2  6  1 -1</clus>
<clus scale="  170.472">  2  3  1 -1</clus>
<clus scale="   53.784">  1  3  2 -1</clus>
</clustering>
</event>
<event>
 6    0  0.3584505E+002  0.1272366E+03  0.7546771E-02  0.1231615E+00
          1   -1    0    0  504    0 -0.00000000000E+00  0.00000000000E+00  0.28857953263E+04  0.28857953263E+04  0.00000000000E+00 0. -1.
         21   -1    0    0  505  502  0.00000000000E+00 -0.00000000000E+00 -0.48126423009E+02  0.48126423009E+02  0.00000000000E+00 0.  1.
         21    1    1    2  503  502  0.18690812400E+02  0.28404460188E+02  0.86186449689E+02  0.92651302942E+02  0.00000000000E+00 0.  1.
         21    1    1    2  504  503  0.67590190762E+02 -0.89499538351E+02  0.14713457128E+03  0.18500590077E+03  0.00000000000E+00 0.  1.
         21    1    1    2  505  501 -0.11087245967E+03  0.97692671729E+02  0.18618753560E+03  0.23770224828E+03  0.00000000000E+00 0.  1.
          1    1    1    2  501    0  0.24591456509E+02 -0.36597593566E+02  0.24181603467E+04  0.24185622973E+04  0.00000000000E+00 0. -1.
<scales pt_clust_3="34.00235" pt_clust_4="14000.00000" pt_clust_5="127.23656" pt_clust_6="44.03356"></scales>
<clustering>
<clus scale="   34.002">  2  3  1 -1</clus>
<clus scale="   44.034">  1  6  2 -1</clus>
<clus scale="  127.237">  1  5  2 -1</clus>
<clus scale="   34.002">  2  3  1 -1</clus>
</clustering>
</event>
<event>
 6    0  0.3584505E+002  0.9887182E+02  0.7546771E-02  0.1282686E+00
         21   -1    0    0  503  502  0.00000000000E+00  0.00000000000E+00  0.63594353054E+03  0.63594353054E+03  0.00000000000E+00 0. -1.
          2   -1    0    0  504    0 -0.00000000000E+00 -0.00000000000E+00 -0.53493232027E+03  0.53493232027E+03  0.00000000000E+00 0.  1.
         21    1    1    2  503  505  0.15304999897E+02  0.62994833794E+02  0.28000735593E+03  0.28741383314E+03  0.00000000000E+00 0. -1.
         21    1    1    2  504  502  0.61334543170E+02  0.18889088063E+02  0.67950733804E+02  0.93466710963E+02  0.00000000000E+00 0.  1.
         21    1    1    2  505  501 -0.11294888019E+03 -0.11894821177E+03  0.24526235232E+03  0.29505888918E+03  0.00000000000E+00 0. -1.
          2    1    1    2  501    0  0.36309337128E+02  0.37064289910E+02 -0.49220923178E+03  0.49493641753E+03  0.00000000000E+00 0.  1.
<scales pt_clust_3="68.86077" pt_clust_4="98.87182" pt_clust_5="14000.00000" pt_clust_6="51.88574"></scales>
<clustering>
<clus scale="   51.886">  2  6  1 -1</clus>
<clus scale="   68.861">  1  3  2 -1</clus>
<clus scale="   98.872">  2  4  1 -1</clus>
<clus scale="   68.861">  1  3  2 -1</clus>
</clustering>
</event>
<event>
 6    0  0.3584505E+002  0.1298724E+03  0.7546771E-02  0.1227645E+00
          4   -1    0    0  503    0 -0.00000000000E+00  0.00000000000E+00  0.28842286245E+03  0.28842286245E+03  0.00000000000E+00 0.  1.
         21   -1    0    0  504  502  0.00000000000E+00 -0.00000000000E+00 -0.18251940736E+04  0.18251940736E+04  0.00000000000E+00 0. -1.
         21    1    1    2  503  505  0.24796988994E+02 -0.49130807775E+02 -0.18061888221E+03  0.18881712725E+03  0.00000000000E+00 0.  1.
         21    1    1    2  504  501 -0.80503446468E+02 -0.10284077499E+03 -0.11519019410E+04  0.11592821536E+04  0.00000000000E+00 0. -1.
         21    1    1    2  505  502  0.18057650563E+02  0.27566691744E+02 -0.46922518381E+03  0.47038098852E+03  0.00000000000E+00 0.  1.
          4    1    1    2  501    0  0.37648806911E+02  0.12440489102E+03  0.26497479588E+03  0.29513666669E+03  0.00000000000E+00 0.  1.
<scales pt_clust_3="52.93192" pt_clust_4="14000.00000" pt_clust_5="32.95453" pt_clust_6="129.87241"></scales>
<clustering>
<clus scale="   32.955">  2  5  1 -1</clus>
<clus scale="   52.932">  2  3  1 -1</clus>
<clus scale="  129.872">  1  6  2 -1</clus>
<clus scale="   32.955">  2  3  1 -1</clus>
</clustering>
</event>
<event>
 6    0  0.3584505E+002  0.8292300E+02  0.7546771E-02  0.1320955E+00
         21   -1    0    0  503  502  0.00000000000E+00  0.00000000000E+00  0.76994722162E+02  0.76994722162E+02  0.00000000000E+00 0. -1.
          2   -1    0    0  505    0 -0.00000000000E+00 -0.00000000000E+00 -0.78211513336E+03  0.78211513336E+03  0.00000000000E+00 0. -1.
         21    1    1    2  503  501  0.37763004874E+02 -0.76867921652E+02 -0.15626313908E+03  0.17819340771E+03  0.00000000000E+00 0. -1.
         21    1    1    2  504  502 -0.36507980215E+02  0.48311297714E+02  0.23558362161E+02  0.64975461014E+02  0.00000000000E+00 0. -1.
         21    1    1    2  505  504  0.21008709253E+01  0.72195565967E+02 -0.41651696149E+02  0.83375519164E+02  0.00000000000E+00 0. -1.
          2    1    1    2  501    0 -0.33558955839E+01 -0.43638942029E+02 -0.53076393813E+03  0.53256546763E+03  0.00000000000E+00 0. -1.
<scales pt_clust_3="14000.00000" pt_clust_4="57.89239" pt_clust_5="82.92300" pt_clust_6="43.76779"></scales>
<clustering>
<clus scale="   43.768">  2  6  1 -1</clus>
<clus scale="   57.892">  1  4  2 -1</clus>
<clus scale="   82.923">  2  5  1 -1</clus>
<clus scale="   57.892">  1  3  2 -1</clus>
</clustering>
</event>
<event>
 6    0  0.3584505E+002  0.2343738E+03  0.7546771E-02  0.1123599E+00
          2   -1    0    0  505    0 -0.00000000000E+00  0.00000000000E+00  0.35192318314E+04  0.35192318314E+04  0.00000000000E+00 0. -1.
         21   -1    0    0  504  502  0.00000000000E+00 -0.00000000000E+00 -0.10872149098E+03  0.10872149098E+03  0.00000000000E+00 0.  1.
         21    1    1    2  503  502 -0.25327825142E+03 -0.79621132898E+02  0.13011831386E+03  0.29566902619E+03  0.00000000000E+00 0.  1.
         21    1    1    2  504  501  0.21113904536E+02  0.40576925083E+02  0.87618970811E+02  0.98840112606E+02  0.00000000000E+00 0. -1.
         21    1    1    2  505  503  0.22134621118E+03 -0.13987438139E+03  0.10122531832E+04  0.10455694595E+04  0.00000000000E+00 0. -1.
          2    1    1    2  501    0  0.10818135702E+02  0.17891858920E+03  0.21805198725E+04  0.21878747241E+04  0.00000000000E+00 0. -1.
<scales pt_clust_3="234.37380" pt_clust_4="45.74149" pt_clust_5="14000.00000" pt_clust_6="180.73654"></scales>
<clustering>
<clus scale="   45.741">  2  4  1 -1</clus>
<clus scale="  180.737">  1  6  2 -1</clus>
<clus scale="  234.374">  2  3  1 -1</clus>
<clus scale="   45.741">  2  3  1 -1</clus>
</clustering>
</event>
<event>
 6    0  0.3584505E+002  0.1506275E+03  0.7546771E-02  0.1199704E+00
         21   -1    0    0  505  502  0.00000000000E+00  0.00000000000E+00  0.80997116418E+02  0.80997116418E+02  0.00000000000E+00 0. -1.
          1   -1    0    0  503    0 -0.00000000000E+00 -0.00000000000E+00 -0.97562710859E+03  0.97562710859E+03  0.00000000000E+00 0.  1.
         21    1    1    2  503  504  0.14866728840E+03  0.82872443923E+02 -0.49961047387E+03  0.52780719037E+03  0.00000000000E+00 0.  1.
         21    1    1    2  504  502 -0.15390240139E+03 -0.68659142137E+02 -0.63651482075E+02  0.18014310457E+03  0.00000000000E+00 0. -1.
         21    1    1    2  505  501  0.38701845260E+02 -0.86256175108E+01 -0.43684244680E+02  0.58996163750E+02  0.00000000000E+00 0.  1.
          1    1    1    2  501    0 -0.33466732268E+02 -0.55876842746E+01 -0.28768379154E+03  0.28967776632E+03  0.00000000000E+00 0.  1.
<scales pt_clust_3="150.62747" pt_clust_4="14000.00000" pt_clust_5="37.31309" pt_clust_6="33.92999"></scales>
<clustering>
<clus scale="   33.930">  2  6  1 -1</clus>
<clus scale="   37.313">  1  5  2 -1</clus>
<clus scale="  150.627">  2  3  1 -1</clus>
<clus scale="   37.313">  1  3  2 -1</clus>
</clustering>
</event>
<event>
 6    0  0.3584505E+002  0.1318097E+03  0.7546771E-02  0.1224795E+00
         21   -1    0    0  501  502  0.00000000000E+00  0.00000000000E+00  0.16338778367E+03  0.16338778367E+03  0.00000000000E+00 0.  1.
          2   -1    0    0  505    0 -0.00000000000E+00 -0.00000000000E+00 -0.33370659870E+03  0.33370659870E+03  0.00000000000E+00 0. -1.
         21    1    1    2  503  504  0.64481129574E+02  0.14490477049E+03 -0.12774965599E+03  0.20365456830E+03  0.00000000000E+00 0. -1.
         21    1    1    2  504  502 -0.24046810710E+02 -0.23027287597E+02  0.86815620431E+02  0.92980949825E+02  0.00000000000E+00 0.  1.
         21    1    1    2  505  503 -0.65763509434E+02 -0.94305499084E+02 -0.10555936513E+03  0.15608057502E+03  0.00000000000E+00 0. -1.
          2    1    1    2  501    0  0.25329190569E+02 -0.27571983813E+02 -0.23825414342E+02  0.44378289229E+02  0.00000000000E+00 0. -1.
<scales pt_clust_3="131.80968" pt_clust_4="33.29422" pt_clust_5="14000.00000" pt_clust_6="37.82432"></scales>
<clustering>
<clus scale="   33.294">  1  4  2 -1</clus>
<clus scale="   37.824">  1  6  2 -1</clus>
<clus scale="  131.810">  1  3  2 -1</clus>
<clus scale="   33.294">  1  3  2 -1</clus>
</clustering>
</event>
<event>
 6    0  0.3584505E+002  0.7681621E+02  0.7546771E-02  0.1338337E+00
          1   -1    0    0  503    0 -0.00000000000E+00  0.00000000000E+00  0.14890387973E+04  0.14890387973E+04  0.00000000000E+00 0. -1.
         21   -1    0    0  504  502  0.00000000000E+00 -0.00000000000E+00 -0.35432002890E+03  0.35432002890E+03  0.00000000000E+00 0. -1.
         21    1    1    2  503  502  0.20171745292E+02  0.27167572059E+02  0.33112776411E+03  0.33285217807E+03  0.00000000000E+00 0. -1.
         21    1    1    2  504  505 -0.72115357859E+02 -0.16698553694E+01 -0.23867852750E+03  0.24934083650E+03  0.00000000000E+00 0. -1.
         21    1    1    2  505  501  0.97154021656E+02 -0.30484505090E+02 -0.85207025288E+02  0.13277215873E+03  0.00000000000E+00 0. -1.
          1    1    1    2  501    0 -0.45210409089E+02  0.49867884009E+01  0.11274765571E+04  0.11283936529E+04  0.00000000000E+00 0. -1.
<scales pt_clust_3="33.83750" pt_clust_4="76.81621" pt_clust_5="14000.00000" pt_clust_6="40.53417"></scales>
<clustering>
<clus scale="   33.837">  1  3  2 -1</clus>
<clus scale="   40.534">  1  6  2 -1</clus>
<clus scale="   76.816">  2  4  1 -1</clus>
<clus scale="   76.816">  2  3  1 -1</clus>
</clustering>
</event>
<event>
 6    0  0.3584505E+002  0.1221763E+03  0.7546771E-02  0.1239549E+00
          2   -1    0    0  505    0 -0.00000000000E+00  0.00000000000E+00  0.10938658612E+04  0.10938658612E+04  0.00000000000E+00 0. -1.
         21   -1    0    0  503  502  0.00000000000E+00 -0.00000000000E+00 -0.61276029240E+03  0.61276029240E+03  0.00000000000E+00 0. -1.
         21    1    1    2  503  501 -0.35222242276E+02  0.51166573846E+02 -0.23717998564E+02  0.66491864811E+02  0.00000000000E+00 0.  1.
         21    1    1    2  504  502 -0.45970262406E+01  0.66722430229E+02 -0.55721005084E+03  0.56120945831E+03  0.00000000000E+00 0. -1.
         21    1    1    2  505  504  0.93229079938E+01 -0.47233878714E+02  0.76486494384E+02  0.90377761286E+02  0.00000000000E+00 0. -1.
          2    1    1    2  501    0  0.30496360523E+02 -0.70655125361E+02  0.98554712382E+03  0.98854706919E+03  0.00000000000E+00 0. -1.
<scales pt_clust_3="61.18377" pt_clust_4="14000.00000" pt_clust_5="48.14515" pt_clust_6="122.17626"></scales>
<clustering>
<clus scale="   48.145">  1  5  2 -1</clus>
<clus scale="   61.184">  2  3  1 -1</clus>
<clus scale="  122.176">  1  6  2 -1</clus>
<clus scale="   61.184">  2  3  1 -1</clus>
</clustering>
</event>
<event>
 6    0  0.3584505E+002  0.1524417E+03  0.7546771E-02  0.1197504E+00
         21   -1    0    0  503  502  0.00000000000E+00  0.00000000000E+00  0.20720387432E+02  0.20720387432E+02  0.00000000000E+00 0. -1.
          2   -1    0    0  505    0 -0.00000000000E+00 -0.00000000000E+00 -0.16653228793E+04  0.16653228793E+04  0.00000000000E+00 0. -1.
         21    1    1    2  503  501 -0.34663387307E+02  0.12231760364E+02 -0.57817813736E+02  0.68513253947E+02  0.00000000000E+00 0. -1.
         21    1    1    2  504  502 -0.46660376963E+02 -0.50711166166E+02 -0.13250769031E+03  0.14935561972E+03  0.00000000000E+00 0. -1.
         21    1    1    2  505  504 -0.34418633655E+02 -0.44918850038E+02 -0.32049830200E+03  0.32545584496E+03  0.00000000000E+00 0. -1.
          2    1    1    2  501    0  0.11574239793E+03  0.83398255840E+02 -0.11337786858E+04  0.11427185481E+04  0.00000000000E+00 0. -1.
<scales pt_clust_3="36.75822" pt_clust_4="57.88786" pt_clust_5="57.88786" pt_clust_6="136.84255"></scales>
<clustering>
<clus scale="   36.758">  1  3  2 -1</clus>
<clus scale="   57.888">  4  5 -1 -1</clus>
<clus scale="  136.843">  2  6  1 -1</clus>
<clus scale="   36.758">  1  3  2 -1</clus>
</clustering>
</event>
<event>
 6    0  0.3584505E+002  0.1294715E+03  0.7546771E-02  0.1228242E+00
          2   -1    0    0  505    0 -0.00000000000E+00  0.00000000000E+00  0.16618926504E+03  0.16618926504E+03  0.00000000000E+00 0.  1.
         21   -1    0    0  501  502  0.00000000000E+00 -0.00000000000E+00 -0.20604793954E+04  0.20604793954E+04  0.00000000000E+00 0.  1.
         21    1    1    2  503  502 -0.22473429849E+02 -0.37418253043E+02 -0.18046463370E+04  0.18051741142E+04  0.00000000000E+00 0.  1.
         21    1    1    2  504  503 -0.88879185639E+02 -0.60857652721E+02 -0.18768849155E+03  0.21640271115E+03  0.00000000000E+00 0. -1.
         21    1    1    2  505  504  0.63156815811E+02  0.96413858239E+02  0.25611055852E+02  0.11806922387E+03  0.00000000000E+00 0. -1.
          2    1    1    2  501    0  0.48195799678E+02  0.18620475250E+01  0.72433642351E+02  0.87022611267E+02  0.00000000000E+00 0.  1.
<scales pt_clust_3="43.64838" pt_clust_4="129.47150" pt_clust_5="14000.00000" pt_clust_6="47.56099"></scales>
<clustering>
<clus scale="   43.648">  2  3  1 -1</clus>
<clus scale="   47.561">  1  6  2 -1</clus>
<clus scale="  129.471">  2  4  1 -1</clus>
<clus scale="   43.648">  2  3  1 -1</clus>
</clustering>
</event>
<event>
 6    0  0.3584505E+002  0.1265463E+03  0.7546771E-02  0.1232672E+00
         -1   -1    0    0    0  501 -0.00000000000E+00  0.00000000000E+00  0.15400042475E+03  0.15400042475E+03  0.00000000000E+00 0.  1.
         21   -1    0    0  505  502  0.00000000000E+00 -0.00000000000E+00 -0.10337510670E+04  0.10337510670E+04  0.00000000000E+00 0.  1.
         21    1    1    2  503  502  0.39615441347E+02  0.14800210744E+02 -0.30352444002E+03  0.30645638372E+03  0.00000000000E+00 0. -1.
         21    1    1    2  504  501 -0.42550778122E+02 -0.32349022013E+02  0.49374999402E+01  0.53678737408E+02  0.00000000000E+00 0.  1.
         21    1    1    2  505  504  0.69225489889E+01  0.10754385618E+03 -0.68311792593E+03  0.69156612368E+03  0.00000000000E+00 0.  1.
         -1    1    1    2    0  503 -0.39872122142E+01 -0.89995044909E+02  0.10195422372E+03  0.13605024698E+03  0.00000000000E+00 0.  1.
<scales pt_clust_3="42.28983" pt_clust_4="52.09861" pt_clust_5="126.54628" pt_clust_6="14000.00000"></scales>
<clustering>
<clus scale="   42.290">  2  3  1 -1</clus>
<clus scale="   52.099">  1  4  2 -1</clus>
<clus scale="  126.546">  2  5  1 -1</clus>
<clus scale="   42.290">  2  3  1 -1</clus>
</clustering>
</event>
<event>
 6    0  0.3584505E+002  0.7192322E+02  0.7546771E-02  0.1353673E+00
         21   -1    0    0  504  502  0.00000000000E+00  0.00000000000E+00  0.43323965994E+03  0.43323965994E+03  0.00000000000E+00 0.  1.
          2   -1    0    0  503    0 -0.00000000000E+00 -0.00000000000E+00 -0.29322561332E+04  0.29322561332E+04  0.00000000000E+00 0.  1.
         21    1    1    2  503  502  0.15176579138E+02 -0.31248925106E+02  0.36728164417E+02  0.50554741974E+02  0.00000000000E+00 0. -1.
         21    1    1    2  504  505  0.71390526359E+01  0.60204378120E+02  0.36886637910E+03  0.37381538070E+03  0.00000000000E+00 0.  1.
         21    1    1    2  505  501  0.15352412851E+02 -0.89841325081E+02 -0.98868599018E+02  0.13446992282E+03  0.00000000000E+00 0. -1.
          2    1    1    2  501    0 -0.37668044625E+02  0.60885872066E+02 -0.28057424178E+04  0.28066557477E+04  0.00000000000E+00 0.  1.
<scales pt_clust_3="34.73937" pt_clust_4="37.31110" pt_clust_5="14000.00000" pt_clust_6="71.92322"></scales>
<clustering>
<clus scale="   34.739">  1  3  2 -1</clus>
<clus scale="   37.311">  1  4  2 -1</clus>
<clus scale="   71.923">  2  6  1 -1</clus>
<clus scale="   34.739">  1  3  2 -1</clus>
</clustering>
</event>
<event>
 6    0  0.3584505E+002  0.1087382E+03  0.7546771E-02  0.1262925E+00
          1   -1    0    0  504    0 -0.00000000000E+00  0.00000000000E+00  0.29867718432E+04  0.29867718432E+04  0.00000000000E+00 0. -1.
         21   -1    0    0  505  502  0.00000000000E+00 -0.00000000000E+00 -0.20609337166E+04  0.20609337166E+04  0.00000000000E+00 0. -1.
         21    1    1    2  503  501  0.47526921665E+02  0.64083513308E+01  0.79586212049E+02  0.92918461019E+02  0.00000000000E+00 0. -1.
         21    1    1    2  504  502 -0.42856490732E+02  0.63560507298E+02  0.93329276424E+01  0.77225128191E+02  0.00000000000E+00 0. -1.
         21    1    1    2  505  503 -0.22517360490E+02 -0.10834018114E+03 -0.20186494123E+04  0.20216800133E+04  0.00000000000E+00 0. -1.
          1    1    1    2  501    0  0.17846929556E+02  0.38371322510E+02  0.28555683992E+04  0.28558819572E+04  0.00000000000E+00 0. -1.
<scales pt_clust_3="67.20061" pt_clust_4="14000.00000" pt_clust_5="108.73817" pt_clust_6="42.31869"></scales>
<clustering>
<clus scale="   42.319">  1  6  2 -1</clus>
<clus scale="   67.201">  1  3  2 -1</clus>
<clus scale="  108.738">  2  5  1 -1</clus>
<clus scale="  108.738">  2  3  1 -1</clus>
</clustering>
</event>
<event>
 6    0  0.3584505E+002  0.1322737E+03  0.7546771E-02  0.1224120E+00
         21   -1    0    0  503  502  0.00000000000E+00  0.00000000000E+00  0.20154998354E+03  0.20154998354E+03  0.00000000000E+00 0. -1.
          1   -1    0    0  505    0 -0.00000000000E+00 -0.00000000000E+00 -0.25169483064E+04  0.25169483064E+04  0.00000000000E+00 0. -1.
         21    1    1    2  503  504  0.10236401498E+02 -0.28235454557E+02 -0.29393502201E+02  0.42023835870E+02  0.00000000000E+00 0. -1.
         21    1    1    2  504  501  0.83093581675E+02  0.25659393956E+02 -0.31118053826E+02  0.92364934297E+02  0.00000000000E+00 0. -1.
         21    1    1    2  505  502 -0.15325269511E+02 -0.10503114947E+03  0.14546919569E+03  0.18007690896E+03  0.00000000000E+00 0. -1.
          1    1    1    2  501    0 -0.78004713661E+02  0.10760721007E+03 -0.24003559625E+04  0.24040326108E+04  0.00000000000E+00 0. -1.
<scales pt_clust_3="30.03373" pt_clust_4="87.31948" pt_clust_5="132.27372" pt_clust_6="14000.00000"></scales>
<clustering>
<clus scale="   30.034">  1  3  2 -1</clus>
<clus scale="   87.319">  1  4  2 -1</clus>
<clus scale="  132.274">  1  5  2 -1</clus>
<clus scale="   30.034">  1  3  2 -1</clus>
</clustering>
</event>
<event>
 6    0  0.3584505E+002  0.1397188E+03  0.7546771E-02  0.1213708E+00
         21   -1    0    0  501  502  0.00000000000E+00  0.00000000000E+00  0.32730493109E+02  0.32730493109E+02  0.00000000000E+00 0. -1.
          1   -1    0    0  504    0 -0.00000000000E+00 -0.00000000000E+00 -0.11666656903E+04  0.11666656903E+04  0.00000000000E+00 0. -1.
         21    1    1    2  503  505  0.30212130688E+02 -0.44250455835E+02 -0.83307456571E+02  0.99050532571E+02  0.00000000000E+00 0. -1.
         21    1    1    2  504  503  0.58038732919E+02 -0.87820821131E+01 -0.16166591228E+03  0.17199269368E+03  0.00000000000E+00 0. -1.
         21    1    1    2  505  502  0.31285343615E+02 -0.20374551210E+02 -0.10530230098E+02  0.38791504328E+02  0.00000000000E+00 0. -1.
          1    1    1    2  501    0 -0.11953620722E+03  0.73407089158E+02 -0.87843159822E+03  0.88956145281E+03  0.00000000000E+00 0. -1.
<scales pt_clust_3="53.33627" pt_clust_4="53.33627" pt_clust_5="37.33490" pt_clust_6="129.11050"></scales>
<clustering>
<clus scale="   37.335">  1  5  2 -1</clus>
<clus scale="   53.336">  3  4 -1 -1</clus>
<clus scale="  129.111">  2  6  1 -1</clus>
<clus scale="   37.335">  1  3  2 -1</clus>
</clustering>
</event>
<event>
 6    0  0.3584505E+002  0.1718802E+03  0.7546771E-02  0.1175901E+00
         21   -1    0    0  505  502  0.00000000000E+00  0.00000000000E+00  0.30912153540E+03  0.30912153540E+03  0.00000000000E+00 0.  1.
          2   -1    0    0  503    0 -0.00000000000E+00 -0.00000000000E+00 -0.11667736063E+04  0.11667736063E+04  0.00000000000E+00 0.  1.
         21    1    1    2  503  504  0.22579253778E+03  0.31746855666E+02 -0.46236784270E+02  0.23265419227E+03  0.00000000000E+00 0.  1.
         21    1    1    2  504  502 -0.26003706991E+02 -0.16915154142E+02  0.12956833075E+02  0.33618369090E+02  0.00000000000E+00 0.  1.
         21    1    1    2  505  501 -0.31925758557E+02 -0.16034808673E+02  0.18396793624E+03  0.18740483108E+03  0.00000000000E+00 0.  1.
          2    1    1    2  501    0 -0.16786307223E+03  0.12031071495E+01 -0.10083400559E+04  0.10222177492E+04  0.00000000000E+00 0.  1.
<scales pt_clust_3="14000.00000" pt_clust_4="31.02121" pt_clust_5="55.79889" pt_clust_6="171.88018"></scales>
<clustering>
<clus scale="   31.021">  1  4  2 -1</clus>
<clus scale="   55.799">  1  5  2 -1</clus>
<clus scale="  171.880">  2  6  1 -1</clus>
<clus scale="   31.021">  1  3  2 -1</clus>
</clustering>
</event>
<event>
 6    0  0.3584505E+002  0.9033970E+02  0.7546771E-02  0.1302031E+00
         21   -1    0    0  503  502  0.00000000000E+00  0.00000000000E+00  0.55921745626E+03  0.55921745626E+03  0.00000000000E+00 0. -1.
          2   -1    0    0  504    0 -0.00000000000E+00 -0.00000000000E+00 -0.20101730092E+03  0.20101730092E+03  0.00000000000E+00 0. -1.
         21    1    1    2  503  505  0.27323277088E+02 -0.50262187991E+02  0.60620517453E+02  0.83352841276E+02  0.00000000000E+00 0. -1.
         21    1    1    2  504  502 -0.30957982872E+02  0.14466068652E+03  0.44561758817E+03  0.46953183685E+03  0.00000000000E+00 0. -1.
         21    1    1    2  505  501 -0.25858239954E+02 -0.65935330355E+02 -0.21012957779E+02  0.73875982275E+02  0.00000000000E+00 0. -1.
          2    1    1    2  501    0  0.29492945737E+02 -0.28463168171E+02 -0.12702499250E+03  0.13347409678E+03  0.00000000000E+00 0. -1.
<scales pt_clust_3="63.51845" pt_clust_4="14000.00000" pt_clust_5="90.33970" pt_clust_6="40.98763"></scales>
<clustering>
<clus scale="   40.988">  2  6  1 -1</clus>
<clus scale="   63.518">  1  3  2 -1</clus>
<clus scale="   90.340">  2  5  1 -1</clus>
<clus scale="   63.518">  1  3  2 -1</clus>
</clustering>
</event>
<event>
 6    0  0.3584505E+002  0.1065433E+03  0.7546771E-02  0.1267108E+00
         21   -1    0    0  505  502  0.00000000000E+00  0.00000000000E+00  0.14727498073E+04  0.14727498073E+04  0.00000000000E+00 0.  1.
          2   -1    0    0  503    0 -0.00000000000E+00 -0.00000000000E+00 -0.20239988849E+04  0.20239988849E+04  0.00000000000E+00 0.  1.
         21    1    1    2  503  502 -0.16037184164E+03  0.96431808488E+02 -0.18452433975E+03  0.26280687441E+03  0.00000000000E+00 0. -1.
         21    1    1    2  504  501  0.41218527948E+02 -0.94317162890E+02  0.31930432466E+03  0.33548464347E+03  0.00000000000E+00 0.  1.
         21    1    1    2  505  504  0.20979033893E+02  0.31019624521E+02  0.11043988641E+04  0.11050335687E+04  0.00000000000E+00 0.  1.
          2    1    1    2  501    0  0.98174279799E+02 -0.33134270119E+02 -0.17904279265E+04  0.17934236056E+04  0.00000000000E+00 0.  1.
<scales pt_clust_3="14000.00000" pt_clust_4="89.65304" pt_clust_5="37.44779" pt_clust_6="106.54334"></scales>
<clustering>
<clus scale="   37.448">  1  5  2 -1</clus>
<clus scale="   89.653">  1  4  2 -1</clus>
<clus scale="  106.543">  2  6  1 -1</clus>
<clus scale="   37.448">  1  3  2 -1</clus>
</clustering>
</event>
<event>
 6    0  0.3584505E+002  0.1627732E+03  0.7546771E-02  0.1185601E+00
         21   -1    0    0  505  502  0.00000000000E+00  0.00000000000E+00  0.23509568501E+03  0.23509568501E+03  0.00000000000E+00 0.  1.
          4   -1    0    0  503    0 -0.00000000000E+00 -0.00000000000E+00 -0.47989055075E+03  0.47989055075E+03  0.00000000000E+00 0.  1.
         21    1    1    2  503  504 -0.16134581755E+03 -0.73583170207E+01 -0.30828538792E+03  0.34803232332E+03  0.00000000000E+00 0.  1.
         21    1    1    2  504  502  0.16572071954E+03  0.71133687983E+02  0.55764252631E+02  0.18876707955E+03  0.00000000000E+00 0.  1.
         21    1    1    2  505  501 -0.52999484133E+02  0.22468170724E+02  0.44303250508E+02  0.72639810157E+02  0.00000000000E+00 0.  1.
          4    1    1    2  501    0  0.48624582143E+02 -0.86243541687E+02 -0.36576980965E+02  0.10554702273E+03  0.00000000000E+00 0.  1.
<scales pt_clust_3="14000.00000" pt_clust_4="162.77320" pt_clust_5="57.56530" pt_clust_6="90.36388"></scales>
<clustering>
<clus scale="   57.565">  1  5  2 -1</clus>
<clus scale="   90.364">  1  6  2 -1</clus>
<clus scale="  162.773">  1  4  2 -1</clus>
<clus scale="   57.565">  1  3  2 -1</clus>
</clustering>
</event>
<event>
 6    0  0.3584505E+002  0.1447353E+03  0.7546771E-02  0.1207096E+00
         21   -1    0    0  504  502  0.00000000000E+00  0.00000000000E+00  0.47084341766E+03  0.47084341766E+03  0.00000000000E+00 0. -1.
          2   -1    0    0  502    0 -0.00000000000E+00 -0.00000000000E+00 -0.10908797850E+03  0.10908797850E+03  0.00000000000E+00 0. -1.
         21    1    1    2  503  505 -0.12876261656E+03 -0.46748085719E+02  0.14688382005E+03  0.20084832968E+03  0.00000000000E+00 0. -1.
         21    1    1    2  504  503 -0.30690577303E+02 -0.38760454415E+02  0.15861848831E+03  0.16614484402E+03  0.00000000000E+00 0. -1.
         21    1    1    2  505  501  0.13842424797E+03  0.24230364858E+02  0.40858986195E+02  0.14634835072E+03  0.00000000000E+00 0. -1.
          2    1    1    2  501    0  0.21028945893E+02  0.61278175277E+02  0.15394144604E+02  0.66589871743E+02  0.00000000000E+00 0. -1.
<scales pt_clust_3="144.73528" pt_clust_4="49.43970" pt_clust_5="14000.00000" pt_clust_6="58.63091"></scales>
<clustering>
<clus scale="   49.440">  1  4  2 -1</clus>
<clus scale="   58.631">  2  6  1 -1</clus>
<clus scale="  144.735">  1  3  2 -1</clus>
<clus scale="   49.440">  1  3  2 -1</clus>
</clustering>
</event>
<event>
 6    0  0.3584505E+002  0.1123958E+03  0.7546771E-02  0.1256196E+00
          2   -1    0    0  504    0 -0.00000000000E+00  0.00000000000E+00  0.32094257703E+04  0.32094257703E+04  0.00000000000E+00 0.  1.
         21   -1    0    0  503  502  0.00000000000E+00 -0.00000000000E+00 -0.21912643159E+03  0.21912643159E+03  0.00000000000E+00 0. -1.
         21    1    1    2  503  505  0.31826216305E+02 -0.51645547045E+02 -0.27359347141E+02  0.66548512004E+02  0.00000000000E+00 0. -1.
         21    1    1    2  504  502  0.13942610950E+02  0.46225284343E+02 -0.14066424486E+03  0.14871988131E+03  0.00000000000E+00 0. -1.
         21    1    1    2  505  501  0.68225309536E+02 -0.14561902334E+00  0.17561498661E+02  0.70449416615E+02  0.00000000000E+00 0.  1.
          2    1    1    2  501    0 -0.11399413679E+03  0.55658817255E+01  0.31407614320E+04  0.31428343919E+04  0.00000000000E+00 0.  1.
<scales pt_clust_3="46.42976" pt_clust_4="48.28223" pt_clust_5="14000.00000" pt_clust_6="112.39582"></scales>
<clustering>
<clus scale="   48.282">  2  4  1 -1</clus>
<clus scale="   46.430">  2  3  1 -1</clus>
<clus scale="  112.396">  1  6  2 -1</clus>
<clus scale="   48.282">  2  3  1 -1</clus>
</clustering>
</event>
<event>
 6    0  0.3584505E+002  0.9317970E+02  0.7546771E-02  0.1295329E+00
         21   -1    0    0  504  502  0.00000000000E+00  0.00000000000E+00  0.10852908579E+04  0.10852908579E+04  0.00000000000E+00 0.  1.
          2   -1    0    0  503    0 -0.00000000000E+00 -0.00000000000E+00 -0.15771110016E+04  0.15771110016E+04  0.00000000000E+00 0. -1.
         21    1    1    2  503  505  0.12722779251E+03 -0.42049409199E+01 -0.52260942777E+03  0.53788958599E+03  0.00000000000E+00 0. -1.
         21    1    1    2  504  501 -0.56853723227E+02  0.61107252814E+02 -0.52996233072E+02  0.98868816677E+02  0.00000000000E+00 0. -1.
         21    1    1    2  505  502 -0.37561890470E+02 -0.56384259701E+02  0.10533486103E+04  0.10555251656E+04  0.00000000000E+00 0.  1.
          2    1    1    2  501    0 -0.32812178818E+02 -0.51805219356E+00 -0.96956309316E+03  0.97011829128E+03  0.00000000000E+00 0. -1.
<scales pt_clust_3="14000.00000" pt_clust_4="93.17970" pt_clust_5="67.78352" pt_clust_6="32.81627"></scales>
<clustering>
<clus scale="   32.816">  2  6  1 -1</clus>
<clus scale="   67.784">  1  5  2 -1</clus>
<clus scale="   93.180">  1  4  2 -1</clus>
<clus scale="   67.784">  1  3  2 -1</clus>
</clustering>
</event>
<event>
 6    0  0.3584505E+002  0.1405128E+03  0.7546771E-02  0.1212641E+00
          1   -1    0    0  503    0 -0.00000000000E+00  0.00000000000E+00  0.11857789666E+04  0.11857789666E+04  0.00000000000E+00 0. -1.
         21   -1    0    0  505  502  0.00000000000E+00 -0.00000000000E+00 -0.73875099712E+02  0.73875099712E+02  0.00000000000E+00 0. -1.
         21    1    1    2  503  504  0.12613916277E+03 -0.39164687687E+02  0.27038339610E+03  0.30091882964E+03  0.00000000000E+00 0. -1.
         21    1    1    2  504  502 -0.13789906933E+03  0.78817132128E+02  0.20011793874E+03  0.25549067115E+03  0.00000000000E+00 0. -1.
         21    1    1    2  505  501  0.33344154054E+02  0.30894987882E+01 -0.20729219338E+02  0.39383729466E+02  0.00000000000E+00 0. -1.
          1    1    1    2  501    0 -0.21584247498E+02 -0.42741943229E+02  0.66213175141E+03  0.66386083608E+03  0.00000000000E+00 0. -1.
<scales pt_clust_3="14000.00000" pt_clust_4="140.51280" pt_clust_5="33.48698" pt_clust_6="47.53503"></scales>
<clustering>
<clus scale="   33.487">  2  5  1 -1</clus>
<clus scale="   47.535">  1  6  2 -1</clus>
<clus scale="  140.513">  2  4  1 -1</clus>
<clus scale="   33.487">  2  3  1 -1</clus>
</clustering>
</event>
<event>
 6    0  0.3584505E+002  0.6924135E+02  0.7546771E-02  0.1362692E+00
         21   -1    0    0  503  502  0.00000000000E+00  0.00000000000E+00  0.22885300285E+03  0.22885300285E+03  0.00000000000E+00 0.  1.
          1   -1    0    0  504    0 -0.00000000000E+00 -0.00000000000E+00 -0.16681281036E+04  0.16681281036E+04  0.00000000000E+00 0.  1.
         21    1    1    2  503  501 -0.27724755215E+02 -0.92901158279E+02 -0.62375184001E+02  0.11528204908E+03  0.00000000000E+00 0.  1.
         21    1    1    2  504  505  0.75321573756E+02  0.56826807255E+02 -0.75054855408E+02  0.12056474118E+03  0.00000000000E+00 0.  1.
         21    1    1    2  505  502 -0.54209723526E+02 -0.32067289013E+02  0.17330559250E+03  0.18439586096E+03  0.00000000000E+00 0.  1.
          1    1    1    2  501    0  0.66129049845E+01  0.68141640036E+02 -0.14751506539E+04  0.14767384553E+04  0.00000000000E+00 0.  1.
<scales pt_clust_3="14000.00000" pt_clust_4="65.94923" pt_clust_5="62.98417" pt_clust_6="69.24135"></scales>
<clustering>
<clus scale="   62.984">  1  5  2 -1</clus>
<clus scale="   65.949">  1  4  2 -1</clus>
<clus scale="   69.241">  2  6  1 -1</clus>
<clus scale="   62.984">  1  3  2 -1</clus>
</clustering>
</event>
<event>
 6    0  0.3584505E+002  0.1342232E+03  0.7546771E-02  0.1221321E+00
         21   -1    0    0  504  502  0.00000000000E+00  0.00000000000E+00  0.21400280177E+03  0.21400280177E+03  0.00000000000E+00 0.  1.
          2   -1    0    0  503    0 -0.00000000000E+00 -0.00000000000E+00 -0.64903631637E+03  0.64903631637E+03  0.00000000000E+00 0.  1.
         21    1    1    2  503  502 -0.28609535767E+02  0.83993881396E+02  0.11427779244E+03  0.14468203583E+03  0.00000000000E+00 0.  1.
         21    1    1    2  504  505 -0.21704506370E+02 -0.19157852805E+03 -0.45053117638E+02  0.19799798336E+03  0.00000000000E+00 0.  1.
         21    1    1    2  505  501  0.42070665700E+02  0.69191656740E+02 -0.24228577849E+03  0.25546002570E+03  0.00000000000E+00 0.  1.
          2    1    1    2  501    0  0.82433764379E+01  0.38392989912E+02 -0.26197241090E+03  0.26489907324E+03  0.00000000000E+00 0.  1.
<scales pt_clust_3="88.73262" pt_clust_4="124.99820" pt_clust_5="34.05289" pt_clust_6="34.05289"></scales>
<clustering>
<clus scale="   34.053">  5  6 -1 -1</clus>
<clus scale="   88.733">  1  3  2 -1</clus>
<clus scale="  124.998">  1  4  2 -1</clus>
<clus scale="   88.733">  1  3  2 -1</clus>
</clustering>
</event>
<event>
 6    0  0.3584505E+002  0.6911298E+02  0.7546771E-02  0.1363136E+00
         21   -1    0    0  504  502  0.00000000000E+00  0.00000000000E+00  0.29889484191E+03  0.29889484191E+03  0.00000000000E+00 0.  1.
          2   -1    0    0  503    0 -0.00000000000E+00 -0.00000000000E+00 -0.17705458091E+03  0.17705458091E+03  0.00000000000E+00 0.  1.
         21    1    1    2  503  502  0.59872003224E+02  0.35094919539E+02  0.63826417607E+02  0.94287442070E+02  0.00000000000E+00 0.  1.
         21    1    1    2  504  505 -0.38296934551E+02 -0.12007900836E+01  0.89781515532E+02  0.97615662801E+02  0.00000000000E+00 0.  1.
         21    1    1    2  505  501 -0.53798416368E+02 -0.92050381728E+02  0.93771371607E+02  0.14198807173E+03  0.00000000000E+00 0.  1.
          2    1    1    2  501    0  0.32223347695E+02  0.58156252272E+02 -0.12553904375E+03  0.14205824622E+03  0.00000000000E+00 0.  1.
<scales pt_clust_3="56.87665" pt_clust_4="38.31576" pt_clust_5="69.11298" pt_clust_6="14000.00000"></scales>
<clustering>
<clus scale="   38.316">  1  4  2 -1</clus>
<clus scale="   56.877">  1  3  2 -1</clus>
<clus scale="   69.113">  1  5  2 -1</clus>
<clus scale="   38.316">  1  3  2 -1</clus>
</clustering>
</event>
<event>
 6    0  0.3584505E+002  0.1364603E+03  0.7546771E-02  0.1218173E+00
         21   -1    0    0  501  502  0.00000000000E+00  0.00000000000E+00  0.11389671315E+03  0.11389671315E+03  0.00000000000E+00 0.  1.
          2   -1    0    0  504    0 -0.00000000000E+00 -0.00000000000E+00 -0.54363453619E+03  0.54363453619E+03  0.00000000000E+00 0.  1.
         21    1    1    2  503  505 -0.11901027470E+01 -0.96947043838E+02 -0.26292700409E+02  0.10045621807E+03  0.00000000000E+00 0.  1.
         21    1    1    2  504  503  0.13662999833E+02  0.11282266016E+03 -0.37953449838E+02  0.11981692103E+03  0.00000000000E+00 0.  1.
         21    1    1    2  505  502  0.42090851994E+01 -0.43667227766E+02  0.21539333382E+02  0.48872139931E+02  0.00000000000E+00 0.  1.
          2    1    1    2  501    0 -0.16681982285E+02  0.27791611443E+02 -0.38703100617E+03  0.38838597031E+03  0.00000000000E+00 0.  1.
<scales pt_clust_3="34.61911" pt_clust_4="126.99030" pt_clust_5="34.61911" pt_clust_6="32.41392"></scales>
<clustering>
<clus scale="   32.414">  2  6  1 -1</clus>
<clus scale="   34.619">  3  5 -1 -1</clus>
<clus scale="  126.990">  2  4  1 -1</clus>
<clus scale="  136.460">  1  3  2 -1</clus>
</clustering>
</event>
<event>
 6    0  0.3584505E+002  0.9553846E+02  0.7546771E-02  0.1289968E+00
          2   -1    0    0  505    0 -0.00000000000E+00  0.00000000000E+00  0.11873818412E+04  0.11873818412E+04  0.00000000000E+00 0. -1.
         21   -1    0    0  503  502  0.00000000000E+00 -0.00000000000E+00 -0.39481579440E+02  0.39481579440E+02  0.00000000000E+00 0. -1.
         21    1    1    2  503  504 -0.30618208943E+02 -0.24106545705E+02  0.60780707578E+01  0.39440375364E+02  0.00000000000E+00 0. -1.
         21    1    1    2  504  501 -0.64148067274E+02  0.68617915564E+02  0.11307880158E+03  0.14700410960E+03  0.00000000000E+00 0. -1.
         21    1    1    2  505  502  0.40712123142E+02 -0.73386002915E+02  0.76794996005E+03  0.77252192430E+03  0.00000000000E+00 0.  1.
          2    1    1    2  501    0  0.54054153075E+02  0.28874633055E+02  0.26079342938E+03  0.26789701138E+03  0.00000000000E+00 0. -1.
<scales pt_clust_3="38.96922" pt_clust_4="14000.00000" pt_clust_5="95.53846" pt_clust_6="55.31680"></scales>
<clustering>
<clus scale="   38.969">  2  3  1 -1</clus>
<clus scale="   55.317">  1  6  2 -1</clus>
<clus scale="   95.538">  1  5  2 -1</clus>
<clus scale="   38.969">  2  3  1 -1</clus>
</clustering>
</event>
<event>
 6    0  0.3584505E+002  0.1655897E+03  0.7546771E-02  0.1182527E+00
         21   -1    0    0  501  502  0.00000000000E+00  0.00000000000E+00  0.18945201739E+03  0.18945201739E+03  0.00000000000E+00 0.  1.
          1   -1    0    0  503    0 -0.00000000000E+00 -0.00000000000E+00 -0.19923107294E+04  0.19923107294E+04  0.00000000000E+00 0. -1.
         21    1    1    2  503  505 -0.13257927238E+03  0.34790638734E+02 -0.32777325252E+03  0.35527870338E+03  0.00000000000E+00 0.  1.
         21    1    1    2  504  502 -0.27538720385E+02 -0.18418940134E+02  0.67902129492E+02  0.75553541714E+02  0.00000000000E+00 0. -1.
         21    1    1    2  505  504  0.17457626701E+03 -0.67570313474E+02  0.18889712498E+02  0.18814739303E+03  0.00000000000E+00 0.  1.
          1    1    1    2  501    0 -0.14458274242E+02  0.51198614874E+02 -0.15618773015E+04  0.15627831087E+04  0.00000000000E+00 0. -1.
<scales pt_clust_3="165.58972" pt_clust_4="33.13063" pt_clust_5="14000.00000" pt_clust_6="53.16168"></scales>
<clustering>
<clus scale="   33.131">  1  4  2 -1</clus>
<clus scale="   53.162">  2  6  1 -1</clus>
<clus scale="  165.590">  2  3  1 -1</clus>
<clus scale="   33.131">  1  3  2 -1</clus>
</clustering>
</event>
<event>
 6    0  0.3584505E+002  0.1225332E+03  0.7546771E-02  0.1238976E+00
         21   -1    0    0  505  502  0.00000000000E+00  0.00000000000E+00  0.80080301967E+03  0.80080301967E+03  0.00000000000E+00 0. -1.
          4   -1    0    0  503    0 -0.00000000000E+00 -0.00000000000E+00 -0.24364385529E+03  0.24364385529E+03  0.00000000000E+00 0. -1.
         21    1    1    2  503  504  0.14455990707E+03 -0.17747830123E+02 -0.16108237599E+03  0.21716372639E+03  0.00000000000E+00 0. -1.
         21    1    1    2  504  502 -0.33919906126E+02 -0.32082323161E+01  0.25157471835E+03  0.25387140780E+03  0.00000000000E+00 0. -1.
         21    1    1    2  505  501 -0.19647633417E+02  0.27221242269E+02  0.48005425242E+03  0.48122667299E+03  0.00000000000E+00 0. -1.
          4    1    1    2  501    0 -0.90992367529E+02 -0.62651798298E+01 -0.13387430403E+02  0.92185067769E+02  0.00000000000E+00 0. -1.
<scales pt_clust_3="14000.00000" pt_clust_4="52.70052" pt_clust_5="33.57120" pt_clust_6="122.53324"></scales>
<clustering>
<clus scale="   33.571">  1  5  2 -1</clus>
<clus scale="   52.701">  1  4  2 -1</clus>
<clus scale="  122.533">  1  6  2 -1</clus>
<clus scale="   33.571">  1  3  2 -1</clus>
</clustering>
</event>
<event>
 6    0  0.3584505E+002  0.1446287E+03  0.7546771E-02  0.1207233E+00
         21   -1    0    0  504  502  0.00000000000E+00  0.00000000000E+00  0.43005910081E+03  0.43005910081E+03  0.00000000000E+00 0.  1.
          4   -1    0    0  505    0 -0.00000000000E+00 -0.00000000000E+00 -0.25022900394E+03  0.25022900394E+03  0.00000000000E+00 0. -1.
         21    1    1    2  503  501 -0.11834544534E+02 -0.45539284303E+02  0.12358519824E+02  0.48647876330E+02  0.00000000000E+00 0. -1.
         21    1    1    2  504  503 -0.47143752631E+00 -0.51827709150E+02  0.65195611233E+02  0.83287462521E+02  0.00000000000E+00 0.  1.
         21    1    1    2  505  502  0.23077745561E+02  0.17184506397E+03  0.29459629163E+03  0.34183370722E+03  0.00000000000E+00 0.  1.
          4    1    1    2  501    0 -0.10771763501E+02 -0.74478070513E+02 -0.19232032581E+03  0.20651905868E+03  0.00000000000E+00 0. -1.
<scales pt_clust_3="39.97784" pt_clust_4="39.97784" pt_clust_5="138.40864" pt_clust_6="75.25300"></scales>
<clustering>
<clus scale="   39.978">  3  4 -1 -1</clus>
<clus scale="   75.253">  2  6  1 -1</clus>
<clus scale="  138.409">  1  5  2 -1</clus>
<clus scale="  138.409">  1  3  2 -1</clus>
</clustering>
</event>
<event>
 6    0  0.3584505E+002  0.6054602E+02  0.7546771E-02  0.1395555E+00
         21   -1    0    0  505  502  0.00000000000E+00  0.00000000000E+00  0.52948279609E+03  0.52948279609E+03  0.00000000000E+00 0.  1.
          1   -1    0    0  503    0 -0.00000000000E+00 -0.00000000000E+00 -0.15335157544E+03  0.15335157544E+03  0.00000000000E+00 0. -1.
         21    1    1    2  503  504 -0.31636328109E+02  0.27021443269E+02 -0.84361170261E+00  0.41614028083E+02  0.00000000000E+00 0. -1.
         21    1    1    2  504  502 -0.16718385708E+02  0.83554885644E+02  0.10892580772E+03  0.13829589626E+03  0.00000000000E+00 0. -1.
         21    1    1    2  505  501  0.77581324355E+01 -0.56408942143E+02  0.37339132817E+03  0.37770787830E+03  0.00000000000E+00 0.  1.
          1    1    1    2  501    0  0.40596581382E+02 -0.54167386770E+02 -0.10534230354E+03  0.12521656889E+03  0.00000000000E+00 0. -1.
<scales pt_clust_3="41.60548" pt_clust_4="14000.00000" pt_clust_5="60.54602" pt_clust_6="33.23579"></scales>
<clustering>
<clus scale="   41.605">  2  3  1 -1</clus>
<clus scale="   33.236">  2  6  1 -1</clus>
<clus scale="   60.546">  1  5  2 -1</clus>
<clus scale="   60.546">  1  3  2 -1</clus>
</clustering>
</event>
<event>
 6    0  0.3584505E+002  0.7345368E+02  0.7546771E-02  0.1348727E+00
         21   -1    0    0  505  502  0.00000000000E+00  0.00000000000E+00  0.54554889799E+03  0.54554889799E+03  0.00000000000E+00 0. -1.
          2   -1    0    0  503    0 -0.00000000000E+00 -0.00000000000E+00 -0.25337021069E+04  0.25337021069E+04  0.00000000000E+00 0. -1.
         21    1    1    2  503  502 -0.36545106800E+01 -0.29858547902E+02  0.38301144042E+03  0.38419090544E+03  0.00000000000E+00 0. -1.
         21    1    1    2  504  501 -0.94539695009E+02 -0.62712068479E+02  0.12931747392E+02  0.11418313166E+03  0.00000000000E+00 0. -1.
         21    1    1    2  505  504  0.58221029448E+02  0.31259578223E+02  0.86691197210E+02  0.10900556488E+03  0.00000000000E+00 0. -1.
          2    1    1    2  501    0  0.39973176240E+02  0.61311038158E+02 -0.24707875940E+04  0.24718714030E+04  0.00000000000E+00 0. -1.
<scales pt_clust_3="30.08136" pt_clust_4="73.45368" pt_clust_5="57.55171" pt_clust_6="14000.00000"></scales>
<clustering>
<clus scale="   30.081">  1  3  2 -1</clus>
<clus scale="   57.552">  1  5  2 -1</clus>
<clus scale="   73.454">  1  4  2 -1</clus>
<clus scale="   30.081">  1  3  2 -1</clus>
</clustering>
</event>
<event>
 6    0  0.3584505E+002  0.1160748E+03  0.7546771E-02  0.1249717E+00
         -1   -1    0    0    0  501 -0.00000000000E+00  0.00000000000E+00  0.36764046162E+03  0.36764046162E+03  0.00000000000E+00 0. -1.
         21   -1    0    0  503  502  0.00000000000E+00 -0.00000000000E+00 -0.11980209944E+03  0.11980209944E+03  0.00000000000E+00 0.  1.
         21    1    1    2  503  505 -0.51051417930E+02 -0.71534153344E+01 -0.56916560440E+02  0.76791363290E+02  0.00000000000E+00 0.  1.
         21    1    1    2  504  502  0.67977829011E+02  0.69696636478E+02  0.14003826612E+03  0.17055592148E+03  0.00000000000E+00 0.  1.
         21    1    1    2  505  501 -0.49969125504E+02 -0.31227035254E+02 -0.98044387194E+01  0.59734146457E+02  0.00000000000E+00 0.  1.
         -1    1    1    2    0  504  0.33042714423E+02 -0.31316185889E+02  0.17452109523E+03  0.18036112983E+03  0.00000000000E+00 0. -1.
<scales pt_clust_3="46.67248" pt_clust_4="104.70935" pt_clust_5="46.67248" pt_clust_6="45.52499"></scales>
<clustering>
<clus scale="   45.525">  1  6  2 -1</clus>
<clus scale="   46.672">  3  5 -1 -1</clus>
<clus scale="  104.709">  1  4  2 -1</clus>
<clus scale="  116.075">  2  3  1 -1</clus>
</clustering>
</event>
<event>
 6    0  0.3584505E+002  0.1159917E+03  0.7546771E-02  0.1249860E+00
         21   -1    0    0  505  502  0.00000000000E+00  0.00000000000E+00  0.14971397773E+03  0.14971397773E+03  0.00000000000E+00 0.  1.
         -1   -1    0    0    0  501 -0.00000000000E+00 -0.00000000000E+00 -0.42003891520E+03  0.42003891520E+03  0.00000000000E+00 0.  1.
         21    1    1    2  503  502 -0.69615936870E+02 -0.21454481226E+02 -0.71793898121E+02  0.10227921215E+03  0.00000000000E+00 0.  1.
         21    1    1    2  504  501  0.25699392480E+02 -0.49099721690E+02 -0.33778895135E+02  0.64901889036E+02  0.00000000000E+00 0. -1.
         21    1    1    2  505  504  0.12300334759E+03  0.60469292131E+02  0.70532149087E+02  0.15414649806E+03  0.00000000000E+00 0.  1.
         -1    1    1    2    0  503 -0.79086803202E+02  0.10084910786E+02 -0.23528429330E+03  0.24842529368E+03  0.00000000000E+00 0.  1.
<scales pt_clust_3="115.99174" pt_clust_4="55.41878" pt_clust_5="14000.00000" pt_clust_6="66.07208"></scales>
<clustering>
<clus scale="   55.419">  2  4  1 -1</clus>
<clus scale="   66.072">  2  6  1 -1</clus>
<clus scale="  115.992">  2  3  1 -1</clus>
<clus scale="  115.992">  1  3  2 -1</clus>
</clustering>
</event>
<event>
 6    0  0.3584505E+002  0.1944219E+03  0.7546771E-02  0.1154532E+00
          3   -1    0    0  503    0 -0.00000000000E+00  0.00000000000E+00  0.68848125781E+03  0.68848125781E+03  0.00000000000E+00 0. -1.
         21   -1    0    0  504  502  0.00000000000E+00 -0.00000000000E+00 -0.23595277355E+03  0.23595277355E+03  0.00000000000E+00 0.  1.
         21    1    1    2  503  505  0.66238471796E+01 -0.46222025641E+02  0.36332495123E+03  0.36631321461E+03  0.00000000000E+00 0. -1.
         21    1    1    2  504  501 -0.86076507300E+02 -0.15257143324E+03  0.31711533857E+02  0.17802479808E+03  0.00000000000E+00 0.  1.
         21    1    1    2  505  502  0.46867339707E+02  0.20495688753E+03 -0.90161577188E+02  0.22876403406E+03  0.00000000000E+00 0.  1.
          3    1    1    2  501    0  0.32585320414E+02 -0.61634286496E+01  0.14765357635E+03  0.15133198462E+03  0.00000000000E+00 0. -1.
<scales pt_clust_3="57.98318" pt_clust_4="14000.00000" pt_clust_5="194.42194" pt_clust_6="33.16310"></scales>
<clustering>
<clus scale="   33.163">  1  6  2 -1</clus>
<clus scale="   57.983">  1  3  2 -1</clus>
<clus scale="  194.422">  2  5  1 -1</clus>
<clus scale="  194.422">  2  3  1 -1</clus>
</clustering>
</event>
<event>
 6    0  0.3584505E+002  0.1262966E+03  0.7546771E-02  0.1233057E+00
         21   -1    0    0  504  502  0.00000000000E+00  0.00000000000E+00  0.10780322691E+04  0.10780322691E+04  0.00000000000E+00 0.  1.
         -3   -1    0    0    0  501 -0.00000000000E+00 -0.00000000000E+00 -0.93356615128E+02  0.93356615128E+02  0.00000000000E+00 0.  1.
         21    1    1    2  503  505  0.79361324578E+02 -0.33562958214E+02  0.43216048756E+02  0.96396674595E+02  0.00000000000E+00 0.  1.
         21    1    1    2  504  501 -0.63653868066E+02  0.13498442347E+03  0.87165581134E+03  0.88433956315E+03  0.00000000000E+00 0.  1.
         21    1    1    2  505  502 -0.35793174721E+02 -0.29387018904E+02  0.99844450673E+02  0.11006208506E+03  0.00000000000E+00 0. -1.
         -3    1    1    2    0  503  0.20085718209E+02 -0.72034446353E+02 -0.30040656769E+02  0.80590561460E+02  0.00000000000E+00 0.  1.
<scales pt_clust_3="14000.00000" pt_clust_4="126.29660" pt_clust_5="46.31143" pt_clust_6="75.27593"></scales>
<clustering>
<clus scale="   46.311">  1  5  2 -1</clus>
<clus scale="   75.276">  2  6  1 -1</clus>
<clus scale="  126.297">  1  4  2 -1</clus>
<clus scale="   46.311">  1  3  2 -1</clus>
</clustering>
</event>
<event>
 6    0  0.3584505E+002  0.9091564E+02  0.7546771E-02  0.1300649E+00
          2   -1    0    0  505    0 -0.00000000000E+00  0.00000000000E+00  0.53035985644E+03  0.53035985644E+03  0.00000000000E+00 0. -1.
         21   -1    0    0  503  502  0.00000000000E+00 -0.00000000000E+00 -0.19616434308E+03  0.19616434308E+03  0.00000000000E+00 0. -1.
         21    1    1    2  503  504  0.11778234375E+03  0.41488028501E+02 -0.25977993530E+02  0.12754917936E+03  0.00000000000E+00 0. -1.
         21    1    1    2  504  501 -0.38642641561E+02 -0.63435261695E+02 -0.25103392935E+02  0.78405781101E+02  0.00000000000E+00 0. -1.
         21    1    1    2  505  502 -0.40155776493E+02  0.22509790393E+01 -0.60505045757E+02  0.72652693374E+02  0.00000000000E+00 0. -1.
          2    1    1    2  501    0 -0.38983925697E+02  0.19696254155E+02  0.44578194558E+03  0.44791654569E+03  0.00000000000E+00 0. -1.
<scales pt_clust_3="90.91564" pt_clust_4="14000.00000" pt_clust_5="40.21882" pt_clust_6="43.98085"></scales>
<clustering>
<clus scale="   40.219">  2  5  1 -1</clus>
<clus scale="   43.981">  1  6  2 -1</clus>
<clus scale="   90.916">  2  3  1 -1</clus>
<clus scale="   40.219">  2  3  1 -1</clus>
</clustering>
</event>
<event>
 6    0  0.3584505E+002  0.8235243E+02  0.7546771E-02  0.1322505E+00
         -1   -1    0    0    0  501 -0.00000000000E+00  0.00000000000E+00  0.29588808024E+03  0.29588808024E+03  0.00000000000E+00 0.  1.
         21   -1    0    0  504  502  0.00000000000E+00 -0.00000000000E+00 -0.15058629756E+03  0.15058629756E+03  0.00000000000E+00 0.  1.
         21    1    1    2  503  501  0.38231216681E+02  0.57425261550E+02  0.63503266658E+02  0.93765406570E+02  0.00000000000E+00 0.  1.
         21    1    1    2  504  503 -0.45862556087E+02 -0.99244759665E+02  0.55436281592E+02  0.12258090263E+03  0.00000000000E+00 0.  1.
         21    1    1    2  505  502  0.45738843363E+02  0.23334460076E+02 -0.91480137458E+02  0.10490545443E+03  0.00000000000E+00 0.  1.
         -1    1    1    2    0  505 -0.38107503956E+02  0.18485038038E+02  0.11784237189E+03  0.12522261417E+03  0.00000000000E+00 0.  1.
<scales pt_clust_3="14000.00000" pt_clust_4="82.35243" pt_clust_5="50.38056" pt_clust_6="42.35420"></scales>
<clustering>
<clus scale="   42.354">  1  6  2 -1</clus>
<clus scale="   50.381">  2  5  1 -1</clus>
<clus scale="   82.352">  2  4  1 -1</clus>
<clus scale="   50.381">  2  3  1 -1</clus>
</clustering>
</event>
<event>
 6    0  0.3584505E+002  0.8357873E+02  0.7546771E-02  0.1319192E+00
          2   -1    0    0  503    0 -0.00000000000E+00  0.00000000000E+00  0.24283784936E+02  0.24283784936E+02  0.00000000000E+00 0. -1.
         21   -1    0    0  504  502  0.00000000000E+00 -0.00000000000E+00 -0.33484749151E+04  0.33484749151E+04  0.00000000000E+00 0. -1.
         21    1    1    2  503  502 -0.24164257187E+02 -0.30380950074E+02 -0.20117252255E+03  0.20488361887E+03  0.00000000000E+00 0. -1.
         21    1    1    2  504  505 -0.61911429136E+02 -0.50729681634E+02 -0.26264308671E+04  0.26276502098E+04  0.00000000000E+00 0. -1.
         21    1    1    2  505  501  0.11578376537E+03  0.96866542322E+02 -0.47910285836E+03  0.50232315917E+03  0.00000000000E+00 0. -1.
          2    1    1    2  501    0 -0.29708079049E+02 -0.15755910614E+02 -0.17484882152E+02  0.37901712150E+02  0.00000000000E+00 0. -1.
<scales pt_clust_3="42.91908" pt_clust_4="83.57873" pt_clust_5="14000.00000" pt_clust_6="33.62765"></scales>
<clustering>
<clus scale="   33.628">  1  6  2 -1</clus>
<clus scale="   42.919">  1  3  2 -1</clus>
<clus scale="   83.579">  2  4  1 -1</clus>
<clus scale="   83.579">  2  3  1 -1</clus>
</clustering>
</event>
<event>
 6    0  0.3584505E+002  0.1034923E+03  0.7546771E-02  0.1273119E+00
          2   -1    0    0  505    0 -0.00000000000E+00  0.00000000000E+00  0.92278253386E+03  0.92278253386E+03  0.00000000000E+00 0. -1.
         21   -1    0    0  504  502  0.00000000000E+00 -0.00000000000E+00 -0.13694848717E+03  0.13694848717E+03  0.00000000000E+00 0. -1.
         21    1    1    2  503  502 -0.35106117107E+02 -0.21877561355E+02 -0.98480171075E+02  0.10681484562E+03  0.00000000000E+00 0. -1.
         21    1    1    2  504  501  0.10566948010E+03  0.92948487852E+02  0.17284151607E+03  0.22288932253E+03  0.00000000000E+00 0. -1.
         21    1    1    2  505  503 -0.17277984791E+02 -0.37551737135E+02  0.47050637515E+02  0.62629260022E+02  0.00000000000E+00 0. -1.
          2    1    1    2  501    0 -0.53285378203E+02 -0.33519189362E+02  0.66442206418E+03  0.66739759286E+03  0.00000000000E+00 0. -1.
<scales pt_clust_3="41.53096" pt_clust_4="103.49230" pt_clust_5="41.33596" pt_clust_6="14000.00000"></scales>
<clustering>
<clus scale="   41.336">  1  5  2 -1</clus>
<clus scale="   41.531">  2  3  1 -1</clus>
<clus scale="  103.492">  2  4  1 -1</clus>
<clus scale="   41.531">  2  3  1 -1</clus>
</clustering>
</event>
<event>
 6    0  0.3584505E+002  0.6780590E+02  0.7546771E-02  0.1367717E+00
         21   -1    0    0  501  502  0.00000000000E+00  0.00000000000E+00  0.11677725100E+03  0.11677725100E+03  0.00000000000E+00 0. -1.
          1   -1    0    0  503    0 -0.00000000000E+00 -0.00000000000E+00 -0.28656978427E+04  0.28656978427E+04  0.00000000000E+00 0. -1.
         21    1    1    2  503  505 -0.35758396698E+02 -0.42686244442E+02 -0.21900763708E+04  0.21907841720E+04  0.00000000000E+00 0. -1.
         21    1    1    2  504  502 -0.61689048679E+02  0.35284396682E+02  0.87643676970E+02  0.11283590514E+03  0.00000000000E+00 0. -1.
         21    1    1    2  505  504  0.27985176402E+02 -0.50911797613E+02 -0.53518736587E+02  0.78990103179E+02  0.00000000000E+00 0. -1.
          1    1    1    2  501    0  0.69462268975E+02  0.58313645373E+02 -0.59296916127E+03  0.59986491334E+03  0.00000000000E+00 0. -1.
<scales pt_clust_3="55.68463" pt_clust_4="14000.00000" pt_clust_5="67.80590" pt_clust_6="43.12417"></scales>
<clustering>
<clus scale="   55.685">  2  3  1 -1</clus>
<clus scale="   43.124">  2  6  1 -1</clus>
<clus scale="   67.806">  2  5  1 -1</clus>
<clus scale="   67.806">  1  3  2 -1</clus>
</clustering>
</event>
<event>
 6    0  0.3584505E+002  0.8556401E+02  0.7546771E-02  0.1313964E+00
         21   -1    0    0  504  502  0.00000000000E+00  0.00000000000E+00  0.91375699035E+02  0.91375699035E+02  0.00000000000E+00 0.  1.
          1   -1    0    0  503    0 -0.00000000000E+00 -0.00000000000E+00 -0.43023102122E+03  0.43023102122E+03  0.00000000000E+00 0. -1.
         21    1    1    2  503  505  0.19299691924E+02 -0.30540923792E+02 -0.31003665723E+02  0.47607283294E+02  0.00000000000E+00 0. -1.
         21    1    1    2  504  501 -0.21118550909E+02  0.10091797602E+03 -0.83715098210E+02  0.13281057467E+03  0.00000000000E+00 0.  1.
         21    1    1    2  505  502 -0.39139225053E+02 -0.76024519857E+02  0.24650048092E+02  0.88990063649E+02  0.00000000000E+00 0.  1.
          1    1    1    2  501    0  0.40958084039E+02  0.56474676282E+01 -0.24878660634E+03  0.25219879864E+03  0.00000000000E+00 0. -1.
<scales pt_clust_3="36.12791" pt_clust_4="85.56401" pt_clust_5="14000.00000" pt_clust_6="55.11218"></scales>
<clustering>
<clus scale="   36.128">  2  3  1 -1</clus>
<clus scale="   55.112">  2  6  1 -1</clus>
<clus scale="   85.564">  2  4  1 -1</clus>
<clus scale="   85.564">  1  3  2 -1</clus>
</clustering>
</event>
<event>
 6    0  0.3584505E+002  0.9367667E+02  0.7546771E-02  0.1294185E+00
         21   -1    0    0  504  502  0.00000000000E+00  0.00000000000E+00  0.15454080630E+03  0.15454080630E+03  0.00000000000E+00 0. -1.
          2   -1    0    0  505    0 -0.00000000000E+00 -0.00000000000E+00 -0.97307944762E+03  0.97307944762E+03  0.00000000000E+00 0. -1.
         21    1    1    2  503  502  0.38498547810E+02  0.62952615500E+00  0.10014222046E+03  0.10728932288E+03  0.00000000000E+00 0. -1.
         21    1    1    2  504  501  0.42168063628E+02 -0.38927903730E+02 -0.21138059639E+03  0.21903260900E+03  0.00000000000E+00 0.  1.
         21    1    1    2  505  503 -0.87486597631E+02  0.89493740357E+02 -0.39118119327E+02  0.13112307801E+03  0.00000000000E+00 0. -1.
          2    1    1    2  501    0  0.68199861929E+01 -0.51195362782E+02 -0.66818214606E+03  0.67017524402E+03  0.00000000000E+00 0. -1.
<scales pt_clust_3="38.50369" pt_clust_4="93.67667" pt_clust_5="14000.00000" pt_clust_6="51.74050"></scales>
<clustering>
<clus scale="   38.504">  1  3  2 -1</clus>
<clus scale="   51.741">  2  6  1 -1</clus>
<clus scale="   93.677">  2  4  1 -1</clus>
<clus scale="   38.504">  1  3  2 -1</clus>
</clustering>
</event>
<event>
 6    0  0.3584505E+002  0.1070470E+03  0.7546771E-02  0.1266138E+00
          2   -1    0    0  504    0 -0.00000000000E+00  0.00000000000E+00  0.32082234775E+03  0.32082234775E+03  0.00000000000E+00 0. -1.
         21   -1    0    0  503  502  0.00000000000E+00 -0.00000000000E+00 -0.72670527697E+03  0.72670527697E+03  0.00000000000E+00 0. -1.
         21    1    1    2  503  505  0.12735627964E+02  0.97179747882E+02 -0.48148243657E+03  0.49135673023E+03  0.00000000000E+00 0. -1.
         21    1    1    2  504  502  0.31011129141E+02  0.24353370213E+01  0.21567165581E+01  0.31181283221E+02  0.00000000000E+00 0. -1.
         21    1    1    2  505  501 -0.80865047746E+02 -0.17039369851E+03 -0.17910383302E+03  0.26009873402E+03  0.00000000000E+00 0. -1.
          2    1    1    2  501    0  0.37118290641E+02  0.70778613603E+02  0.25254662382E+03  0.26489087724E+03  0.00000000000E+00 0. -1.
<scales pt_clust_3="107.04698" pt_clust_4="31.10661" pt_clust_5="14000.00000" pt_clust_6="96.63855"></scales>
<clustering>
<clus scale="   31.107">  1  4  2 -1</clus>
<clus scale="   96.639">  1  6  2 -1</clus>
<clus scale="  107.047">  2  3  1 -1</clus>
<clus scale="  107.047">  2  3  1 -1</clus>
</clustering>
</event>
<event>
 6    0  0.3584505E+002  0.1422627E+03  0.7546771E-02  0.1210316E+00
          2   -1    0    0  503    0 -0.00000000000E+00  0.00000000000E+00  0.95072997990E+02  0.95072997990E+02  0.00000000000E+00 0. -1.
         21   -1    0    0  505  502  0.00000000000E+00 -0.00000000000E+00 -0.84386654238E+03  0.84386654238E+03  0.00000000000E+00 0.  1.
         21    1    1    2  503  502 -0.12371854589E+03 -0.57571793678E+02 -0.52545130072E+02  0.14622510291E+03  0.00000000000E+00 0. -1.
         21    1    1    2  504  501  0.10970513235E+03  0.47793253090E+02 -0.25957119725E+03  0.28582620164E+03  0.00000000000E+00 0.  1.
         21    1    1    2  505  504  0.33621402734E+02  0.36180329191E+02 -0.46246606339E+03  0.46509598443E+03  0.00000000000E+00 0.  1.
          2    1    1    2  501    0 -0.19607989194E+02 -0.26401788602E+02  0.25788846323E+02  0.41792251390E+02  0.00000000000E+00 0. -1.
<scales pt_clust_3="142.26273" pt_clust_4="14000.00000" pt_clust_5="48.68910" pt_clust_6="32.88659"></scales>
<clustering>
<clus scale="   32.887">  1  6  2 -1</clus>
<clus scale="   48.689">  2  5  1 -1</clus>
<clus scale="  142.263">  1  3  2 -1</clus>
<clus scale="   48.689">  2  3  1 -1</clus>
</clustering>
</event>
<event>
 6    0  0.3584505E+002  0.1003234E+03  0.7546771E-02  0.1279617E+00
          2   -1    0    0  502    0 -0.00000000000E+00  0.00000000000E+00  0.29583797114E+04  0.29583797114E+04  0.00000000000E+00 0. -1.
         21   -1    0    0  504  502  0.00000000000E+00 -0.00000000000E+00 -0.14667113774E+03  0.14667113774E+03  0.00000000000E+00 0. -1.
         21    1    1    2  503  501 -0.96778003787E+02 -0.83177709086E+02  0.69283247989E+03  0.70448659213E+03  0.00000000000E+00 0.  1.
         21    1    1    2  504  505  0.18854223742E+01 -0.31616237684E+02 -0.12463989414E+03  0.12860110619E+03  0.00000000000E+00 0. -1.
         21    1    1    2  505  503  0.37143907894E+02  0.10815680383E+03  0.22301098048E+03  0.25062214891E+03  0.00000000000E+00 0.  1.
          2    1    1    2  501    0  0.57748673518E+02  0.66371429393E+01  0.20205050074E+04  0.20213410019E+04  0.00000000000E+00 0. -1.
<scales pt_clust_3="100.32336" pt_clust_4="31.67241" pt_clust_5="14000.00000" pt_clust_6="58.09636"></scales>
<clustering>
<clus scale="   31.672">  2  4  1 -1</clus>
<clus scale="   58.096">  1  6  2 -1</clus>
<clus scale="  100.323">  1  3  2 -1</clus>
<clus scale="   31.672">  2  3  1 -1</clus>
</clustering>
</event>
<event>
 6    0  0.3584505E+002  0.4305803E+03  0.7546771E-02  0.1033677E+00
         21   -1    0    0  503  502  0.00000000000E+00  0.00000000000E+00  0.66245296447E+03  0.66245296447E+03  0.00000000000E+00 0. -1.
          2   -1    0    0  504    0 -0.00000000000E+00 -0.00000000000E+00 -0.30500765035E+04  0.30500765035E+04  0.00000000000E+00 0.  1.
         21    1    1    2  503  505  0.35350099367E+03  0.28547600893E+03 -0.17941586358E+02  0.45473223410E+03  0.00000000000E+00 0. -1.
         21    1    1    2  504  502 -0.20581062049E+02 -0.10601375201E+03  0.27957707883E+03  0.29970959067E+03  0.00000000000E+00 0. -1.
         21    1    1    2  505  501 -0.37833521681E+03 -0.22615676802E+03 -0.16143333336E+03  0.46940935347E+03  0.00000000000E+00 0. -1.
          2    1    1    2  501    0  0.45415285190E+02  0.46694511095E+02 -0.24878256982E+04  0.24886782898E+04  0.00000000000E+00 0.  1.
<scales pt_clust_3="430.58030" pt_clust_4="107.01857" pt_clust_5="14000.00000" pt_clust_6="65.13774"></scales>
<clustering>
<clus scale="   65.138">  2  6  1 -1</clus>
<clus scale="  107.019">  1  4  2 -1</clus>
<clus scale="  430.580">  1  3  2 -1</clus>
<clus scale="  107.019">  1  3  2 -1</clus>
</clustering>
</event>
<event>
 6    0  0.3584505E+002  0.1635424E+03  0.7546771E-02  0.1184754E+00
         21   -1    0    0  503  502  0.00000000000E+00  0.00000000000E+00  0.91686932020E+03  0.91686932020E+03  0.00000000000E+00 0.  1.
         -1   -1    0    0    0  501 -0.00000000000E+00 -0.00000000000E+00 -0.26477351967E+03  0.26477351967E+03  0.00000000000E+00 0. -1.
         21    1    1    2  503  501  0.75470483116E+01  0.79436333559E+02  0.36617071494E+02  0.87794640795E+02  0.00000000000E+00 0.  1.
         21    1    1    2  504  502 -0.81425721881E+02  0.94593422369E+01  0.33041110532E+03  0.34042785705E+03  0.00000000000E+00 0. -1.
         21    1    1    2  505  504 -0.54833992532E+02 -0.12067493842E+03  0.49095864759E+03  0.50853672546E+03  0.00000000000E+00 0.  1.
         -1    1    1    2    0  505  0.12871266610E+03  0.31779262622E+02 -0.20589102387E+03  0.24488361656E+03  0.00000000000E+00 0. -1.
<scales pt_clust_3="79.79404" pt_clust_4="82.02531" pt_clust_5="163.54239" pt_clust_6="14000.00000"></scales>
<clustering>
<clus scale="   79.794">  2  3  1 -1</clus>
<clus scale="   82.025">  1  4  2 -1</clus>
<clus scale="  163.542">  1  5  2 -1</clus>
<clus scale="   82.025">  1  3  2 -1</clus>
</clustering>
</event>
<event>
 6    0  0.3584505E+002  0.1147945E+03  0.7546771E-02  0.1251940E+00
          2   -1    0    0  503    0 -0.00000000000E+00  0.00000000000E+00  0.55232270523E+03  0.55232270523E+03  0.00000000000E+00 0.  1.
         21   -1    0    0  504  502  0.00000000000E+00 -0.00000000000E+00 -0.15922464672E+03  0.15922464672E+03  0.00000000000E+00 0.  1.
         21    1    1    2  503  502 -0.20783902043E+02  0.24554300357E+02  0.61697412277E+02  0.69580564326E+02  0.00000000000E+00 0.  1.
         21    1    1    2  504  505 -0.42537968866E+02  0.87939413361E+02 -0.41914609712E+02  0.10629982937E+03  0.00000000000E+00 0.  1.
         21    1    1    2  505  501  0.10600941364E+03 -0.12208213476E+03  0.19126848185E+01  0.16169632578E+03  0.00000000000E+00 0.  1.
          2    1    1    2  501    0 -0.42687542728E+02  0.95884210371E+01  0.37140257112E+03  0.37397063248E+03  0.00000000000E+00 0.  1.
<scales pt_clust_3="32.16962" pt_clust_4="114.79452" pt_clust_5="14000.00000" pt_clust_6="65.11835"></scales>
<clustering>
<clus scale="   32.170">  1  3  2 -1</clus>
<clus scale="   65.118">  1  6  2 -1</clus>
<clus scale="  114.795">  2  4  1 -1</clus>
<clus scale="  114.795">  2  3  1 -1</clus>
</clustering>
</event>
<event>
 6    0  0.3584505E+002  0.1090027E+03  0.7546771E-02  0.1262428E+00
          2   -1    0    0  503    0 -0.00000000000E+00  0.00000000000E+00  0.33511999270E+04  0.33511999270E+04  0.00000000000E+00 0. -1.
         21   -1    0    0  505  502  0.00000000000E+00 -0.00000000000E+00 -0.66504172135E+02  0.66504172135E+02  0.00000000000E+00 0.  1.
         21    1    1    2  503  504 -0.36430903675E+02  0.69991115867E+02  0.28447423860E+03  0.29521442965E+03  0.00000000000E+00 0. -1.
         21    1    1    2  504  502  0.10909308722E+03 -0.12121707591E+03  0.92523891076E+02  0.18749813756E+03  0.00000000000E+00 0.  1.
         21    1    1    2  505  501 -0.18056055102E+02  0.49879990092E+02  0.39164898359E+02  0.65938788287E+02  0.00000000000E+00 0. -1.
          2    1    1    2  501    0 -0.54606128439E+02  0.13459699463E+01  0.28685327269E+04  0.28690527437E+04  0.00000000000E+00 0. -1.
<scales pt_clust_3="109.00272" pt_clust_4="14000.00000" pt_clust_5="53.04747" pt_clust_6="54.71762"></scales>
<clustering>
<clus scale="   53.047">  2  5  1 -1</clus>
<clus scale="   54.718">  1  6  2 -1</clus>
<clus scale="  109.003">  1  3  2 -1</clus>
<clus scale="   53.047">  2  3  1 -1</clus>
</clustering>
</event>
<event>
 6    0  0.3584505E+002  0.1534729E+03  0.7546771E-02  0.1196269E+00
         21   -1    0    0  503  502  0.00000000000E+00  0.00000000000E+00  0.29585450710E+04  0.29585450710E+04  0.00000000000E+00 0.  1.
         -2   -1    0    0    0  501 -0.00000000000E+00 -0.00000000000E+00 -0.13040054633E+03  0.13040054633E+03  0.00000000000E+00 0.  1.
         21    1    1    2  503  501  0.27233525393E+02  0.50135003468E+02  0.17393977924E+03  0.18305799704E+03  0.00000000000E+00 0.  1.
         21    1    1    2  504  502 -0.13994277243E+03 -0.81529063859E+02  0.26768611901E+04  0.26817562900E+04  0.00000000000E+00 0.  1.
         21    1    1    2  505  504  0.88254547772E+02  0.13347547384E+02  0.78278151475E+02  0.11872022246E+03  0.00000000000E+00 0.  1.
         -2    1    1    2    0  505  0.24454699263E+02  0.18046513007E+02 -0.10093459617E+03  0.10541110782E+03  0.00000000000E+00 0.  1.
<scales pt_clust_3="61.70175" pt_clust_4="153.47293" pt_clust_5="14000.00000" pt_clust_6="30.39258"></scales>
<clustering>
<clus scale="   30.393">  2  6  1 -1</clus>
<clus scale="   61.702">  2  3  1 -1</clus>
<clus scale="  153.473">  1  4  2 -1</clus>
<clus scale="  153.473">  1  3  2 -1</clus>
</clustering>
</event>
<event>
 6    0  0.3584505E+002  0.1228371E+03  0.7546771E-02  0.1238489E+00
         21   -1    0    0  505  502  0.00000000000E+00  0.00000000000E+00  0.13328029497E+04  0.13328029497E+04  0.00000000000E+00 0. -1.
          1   -1    0    0  503    0 -0.00000000000E+00 -0.00000000000E+00 -0.13122402311E+03  0.13122402311E+03  0.00000000000E+00 0.  1.
         21    1    1    2  503  504  0.71071590869E+00 -0.14687395946E+03  0.52747137419E+03  0.54753859742E+03  0.00000000000E+00 0. -1.
         21    1    1    2  504  502 -0.26016816510E+02  0.18985124289E+02  0.74244505540E+03  0.74314330379E+03  0.00000000000E+00 0. -1.
         21    1    1    2  505  501  0.20156364511E+02  0.80438452497E+02  0.80045190980E+01  0.83310839610E+02  0.00000000000E+00 0.  1.
          1    1    1    2  501    0  0.51497360909E+01  0.47450382671E+02 -0.76342022071E+02  0.90034231997E+02  0.00000000000E+00 0.  1.
<scales pt_clust_3="14000.00000" pt_clust_4="32.20729" pt_clust_5="122.83712" pt_clust_6="47.91654"></scales>
<clustering>
<clus scale="   32.207">  1  4  2 -1</clus>
<clus scale="   47.917">  2  6  1 -1</clus>
<clus scale="  122.837">  2  5  1 -1</clus>
<clus scale="   32.207">  1  3  2 -1</clus>
</clustering>
</event>
<event>
 6    0  0.3584505E+002  0.1048360E+03  0.7546771E-02  0.1270443E+00
         21   -1    0    0  504  502  0.00000000000E+00  0.00000000000E+00  0.26862977576E+03  0.26862977576E+03  0.00000000000E+00 0. -1.
          2   -1    0    0  503    0 -0.00000000000E+00 -0.00000000000E+00 -0.24657877131E+04  0.24657877131E+04  0.00000000000E+00 0.  1.
         21    1    1    2  503  505 -0.65919227108E+02  0.82835885364E+02 -0.16324394376E+03  0.19456544807E+03  0.00000000000E+00 0. -1.
         21    1    1    2  504  501  0.30174592370E+02 -0.41760592750E+02  0.61822252697E+02  0.80476357150E+02  0.00000000000E+00 0. -1.
         21    1    1    2  505  502  0.32600717646E+02  0.65198448142E+02  0.17321832911E+03  0.18793146083E+03  0.00000000000E+00 0. -1.
          2    1    1    2  501    0  0.31439170923E+01 -0.10627374076E+03 -0.22689545753E+04  0.22714442228E+04  0.00000000000E+00 0.  1.
<scales pt_clust_3="14000.00000" pt_clust_4="51.52139" pt_clust_5="65.97568" pt_clust_6="104.83598"></scales>
<clustering>
<clus scale="   51.521">  1  4  2 -1</clus>
<clus scale="   65.976">  1  5  2 -1</clus>
<clus scale="  104.836">  2  6  1 -1</clus>
<clus scale="   51.521">  1  3  2 -1</clus>
</clustering>
</event>
<event>
 6    0  0.3584505E+002  0.6343319E+02  0.7546771E-02  0.1383964E+00
         21   -1    0    0  503  502  0.00000000000E+00  0.00000000000E+00  0.88050573415E+02  0.88050573415E+02  0.00000000000E+00 0. -1.
          1   -1    0    0  504    0 -0.00000000000E+00 -0.00000000000E+00 -0.87620712035E+03  0.87620712035E+03  0.00000000000E+00 0. -1.
         21    1    1    2  503  501 -0.19120331874E+02  0.78792257213E+02 -0.69052891943E+02  0.10649933696E+03  0.00000000000E+00 0. -1.
         21    1    1    2  504  505  0.61544848134E+02  0.41049877584E+01 -0.15439584394E+02  0.63584589505E+02  0.00000000000E+00 0. -1.
         21    1    1    2  505  502 -0.52340739077E+02 -0.47433560229E+02  0.16932036136E+02  0.72637383288E+02  0.00000000000E+00 0. -1.
          1    1    1    2  501    0  0.99162228184E+01 -0.35463684742E+02 -0.72059610673E+03  0.72153638401E+03  0.00000000000E+00 0. -1.
<scales pt_clust_3="60.26140" pt_clust_4="14000.00000" pt_clust_5="63.43319" pt_clust_6="36.82397"></scales>
<clustering>
<clus scale="   36.824">  2  6  1 -1</clus>
<clus scale="   60.261">  2  3  1 -1</clus>
<clus scale="   63.433">  1  5  2 -1</clus>
<clus scale="   63.433">  1  3  2 -1</clus>
</clustering>
</event>
<event>
 6    0  0.3584505E+002  0.1120254E+03  0.7546771E-02  0.1256865E+00
          3   -1    0    0  503    0 -0.00000000000E+00  0.00000000000E+00  0.87864537372E+03  0.87864537372E+03  0.00000000000E+00 0. -1.
         21   -1    0    0  505  502  0.00000000000E+00 -0.00000000000E+00 -0.40365448518E+03  0.40365448518E+03  0.00000000000E+00 0.  1.
         21    1    1    2  503  502 -0.99784016537E+02  0.86459043688E+01 -0.27709694583E+03  0.29464269719E+03  0.00000000000E+00 0.  1.
         21    1    1    2  504  501  0.40833431473E+02 -0.75408119972E+02 -0.44370951040E+02  0.96553275345E+02  0.00000000000E+00 0.  1.
         21    1    1    2  505  504 -0.51061108869E+02  0.44510580155E+02 -0.17080773028E+02  0.69858295083E+02  0.00000000000E+00 0.  1.
          3    1    1    2  501    0  0.11001169393E+03  0.22251635448E+02  0.81353955843E+03  0.82124559129E+03  0.00000000000E+00 0. -1.
<scales pt_clust_3="14000.00000" pt_clust_4="73.48710" pt_clust_5="67.73794" pt_clust_6="112.02536"></scales>
<clustering>
<clus scale="   67.738">  2  5  1 -1</clus>
<clus scale="   73.487">  2  4  1 -1</clus>
<clus scale="  112.025">  1  6  2 -1</clus>
<clus scale="   67.738">  2  3  1 -1</clus>
</clustering>
</event>
<event>
 6    0  0.3584505E+002  0.6949161E+02  0.7546771E-02  0.1361830E+00
         21   -1    0    0  504  502  0.00000000000E+00  0.00000000000E+00  0.97096585483E+02  0.97096585483E+02  0.00000000000E+00 0.  1.
          1   -1    0    0  505    0 -0.00000000000E+00 -0.00000000000E+00 -0.28262849260E+03  0.28262849260E+03  0.00000000000E+00 0. -1.
         21    1    1    2  503  502 -0.51872188813E+02  0.48049409857E+02  0.65779701280E+01  0.71012248598E+02  0.00000000000E+00 0.  1.
         21    1    1    2  504  501  0.36720691094E+02 -0.10853616947E+02  0.25505937651E+02  0.46008292847E+02  0.00000000000E+00 0.  1.
         21    1    1    2  505  503 -0.54019531155E+02  0.19742515264E+02 -0.81506901499E+02  0.99755960458E+02  0.00000000000E+00 0.  1.
          1    1    1    2  501    0  0.69171028874E+02 -0.56938308174E+02 -0.13610891340E+03  0.16294857618E+03  0.00000000000E+00 0. -1.
<scales pt_clust_3="50.16851" pt_clust_4="38.29112" pt_clust_5="14000.00000" pt_clust_6="69.49161"></scales>
<clustering>
<clus scale="   38.291">  1  4  2 -1</clus>
<clus scale="   50.169">  1  3  2 -1</clus>
<clus scale="   69.492">  1  6  2 -1</clus>
<clus scale="   38.291">  1  3  2 -1</clus>
</clustering>
</event>
<event>
 6    0  0.3584505E+002  0.1047815E+03  0.7546771E-02  0.1270551E+00
          2   -1    0    0  502    0 -0.00000000000E+00  0.00000000000E+00  0.41561364505E+04  0.41561364505E+04  0.00000000000E+00 0.  1.
         21   -1    0    0  503  502  0.00000000000E+00 -0.00000000000E+00 -0.26043770655E+02  0.26043770655E+02  0.00000000000E+00 0. -1.
         21    1    1    2  503  505 -0.42766622300E+02  0.85889866450E+01  0.17923024737E+02  0.47159193062E+02  0.00000000000E+00 0. -1.
         21    1    1    2  504  501  0.76685911644E+02  0.31988912345E+02  0.77502085608E+03  0.77946221648E+03  0.00000000000E+00 0.  1.
         21    1    1    2  505  504 -0.83386500472E+02 -0.50506833055E+02  0.25505125368E+03  0.27304833024E+03  0.00000000000E+00 0. -1.
          2    1    1    2  501    0  0.49467211127E+02  0.99289340653E+01  0.30820975453E+04  0.30825104813E+04  0.00000000000E+00 0.  1.
<scales pt_clust_3="43.62058" pt_clust_4="14000.00000" pt_clust_5="104.78150" pt_clust_6="49.72760"></scales>
<clustering>
<clus scale="   43.621">  2  3  1 -1</clus>
<clus scale="   49.728">  1  6  2 -1</clus>
<clus scale="  104.782">  2  5  1 -1</clus>
<clus scale="   43.621">  2  3  1 -1</clus>
</clustering>
</event>
<event>
 6    0  0.3584505E+002  0.1541450E+03  0.7546771E-02  0.1195470E+00
         21   -1    0    0  505  502  0.00000000000E+00  0.00000000000E+00  0.23810132580E+03  0.23810132580E+03  0.00000000000E+00 0.  1.
         -1   -1    0    0    0  501 -0.00000000000E+00 -0.00000000000E+00 -0.54122759060E+03  0.54122759060E+03  0.00000000000E+00 0.  1.
         21    1    1    2  503  501 -0.39849543712E+02 -0.19881788846E+02 -0.38145421222E+01  0.44697006537E+02  0.00000000000E+00 0. -1.
         21    1    1    2  504  502 -0.19657664688E+02 -0.15133706823E+03  0.15713746317E+03  0.21904683137E+03  0.00000000000E+00 0.  1.
         21    1    1    2  505  503  0.30244230198E+02  0.19752081671E+02 -0.25799018987E+01  0.36214832382E+02  0.00000000000E+00 0.  1.
         -1    1    1    2    0  504  0.29262978202E+02  0.15146677541E+03 -0.45386928395E+03  0.47937024611E+03  0.00000000000E+00 0.  1.
<scales pt_clust_3="41.22120" pt_clust_4="154.14504" pt_clust_5="36.12282" pt_clust_6="14000.00000"></scales>
<clustering>
<clus scale="   36.123">  1  5  2 -1</clus>
<clus scale="   41.221">  1  3  2 -1</clus>
<clus scale="  154.145">  1  4  2 -1</clus>
<clus scale="   36.123">  1  3  2 -1</clus>
</clustering>
</event>
<event>
 6    0  0.3584505E+002  0.8889227E+02  0.7546771E-02  0.1305557E+00
         -3   -1    0    0    0  501 -0.00000000000E+00  0.00000000000E+00  0.38145032555E+03  0.38145032555E+03  0.00000000000E+00 0. -1.
         21   -1    0    0  504  502  0.00000000000E+00 -0.00000000000E+00 -0.52926609243E+03  0.52926609243E+03  0.00000000000E+00 0. -1.
         21    1    1    2  503  505  0.25693998422E+02 -0.90218662545E+02 -0.49684362726E+02  0.10615142263E+03  0.00000000000E+00 0.  1.
         21    1    1    2  504  501 -0.11133830586E+02  0.12539955945E+03  0.68244475004E+02  0.14320027954E+03  0.00000000000E+00 0.  1.
         21    1    1    2  505  502  0.18023854471E+02  0.26806089344E+02 -0.40826580166E+03  0.40954168355E+03  0.00000000000E+00 0. -1.
         -3    1    1    2    0  503 -0.32584022308E+02 -0.61986986246E+02  0.24188992250E+03  0.25182303227E+03  0.00000000000E+00 0. -1.
<scales pt_clust_3="88.89227" pt_clust_4="14000.00000" pt_clust_5="32.30210" pt_clust_6="68.70434"></scales>
<clustering>
<clus scale="   32.302">  2  5  1 -1</clus>
<clus scale="   68.704">  1  6  2 -1</clus>
<clus scale="   88.892">  2  3  1 -1</clus>
<clus scale="   32.302">  2  3  1 -1</clus>
</clustering>
</event>
<event>
 6    0  0.3584505E+002  0.1192819E+03  0.7546771E-02  0.1244286E+00
         -4   -1    0    0    0  501 -0.00000000000E+00  0.00000000000E+00  0.16387210301E+03  0.16387210301E+03  0.00000000000E+00 0. -1.
         21   -1    0    0  503  502  0.00000000000E+00 -0.00000000000E+00 -0.27793365671E+04  0.27793365671E+04  0.00000000000E+00 0.  1.
         21    1    1    2  503  505 -0.50084970570E+02  0.20973125795E+02 -0.57095488674E+03  0.57353104447E+03  0.00000000000E+00 0.  1.
         21    1    1    2  504  502 -0.90328838051E+01 -0.12520460531E+03 -0.21146531706E+04  0.21183757500E+04  0.00000000000E+00 0.  1.
         21    1    1    2  505  501 -0.30460841970E+02  0.33504078358E+02 -0.61946944288E+02  0.76732066743E+02  0.00000000000E+00 0.  1.
         -4    1    1    2    0  504  0.89578696345E+02  0.70727401160E+02  0.13209053747E+03  0.17456980897E+03  0.00000000000E+00 0. -1.
<scales pt_clust_3="54.63699" pt_clust_4="119.28193" pt_clust_5="45.28119" pt_clust_6="14000.00000"></scales>
<clustering>
<clus scale="   45.281">  1  5  2 -1</clus>
<clus scale="   54.637">  2  3  1 -1</clus>
<clus scale="  119.282">  2  4  1 -1</clus>
<clus scale="   54.637">  2  3  1 -1</clus>
</clustering>
</event>
<event>
 6    0  0.3584505E+002  0.1087264E+03  0.7546771E-02  0.1262947E+00
         21   -1    0    0  501  502  0.00000000000E+00  0.00000000000E+00  0.32061745473E+03  0.32061745473E+03  0.00000000000E+00 0. -1.
          2   -1    0    0  505    0 -0.00000000000E+00 -0.00000000000E+00 -0.13291823587E+04  0.13291823587E+04  0.00000000000E+00 0. -1.
         21    1    1    2  503  504  0.93684908948E+02 -0.90788697650E+02 -0.42823070646E+03  0.44766168893E+03  0.00000000000E+00 0. -1.
         21    1    1    2  504  502 -0.10379412309E+03  0.31789980323E+02  0.29304273513E+03  0.31250258791E+03  0.00000000000E+00 0. -1.
         21    1    1    2  505  503 -0.14153263044E+02 -0.41727514983E+02 -0.99057908784E+02  0.10841572605E+03  0.00000000000E+00 0. -1.
          2    1    1    2  501    0  0.24262477184E+02  0.10072623231E+03 -0.77431902381E+03  0.78121981050E+03  0.00000000000E+00 0. -1.
<scales pt_clust_3="14000.00000" pt_clust_4="108.72641" pt_clust_5="44.06246" pt_clust_6="75.79851"></scales>
<clustering>
<clus scale="   44.062">  2  5  1 -1</clus>
<clus scale="   75.799">  2  6  1 -1</clus>
<clus scale="  108.726">  1  4  2 -1</clus>
<clus scale="  108.726">  1  3  2 -1</clus>
</clustering>
</event>
<event>
 6    0  0.3584505E+002  0.1044936E+03  0.7546771E-02  0.1271121E+00
         -4   -1    0    0    0  501 -0.00000000000E+00  0.00000000000E+00  0.44346363406E+03  0.44346363406E+03  0.00000000000E+00 0.  1.
         21   -1    0    0  503  502  0.00000000000E+00 -0.00000000000E+00 -0.39596179988E+03  0.39596179988E+03  0.00000000000E+00 0. -1.
         21    1    1    2  503  501  0.37719866330E+01 -0.43207499366E+02  0.87566435877E+01  0.44246973813E+02  0.00000000000E+00 0. -1.
         21    1    1    2  504  502 -0.62973476660E+02 -0.81728912917E+02 -0.30894270100E+03  0.32571592910E+03  0.00000000000E+00 0. -1.
         21    1    1    2  505  504  0.12394872202E+02  0.13456943221E+03  0.18003811672E+02  0.13633305607E+03  0.00000000000E+00 0. -1.
         -4    1    1    2    0  505  0.46806617824E+02 -0.96330199233E+01  0.32968407992E+03  0.33312947497E+03  0.00000000000E+00 0.  1.
<scales pt_clust_3="43.37183" pt_clust_4="14000.00000" pt_clust_5="104.49358" pt_clust_6="66.44016"></scales>
<clustering>
<clus scale="   43.372">  1  3  2 -1</clus>
<clus scale="   66.440">  1  6  2 -1</clus>
<clus scale="  104.494">  1  5  2 -1</clus>
<clus scale="  104.494">  2  3  1 -1</clus>
</clustering>
</event>
<event>
 6    0  0.3584505E+002  0.1162246E+03  0.7546771E-02  0.1249459E+00
          2   -1    0    0  504    0 -0.00000000000E+00  0.00000000000E+00  0.72249418954E+03  0.72249418954E+03  0.00000000000E+00 0.  1.
         21   -1    0    0  503  502  0.00000000000E+00 -0.00000000000E+00 -0.39080785829E+03  0.39080785829E+03  0.00000000000E+00 0. -1.
         21    1    1    2  503  501 -0.15177567633E+02 -0.79152744456E+02 -0.12386646775E+03  0.14777827089E+03  0.00000000000E+00 0. -1.
         21    1    1    2  504  505 -0.14158025447E+03  0.90296555959E+02  0.28262769922E+02  0.17028570298E+03  0.00000000000E+00 0. -1.
         21    1    1    2  505  502  0.49206780155E+02  0.22836843207E+02 -0.17461945650E+03  0.18285180669E+03  0.00000000000E+00 0. -1.
          2    1    1    2  501    0  0.10755104195E+03 -0.33980654710E+02  0.60190948558E+03  0.61238626728E+03  0.00000000000E+00 0.  1.
<scales pt_clust_3="66.56282" pt_clust_4="116.22458" pt_clust_5="54.24784" pt_clust_6="14000.00000"></scales>
<clustering>
<clus scale="   54.248">  2  5  1 -1</clus>
<clus scale="   66.563">  2  3  1 -1</clus>
<clus scale="  116.225">  2  4  1 -1</clus>
<clus scale="   54.248">  2  3  1 -1</clus>
</clustering>
</event>
<event>
 6    0  0.3584505E+002  0.1094866E+03  0.7546771E-02  0.1261524E+00
         21   -1    0    0  505  502  0.00000000000E+00  0.00000000000E+00  0.49314822148E+03  0.49314822148E+03  0.00000000000E+00 0. -1.
          1   -1    0    0  502    0 -0.00000000000E+00 -0.00000000000E+00 -0.11844325402E+04  0.11844325402E+04  0.00000000000E+00 0. -1.
         21    1    1    2  503  501  0.18266809628E+03 -0.10776713894E+02 -0.48019744383E+03  0.51388068268E+03  0.00000000000E+00 0. -1.
         21    1    1    2  504  503 -0.56623960543E+02  0.44816298327E+02 -0.74207148117E+01  0.72593667160E+02  0.00000000000E+00 0. -1.
         21    1    1    2  505  504 -0.32579370529E+02 -0.47983426053E+02  0.43835127368E+03  0.44217153198E+03  0.00000000000E+00 0. -1.
          1    1    1    2  501    0 -0.93464765212E+02  0.13943841619E+02 -0.64201743373E+03  0.64893487984E+03  0.00000000000E+00 0. -1.
<scales pt_clust_3="109.48664" pt_clust_4="78.19951" pt_clust_5="57.99849" pt_clust_6="14000.00000"></scales>
<clustering>
<clus scale="   57.998">  1  5  2 -1</clus>
<clus scale="   78.200">  1  4  2 -1</clus>
<clus scale="  109.487">  1  3  2 -1</clus>
<clus scale="   57.998">  1  3  2 -1</clus>
</clustering>
</event>
<event>
 6    0  0.3584505E+002  0.1198158E+03  0.7546771E-02  0.1243401E+00
         21   -1    0    0  505  502  0.00000000000E+00  0.00000000000E+00  0.60634206369E+02  0.60634206369E+02  0.00000000000E+00 0.  1.
          2   -1    0    0  503    0 -0.00000000000E+00 -0.00000000000E+00 -0.49770641155E+03  0.49770641155E+03  0.00000000000E+00 0.  1.
         21    1    1    2  503  502 -0.96759228615E+01  0.51644315366E+02 -0.18013834382E+03  0.18764482862E+03  0.00000000000E+00 0.  1.
         21    1    1    2  504  501 -0.40558212670E+02  0.68332285629E+01 -0.76445725208E+02  0.86807894400E+02  0.00000000000E+00 0. -1.
         21    1    1    2  505  504  0.10763660342E+03  0.21727622179E+01 -0.29962928651E+02  0.11175033058E+03  0.00000000000E+00 0.  1.
          2    1    1    2  501    0 -0.57402467892E+02 -0.60650306147E+02 -0.15052520750E+03  0.17213756432E+03  0.00000000000E+00 0.  1.
<scales pt_clust_3="52.54292" pt_clust_4="38.72261" pt_clust_5="106.35537" pt_clust_6="38.72261"></scales>
<clustering>
<clus scale="   38.723">  4  6 -1 -1</clus>
<clus scale="   52.543">  2  3  1 -1</clus>
<clus scale="  106.355">  1  5  2 -1</clus>
<clus scale="  106.355">  1  3  2 -1</clus>
</clustering>
</event>
<event>
 6    0  0.3584505E+002  0.1039506E+03  0.7546771E-02  0.1272201E+00
         21   -1    0    0  504  502  0.00000000000E+00  0.00000000000E+00  0.24413033129E+03  0.24413033129E+03  0.00000000000E+00 0. -1.
         -1   -1    0    0    0  501 -0.00000000000E+00 -0.00000000000E+00 -0.23330254690E+03  0.23330254690E+03  0.00000000000E+00 0.  1.
         21    1    1    2  503  502  0.40750782116E+02  0.11386455043E+02  0.12058646961E+03  0.12779426534E+03  0.00000000000E+00 0. -1.
         21    1    1    2  504  501 -0.51242536725E+02  0.26418073660E+02 -0.37706933698E+02  0.68887771301E+02  0.00000000000E+00 0.  1.
         21    1    1    2  505  503  0.81040831066E+02 -0.98509457061E+01  0.77805283956E+02  0.11277552768E+03  0.00000000000E+00 0. -1.
         -1    1    1    2    0  505 -0.70549076458E+02 -0.27953582997E+02 -0.14985703547E+03  0.16797531387E+03  0.00000000000E+00 0.  1.
<scales pt_clust_3="42.31167" pt_clust_4="53.75220" pt_clust_5="103.95063" pt_clust_6="14000.00000"></scales>
<clustering>
<clus scale="   42.312">  1  3  2 -1</clus>
<clus scale="   53.752">  2  4  1 -1</clus>
<clus scale="  103.951">  1  5  2 -1</clus>
<clus scale="   42.312">  1  3  2 -1</clus>
</clustering>
</event>
<event>
 6    0  0.3584505E+002  0.1661722E+03  0.7546771E-02  0.1181899E+00
         21   -1    0    0  504  502  0.00000000000E+00  0.00000000000E+00  0.28081916723E+03  0.28081916723E+03  0.00000000000E+00 0.  1.
         -1   -1    0    0    0  501 -0.00000000000E+00 -0.00000000000E+00 -0.96894913749E+03  0.96894913749E+03  0.00000000000E+00 0.  1.
         21    1    1    2  503  505  0.20123037974E+03  0.16169020041E+03 -0.23380839941E+01  0.25815277120E+03  0.00000000000E+00 0.  1.
         21    1    1    2  504  501 -0.44069185731E+02 -0.19346517120E+02 -0.21985261738E+02  0.52912499368E+02  0.00000000000E+00 0.  1.
         21    1    1    2  505  502 -0.42620777312E+02 -0.30009768223E+02  0.12411368100E+03  0.13461546219E+03  0.00000000000E+00 0.  1.
         -1    1    1    2    0  503 -0.11454041670E+03 -0.11233391507E+03 -0.78792030552E+03  0.80408757197E+03  0.00000000000E+00 0.  1.
<scales pt_clust_3="166.17216" pt_clust_4="48.12879" pt_clust_5="75.26684" pt_clust_6="14000.00000"></scales>
<clustering>
<clus scale="   48.129">  1  4  2 -1</clus>
<clus scale="   75.267">  1  5  2 -1</clus>
<clus scale="  166.172">  1  3  2 -1</clus>
<clus scale="   48.129">  1  3  2 -1</clus>
</clustering>
</event>
<event>
 6    0  0.3584505E+002  0.1101014E+03  0.7546771E-02  0.1260382E+00
         21   -1    0    0  503  502  0.00000000000E+00  0.00000000000E+00  0.49241274145E+03  0.49241274145E+03  0.00000000000E+00 0. -1.
         -2   -1    0    0    0  501 -0.00000000000E+00 -0.00000000000E+00 -0.10165537597E+04  0.10165537597E+04  0.00000000000E+00 0. -1.
         21    1    1    2  503  501  0.13202739996E+03  0.46788253015E+02 -0.22694059886E+02  0.14189924353E+03  0.00000000000E+00 0.  1.
         21    1    1    2  504  505 -0.52297737986E+02 -0.93777910954E+01  0.14197902022E+03  0.15159498193E+03  0.00000000000E+00 0. -1.
         21    1    1    2  505  502 -0.35328350349E+02 -0.29063017437E+02  0.28364033585E+03  0.28730574558E+03  0.00000000000E+00 0. -1.
         -2    1    1    2    0  504 -0.44401311623E+02 -0.83474444833E+01 -0.92706631441E+03  0.92816653011E+03  0.00000000000E+00 0. -1.
<scales pt_clust_3="98.97647" pt_clust_4="44.75126" pt_clust_5="44.75126" pt_clust_6="45.17916"></scales>
<clustering>
<clus scale="   44.751">  4  5 -1 -1</clus>
<clus scale="   45.179">  2  6  1 -1</clus>
<clus scale="   98.976">  2  3  1 -1</clus>
<clus scale="  110.101">  1  3  2 -1</clus>
</clustering>
</event>
<event>
 6    0  0.3584505E+002  0.8289803E+02  0.7546771E-02  0.1321023E+00
         21   -1    0    0  504  502  0.00000000000E+00  0.00000000000E+00  0.14059628387E+04  0.14059628387E+04  0.00000000000E+00 0. -1.
         -2   -1    0    0    0  501 -0.00000000000E+00 -0.00000000000E+00 -0.10977515857E+03  0.10977515857E+03  0.00000000000E+00 0. -1.
         21    1    1    2  503  501  0.28284696332E+02 -0.55309378866E+02  0.43644799901E+02  0.75921143270E+02  0.00000000000E+00 0. -1.
         21    1    1    2  504  503  0.29196418133E+01  0.47385881511E+02  0.40294092816E+03  0.40572815734E+03  0.00000000000E+00 0. -1.
         21    1    1    2  505  502 -0.17345126600E+02 -0.83069905847E+02  0.91642574403E+03  0.92034646031E+03  0.00000000000E+00 0. -1.
         -2    1    1    2    0  505 -0.13859211545E+02  0.90993403201E+02 -0.66823791925E+02  0.11374223639E+03  0.00000000000E+00 0. -1.
<scales pt_clust_3="82.89803" pt_clust_4="47.47574" pt_clust_5="42.25004" pt_clust_6="14000.00000"></scales>
<clustering>
<clus scale="   47.476">  1  4  2 -1</clus>
<clus scale="   42.250">  1  5  2 -1</clus>
<clus scale="   82.898">  1  3  2 -1</clus>
<clus scale="   47.476">  1  3  2 -1</clus>
</clustering>
</event>
<event>
 6    0  0.3584505E+002  0.9374994E+02  0.7546771E-02  0.1294017E+00
          1   -1    0    0  504    0 -0.00000000000E+00  0.00000000000E+00  0.91790311280E+02  0.91790311280E+02  0.00000000000E+00 0. -1.
         21   -1    0    0  503  502  0.00000000000E+00 -0.00000000000E+00 -0.43032604812E+03  0.43032604812E+03  0.00000000000E+00 0. -1.
         21    1    1    2  503  505  0.27569352685E+02  0.28261034105E+02 -0.22333881700E+03  0.22680163676E+03  0.00000000000E+00 0. -1.
         21    1    1    2  504  502  0.31830692745E+01  0.36053116901E+02 -0.56205252226E+02  0.66850501464E+02  0.00000000000E+00 0. -1.
         21    1    1    2  505  501  0.65969153670E+02 -0.78321976121E+02 -0.78221245250E+02  0.12885970816E+03  0.00000000000E+00 0. -1.
          1    1    1    2  501    0 -0.96721575629E+02  0.14007825115E+02  0.19229577640E+02  0.99604513014E+02  0.00000000000E+00 0. -1.
<scales pt_clust_3="58.28702" pt_clust_4="36.19336" pt_clust_5="93.74994" pt_clust_6="14000.00000"></scales>
<clustering>
<clus scale="   36.193">  2  4  1 -1</clus>
<clus scale="   58.287">  2  3  1 -1</clus>
<clus scale="   93.750">  2  5  1 -1</clus>
<clus scale="   36.193">  2  3  1 -1</clus>
</clustering>
</event>
<event>
 6    0  0.3584505E+002  0.1164121E+03  0.7546771E-02  0.1249136E+00
          1   -1    0    0  504    0 -0.00000000000E+00  0.00000000000E+00  0.41462032097E+04  0.41462032097E+04  0.00000000000E+00 0.  1.
         21   -1    0    0  505  502  0.00000000000E+00 -0.00000000000E+00 -0.72164607066E+03  0.72164607066E+03  0.00000000000E+00 0.  1.
         21    1    1    2  503  502 -0.38238014747E+02 -0.63179312747E+02 -0.65857206727E+03  0.66269973526E+03  0.00000000000E+00 0.  1.
         21    1    1    2  504  503 -0.46405577832E+02 -0.68840472546E+01  0.19730577398E+04  0.19736153912E+04  0.00000000000E+00 0.  1.
         21    1    1    2  505  501  0.98933446203E+01 -0.49767279144E+02 -0.47405006054E+02  0.69439865641E+02  0.00000000000E+00 0. -1.
          1    1    1    2  501    0  0.74750247959E+02  0.11983063915E+03  0.21574764725E+04  0.21620942882E+04  0.00000000000E+00 0.  1.
<scales pt_clust_3="116.41206" pt_clust_4="46.91341" pt_clust_5="50.73003" pt_clust_6="14000.00000"></scales>
<clustering>
<clus scale="   46.913">  1  4  2 -1</clus>
<clus scale="   50.730">  2  5  1 -1</clus>
<clus scale="  116.412">  2  3  1 -1</clus>
<clus scale="   50.730">  2  3  1 -1</clus>
</clustering>
</event>
<event>
 6    0  0.3584505E+002  0.8664169E+02  0.7546771E-02  0.1311194E+00
          2   -1    0    0  503    0 -0.00000000000E+00  0.00000000000E+00  0.53208187680E+03  0.53208187680E+03  0.00000000000E+00 0. -1.
         21   -1    0    0  505  502  0.00000000000E+00 -0.00000000000E+00 -0.45886313923E+03  0.45886313923E+03  0.00000000000E+00 0.  1.
         21    1    1    2  503  504  0.10998724230E+03 -0.76737904176E+01 -0.14006538932E+03  0.17825373436E+03  0.00000000000E+00 0.  1.
         21    1    1    2  504  502 -0.22517616354E+02 -0.29090267686E+02 -0.27063320586E+03  0.27312198527E+03  0.00000000000E+00 0.  1.
         21    1    1    2  505  501 -0.37263434522E+02  0.60434438557E+02  0.22000875152E+02  0.74329828626E+02  0.00000000000E+00 0.  1.
          2    1    1    2  501    0 -0.50206191427E+02 -0.23670380454E+02  0.46191645760E+03  0.46523946777E+03  0.00000000000E+00 0. -1.
<scales pt_clust_3="86.64169" pt_clust_4="36.78705" pt_clust_5="14000.00000" pt_clust_6="55.79770"></scales>
<clustering>
<clus scale="   36.787">  2  4  1 -1</clus>
<clus scale="   55.798">  1  6  2 -1</clus>
<clus scale="   86.642">  2  3  1 -1</clus>
<clus scale="   36.787">  2  3  1 -1</clus>
</clustering>
</event>
<event>
 6    0  0.3584505E+002  0.1668699E+03  0.7546771E-02  0.1181152E+00
          2   -1    0    0  505    0 -0.00000000000E+00  0.00000000000E+00  0.69894229603E+03  0.69894229603E+03  0.00000000000E+00 0.  1.
         21   -1    0    0  503  502  0.00000000000E+00 -0.00000000000E+00 -0.97785880500E+03  0.97785880500E+03  0.00000000000E+00 0.  1.
         21    1    1    2  503  501  0.44262939103E+02  0.13194279522E+03 -0.56402690377E+03  0.58094273140E+03  0.00000000000E+00 0.  1.
         21    1    1    2  504  502  0.11829358534E+03 -0.11903398470E+02 -0.33514753573E+03  0.35561064936E+03  0.00000000000E+00 0. -1.
         21    1    1    2  505  504 -0.59650143392E+02 -0.10434561966E+03  0.93728961434E+01  0.12055703684E+03  0.00000000000E+00 0. -1.
          2    1    1    2  501    0 -0.10290638105E+03 -0.15693777091E+02  0.61088503439E+03  0.61969068344E+03  0.00000000000E+00 0.  1.
<scales pt_clust_3="166.86990" pt_clust_4="106.60732" pt_clust_5="14000.00000" pt_clust_6="104.09620"></scales>
<clustering>
<clus scale="  104.096">  1  6  2 -1</clus>
<clus scale="  106.607">  2  4  1 -1</clus>
<clus scale="  166.870">  2  3  1 -1</clus>
<clus scale="  106.607">  2  3  1 -1</clus>
</clustering>
</event>
<event>
 6    0  0.3584505E+002  0.1235403E+03  0.7546771E-02  0.1237368E+00
          1   -1    0    0  504    0 -0.00000000000E+00  0.00000000000E+00  0.72348600024E+03  0.72348600024E+03  0.00000000000E+00 0. -1.
         21   -1    0    0  501  502  0.00000000000E+00 -0.00000000000E+00 -0.40500988799E+03  0.40500988799E+03  0.00000000000E+00 0. -1.
         21    1    1    2  503  502 -0.41125005903E+02  0.29420998086E+02 -0.11329625107E+03  0.12406813348E+03  0.00000000000E+00 0. -1.
         21    1    1    2  504  505 -0.95835710116E+02 -0.78890038435E+02  0.68669168056E+03  0.69782059703E+03  0.00000000000E+00 0. -1.
         21    1    1    2  505  503  0.51780308962E+02 -0.17464817587E+02 -0.13141135851E+03  0.14232064290E+03  0.00000000000E+00 0.  1.
          1    1    1    2  501    0  0.85180407057E+02  0.66933857935E+02 -0.12350795872E+03  0.16428651482E+03  0.00000000000E+00 0. -1.
<scales pt_clust_3="50.56542" pt_clust_4="123.54031" pt_clust_5="32.30195" pt_clust_6="14000.00000"></scales>
<clustering>
<clus scale="   50.565">  2  3  1 -1</clus>
<clus scale="   32.302">  2  5  1 -1</clus>
<clus scale="  123.540">  1  4  2 -1</clus>
<clus scale="   50.565">  2  3  1 -1</clus>
</clustering>
</event>
<event>
 6    0  0.3584505E+002  0.1660137E+03  0.7546771E-02  0.1182070E+00
          2   -1    0    0  502    0 -0.00000000000E+00  0.00000000000E+00  0.19614678903E+04  0.19614678903E+04  0.00000000000E+00 0.  1.
         21   -1    0    0  503  502  0.00000000000E+00 -0.00000000000E+00 -0.10741203303E+04  0.10741203303E+04  0.00000000000E+00 0.  1.
         21    1    1    2  503  504 -0.46032396805E+02 -0.86843894214E+01 -0.88152731587E+03  0.88277109649E+03  0.00000000000E+00 0.  1.
         21    1    1    2  504  505  0.10476647780E+02 -0.80514465349E+02 -0.46111592614E+02  0.93373541501E+02  0.00000000000E+00 0.  1.
         21    1    1    2  505  501  0.37053763483E+02 -0.67351150723E+02 -0.10663560300E+03  0.13145459566E+03  0.00000000000E+00 0.  1.
          2    1    1    2  501    0 -0.14980144578E+01  0.15655000549E+03  0.19216220715E+04  0.19279889870E+04  0.00000000000E+00 0.  1.
<scales pt_clust_3="46.84443" pt_clust_4="51.95495" pt_clust_5="51.95495" pt_clust_6="156.42234"></scales>
<clustering>
<clus scale="   46.844">  2  3  1 -1</clus>
<clus scale="   51.955">  4  5 -1 -1</clus>
<clus scale="  156.422">  1  6  2 -1</clus>
<clus scale="   46.844">  2  3  1 -1</clus>
</clustering>
</event>
<event>
 6    0  0.3584505E+002  0.1746163E+03  0.7546771E-02  0.1173118E+00
         21   -1    0    0  505  502  0.00000000000E+00  0.00000000000E+00  0.41203580646E+03  0.41203580646E+03  0.00000000000E+00 0. -1.
          2   -1    0    0  504    0 -0.00000000000E+00 -0.00000000000E+00 -0.71201784609E+03  0.71201784609E+03  0.00000000000E+00 0.  1.
         21    1    1    2  503  501 -0.30650060316E+02 -0.32539793118E+02 -0.55388576600E+02  0.71176953793E+02  0.00000000000E+00 0.  1.
         21    1    1    2  504  502 -0.12351653232E+03  0.14869993954E+03  0.21411240004E+03  0.28846512029E+03  0.00000000000E+00 0.  1.
         21    1    1    2  505  503  0.12680037865E+03 -0.92589109761E+02  0.11181228792E+03  0.19275130869E+03  0.00000000000E+00 0. -1.
          2    1    1    2  501    0  0.27366213992E+02 -0.23571036666E+02 -0.57051815098E+03  0.57166026977E+03  0.00000000000E+00 0.  1.
<scales pt_clust_3="46.87044" pt_clust_4="174.61626" pt_clust_5="14000.00000" pt_clust_6="36.11791"></scales>
<clustering>
<clus scale="   36.118">  2  6  1 -1</clus>
<clus scale="   46.870">  2  3  1 -1</clus>
<clus scale="  174.616">  1  4  2 -1</clus>
<clus scale="  174.616">  1  3  2 -1</clus>
</clustering>
</event>
<event>
 6    0  0.3584505E+002  0.1231670E+03  0.7546771E-02  0.1237962E+00
          3   -1    0    0  502    0 -0.00000000000E+00  0.00000000000E+00  0.22017351855E+04  0.22017351855E+04  0.00000000000E+00 0.  1.
         21   -1    0    0  503  502  0.00000000000E+00 -0.00000000000E+00 -0.64642446757E+03  0.64642446757E+03  0.00000000000E+00 0.  1.
         21    1    1    2  503  504 -0.85828181006E+01  0.39856693108E+02 -0.28948666374E+03  0.29234354660E+03  0.00000000000E+00 0.  1.
         21    1    1    2  504  505 -0.55440125484E+02  0.56333033266E+02 -0.28478979842E+03  0.29555413622E+03  0.00000000000E+00 0.  1.
         21    1    1    2  505  501  0.94682008990E+02 -0.48181859210E+02 -0.21525511286E+02  0.10839521216E+03  0.00000000000E+00 0. -1.
          3    1    1    2  501    0 -0.30659065405E+02 -0.48007867164E+02  0.21511126914E+04  0.21518667581E+04  0.00000000000E+00 0.  1.
<scales pt_clust_3="35.75834" pt_clust_4="35.75834" pt_clust_5="112.65553" pt_clust_6="56.96256"></scales>
<clustering>
<clus scale="   35.758">  3  4 -1 -1</clus>
<clus scale="   56.963">  1  6  2 -1</clus>
<clus scale="  112.656">  1  5  2 -1</clus>
<clus scale="  123.167">  2  3  1 -1</clus>
</clustering>
</event>
<event>
 6    0  0.3584505E+002  0.9384653E+02  0.7546771E-02  0.1293795E+00
         21   -1    0    0  504  502  0.00000000000E+00  0.00000000000E+00  0.40573955180E+03  0.40573955180E+03  0.00000000000E+00 0.  1.
          3   -1    0    0  503    0 -0.00000000000E+00 -0.00000000000E+00 -0.10538192226E+03  0.10538192226E+03  0.00000000000E+00 0. -1.
         21    1    1    2  503  502 -0.30864740176E+02 -0.82692992921E+02  0.81084578180E+02  0.11985604734E+03  0.00000000000E+00 0.  1.
         21    1    1    2  504  505 -0.20138250996E+02  0.28238144225E+02  0.12587275798E+03  0.13056375127E+03  0.00000000000E+00 0.  1.
         21    1    1    2  505  501  0.47807606738E+01  0.99608808915E+02  0.14639430841E+03  0.17713289932E+03  0.00000000000E+00 0.  1.
          3    1    1    2  501    0  0.46222230499E+02 -0.45153960219E+02 -0.52994015039E+02  0.83568776141E+02  0.00000000000E+00 0. -1.
<scales pt_clust_3="93.84653" pt_clust_4="34.68345" pt_clust_5="14000.00000" pt_clust_6="62.73754"></scales>
<clustering>
<clus scale="   34.683">  1  4  2 -1</clus>
<clus scale="   62.738">  2  6  1 -1</clus>
<clus scale="   93.847">  1  3  2 -1</clus>
<clus scale="   34.683">  1  3  2 -1</clus>
</clustering>
</event>
<event>
 6    0  0.3584505E+002  0.1392833E+03  0.7546771E-02  0.1214297E+00
          2   -1    0    0  505    0 -0.00000000000E+00  0.00000000000E+00  0.24221619148E+04  0.24221619148E+04  0.00000000000E+00 0.  1.
         21   -1    0    0  504  502  0.00000000000E+00 -0.00000000000E+00 -0.17585839368E+03  0.17585839368E+03  0.00000000000E+00 0. -1.
         21    1    1    2  503  502  0.22877687137E+02 -0.26699629890E+02 -0.80416413827E+02  0.87767069096E+02  0.00000000000E+00 0. -1.
         21    1    1    2  504  501  0.10988707224E+03  0.64613317483E+02 -0.91895392127E+01  0.12780648291E+03  0.00000000000E+00 0. -1.
         21    1    1    2  505  503 -0.14300067448E+03 -0.75388894792E+02  0.25989452336E+03  0.30606836104E+03  0.00000000000E+00 0.  1.
          2    1    1    2  501    0  0.10235915096E+02  0.37475207199E+02  0.20760149508E+04  0.20763783955E+04  0.00000000000E+00 0.  1.
<scales pt_clust_3="35.16047" pt_clust_4="14000.00000" pt_clust_5="139.28329" pt_clust_6="38.80895"></scales>
<clustering>
<clus scale="   35.160">  2  3  1 -1</clus>
<clus scale="   38.809">  1  6  2 -1</clus>
<clus scale="  139.283">  1  5  2 -1</clus>
<clus scale="   35.160">  2  3  1 -1</clus>
</clustering>
</event>
<event>
 6    0  0.3584505E+002  0.7162265E+02  0.7546771E-02  0.1354660E+00
          1   -1    0    0  505    0 -0.00000000000E+00  0.00000000000E+00  0.10457741214E+03  0.10457741214E+03  0.00000000000E+00 0.  1.
         21   -1    0    0  504  502  0.00000000000E+00 -0.00000000000E+00 -0.50355102649E+03  0.50355102649E+03  0.00000000000E+00 0.  1.
         21    1    1    2  503  502  0.43738017500E+01 -0.80413570737E+02 -0.34118326412E+03  0.35055882847E+03  0.00000000000E+00 0.  1.
         21    1    1    2  504  501 -0.31131206553E+02  0.53377286346E+02 -0.11738880936E+03  0.13265903392E+03  0.00000000000E+00 0.  1.
         21    1    1    2  505  503  0.64307178116E+02  0.29525526310E+02  0.48097600619E+02  0.85560207143E+02  0.00000000000E+00 0.  1.
          1    1    1    2  501    0 -0.37549773313E+02 -0.24892419201E+01  0.11500858509E+02  0.39350369091E+02  0.00000000000E+00 0.  1.
<scales pt_clust_3="71.62265" pt_clust_4="14000.00000" pt_clust_5="42.60339" pt_clust_6="37.63219"></scales>
<clustering>
<clus scale="   37.632">  1  6  2 -1</clus>
<clus scale="   42.603">  1  5  2 -1</clus>
<clus scale="   71.623">  2  3  1 -1</clus>
<clus scale="   71.623">  2  3  1 -1</clus>
</clustering>
</event>
<event>
 6    0  0.3584505E+002  0.9426059E+02  0.7546771E-02  0.1292850E+00
          1   -1    0    0  503    0 -0.00000000000E+00  0.00000000000E+00  0.69674456196E+03  0.69674456196E+03  0.00000000000E+00 0. -1.
         21   -1    0    0  505  502  0.00000000000E+00 -0.00000000000E+00 -0.75606095400E+02  0.75606095400E+02  0.00000000000E+00 0.  1.
         21    1    1    2  503  502 -0.18083146980E+01  0.83323327410E+02  0.46361267229E+02  0.95369879898E+02  0.00000000000E+00 0. -1.
         21    1    1    2  504  501 -0.46591348927E+02 -0.37263607426E+02  0.76684707840E+02  0.97159017336E+02  0.00000000000E+00 0. -1.
         21    1    1    2  505  504 -0.45904085470E+02  0.46211877734E+00 -0.20787643856E+02  0.50393697559E+02  0.00000000000E+00 0.  1.
          1    1    1    2  501    0  0.94303749094E+02 -0.46521838762E+02  0.51888013535E+03  0.52942806257E+03  0.00000000000E+00 0. -1.
<scales pt_clust_3="94.26059" pt_clust_4="69.15744" pt_clust_5="45.90641" pt_clust_6="14000.00000"></scales>
<clustering>
<clus scale="   45.906">  2  5  1 -1</clus>
<clus scale="   69.157">  2  4  1 -1</clus>
<clus scale="   94.261">  2  3  1 -1</clus>
<clus scale="   45.906">  2  3  1 -1</clus>
</clustering>
</event>
<event>
 6    0  0.3584505E+002  0.1015924E+03  0.7546771E-02  0.1276983E+00
         21   -1    0    0  504  502  0.00000000000E+00  0.00000000000E+00  0.25828321934E+02  0.25828321934E+02  0.00000000000E+00 0. -1.
          2   -1    0    0  503    0 -0.00000000000E+00 -0.00000000000E+00 -0.15446309515E+04  0.15446309515E+04  0.00000000000E+00 0.  1.
         21    1    1    2  503  505 -0.68735558687E+02  0.59163251424E+02 -0.12203692127E+03  0.15204564282E+03  0.00000000000E+00 0. -1.
         21    1    1    2  504  501  0.28368448415E+02 -0.11993837957E+02 -0.72139819226E+02  0.78439623485E+02  0.00000000000E+00 0. -1.
         21    1    1    2  505  502  0.13108009787E+02  0.54747702393E+02 -0.14352249097E+03  0.15416820766E+03  0.00000000000E+00 0. -1.
          2    1    1    2  501    0  0.27259100485E+02 -0.10191711586E+03 -0.11811033981E+04  0.11858057994E+04  0.00000000000E+00 0.  1.
<scales pt_clust_3="101.59236" pt_clust_4="30.79969" pt_clust_5="55.56714" pt_clust_6="14000.00000"></scales>
<clustering>
<clus scale="   30.800">  1  4  2 -1</clus>
<clus scale="   55.567">  1  5  2 -1</clus>
<clus scale="  101.592">  1  3  2 -1</clus>
<clus scale="   30.800">  1  3  2 -1</clus>
</clustering>
</event>
<event>
 6    0  0.3584505E+002  0.1274645E+03  0.7546771E-02  0.1231267E+00
          1   -1    0    0  503    0 -0.00000000000E+00  0.00000000000E+00  0.12132017759E+04  0.12132017759E+04  0.00000000000E+00 0.  1.
         21   -1    0    0  505  502  0.00000000000E+00 -0.00000000000E+00 -0.10865809217E+04  0.10865809217E+04  0.00000000000E+00 0.  1.
         21    1    1    2  503  504 -0.30700620441E+02  0.10357035069E+03  0.59747359940E+01  0.10818984753E+03  0.00000000000E+00 0. -1.
         21    1    1    2  504  502  0.90201908666E+02 -0.67294450967E+01 -0.96305775714E+03  0.96729618698E+03  0.00000000000E+00 0.  1.
         21    1    1    2  505  501 -0.56854577410E+02 -0.17717781722E+03  0.57227205484E+02  0.19467761796E+03  0.00000000000E+00 0. -1.
          1    1    1    2  501    0 -0.26467108148E+01  0.80336911622E+02  0.10264766699E+04  0.10296190452E+04  0.00000000000E+00 0.  1.
<scales pt_clust_3="14000.00000" pt_clust_4="90.35859" pt_clust_5="127.46446" pt_clust_6="80.38050"></scales>
<clustering>
<clus scale="   80.380">  1  6  2 -1</clus>
<clus scale="   90.359">  2  4  1 -1</clus>
<clus scale="  127.464">  1  5  2 -1</clus>
<clus scale="   90.359">  2  3  1 -1</clus>
</clustering>
</event>
<event>
 6    0  0.3584505E+002  0.1063244E+03  0.7546771E-02  0.1267532E+00
         -1   -1    0    0    0  501 -0.00000000000E+00  0.00000000000E+00  0.11977967524E+04  0.11977967524E+04  0.00000000000E+00 0. -1.
         21   -1    0    0  503  502  0.00000000000E+00 -0.00000000000E+00 -0.33967730133E+03  0.33967730133E+03  0.00000000000E+00 0.  1.
         21    1    1    2  503  505 -0.10848940196E+03 -0.83367510470E+01 -0.30025286289E+03  0.31936066356E+03  0.00000000000E+00 0.  1.
         21    1    1    2  504  502  0.69427308995E+02 -0.56318342691E+02  0.14240963231E+03  0.16814401664E+03  0.00000000000E+00 0. -1.
         21    1    1    2  505  501 -0.32340362530E+01  0.64762931791E+02  0.47003794455E+02  0.80087783200E+02  0.00000000000E+00 0. -1.
         -1    1    1    2    0  504  0.42296129219E+02 -0.10783805285E+00  0.96895888720E+03  0.96988159033E+03  0.00000000000E+00 0. -1.
<scales pt_clust_3="106.32438" pt_clust_4="14000.00000" pt_clust_5="65.29315" pt_clust_6="42.29627"></scales>
<clustering>
<clus scale="   42.296">  1  6  2 -1</clus>
<clus scale="   65.293">  1  5  2 -1</clus>
<clus scale="  106.324">  2  3  1 -1</clus>
<clus scale="  106.324">  2  3  1 -1</clus>
</clustering>
</event>
<event>
 6    0  0.3584505E+002  0.1212912E+03  0.7546771E-02  0.1240982E+00
         21   -1    0    0  504  502  0.00000000000E+00  0.00000000000E+00  0.71334805281E+03  0.71334805281E+03  0.00000000000E+00 0. -1.
          1   -1    0    0  505    0 -0.00000000000E+00 -0.00000000000E+00 -0.19855383934E+04  0.19855383934E+04  0.00000000000E+00 0. -1.
         21    1    1    2  503  502  0.26970880958E+02 -0.18168111191E+02  0.62103866075E+03  0.62188948120E+03  0.00000000000E+00 0. -1.
         21    1    1    2  504  501 -0.34295835550E+01  0.10026191841E+03  0.52611850980E+02  0.11327939438E+03  0.00000000000E+00 0.  1.
         21    1    1    2  505  503  0.47805961940E+00  0.37361405017E+02 -0.42943419937E+02  0.56923109909E+02  0.00000000000E+00 0. -1.
          1    1    1    2  501    0 -0.24019357022E+02 -0.11945521224E+03 -0.19028974323E+04  0.19067944607E+04  0.00000000000E+00 0. -1.
<scales pt_clust_3="32.51936" pt_clust_4="14000.00000" pt_clust_5="36.06814" pt_clust_6="121.29120"></scales>
<clustering>
<clus scale="   32.519">  1  3  2 -1</clus>
<clus scale="   36.068">  1  5  2 -1</clus>
<clus scale="  121.291">  2  6  1 -1</clus>
<clus scale="   32.519">  1  3  2 -1</clus>
</clustering>
</event>
<event>
 6    0  0.3584505E+002  0.2175794E+03  0.7546771E-02  0.1135701E+00
          2   -1    0    0  505    0 -0.00000000000E+00  0.00000000000E+00  0.16169497477E+04  0.16169497477E+04  0.00000000000E+00 0.  1.
         21   -1    0    0  503  502  0.00000000000E+00 -0.00000000000E+00 -0.90531028829E+03  0.90531028829E+03  0.00000000000E+00 0. -1.
         21    1    1    2  503  504 -0.47261699183E+02 -0.71353120365E+01 -0.63408339390E+03  0.63588232505E+03  0.00000000000E+00 0. -1.
         21    1    1    2  504  501  0.56011061843E+02 -0.20959253053E+03 -0.20325902118E+03  0.29728857629E+03  0.00000000000E+00 0. -1.
         21    1    1    2  505  502  0.83621361232E+02 -0.23229932132E+02  0.24291421475E+03  0.25795247145E+03  0.00000000000E+00 0.  1.
          2    1    1    2  501    0 -0.92370723892E+02  0.23995777470E+03  0.13060676598E+04  0.13311366632E+04  0.00000000000E+00 0.  1.
<scales pt_clust_3="47.79729" pt_clust_4="217.57936" pt_clust_5="85.57626" pt_clust_6="14000.00000"></scales>
<clustering>
<clus scale="   47.797">  2  3  1 -1</clus>
<clus scale="   85.576">  1  5  2 -1</clus>
<clus scale="  217.579">  2  4  1 -1</clus>
<clus scale="   47.797">  2  3  1 -1</clus>
</clustering>
</event>
<event>
 6    0  0.3584505E+002  0.7782468E+02  0.7546771E-02  0.1335341E+00
          1   -1    0    0  503    0 -0.00000000000E+00  0.00000000000E+00  0.29903461827E+04  0.29903461827E+04  0.00000000000E+00 0. -1.
         21   -1    0    0  504  502  0.00000000000E+00 -0.00000000000E+00 -0.19500847679E+02  0.19500847679E+02  0.00000000000E+00 0.  1.
         21    1    1    2  503  505 -0.12541345537E+02 -0.10060024978E+03  0.28218792611E+03  0.29984616263E+03  0.00000000000E+00 0. -1.
         21    1    1    2  504  501 -0.21651940612E+02  0.45611475069E+02  0.15745947430E+03  0.16535627970E+03  0.00000000000E+00 0. -1.
         21    1    1    2  505  502  0.36113634598E+02 -0.21305798646E+02  0.65535116206E+02  0.77800919763E+02  0.00000000000E+00 0.  1.
          1    1    1    2  501    0 -0.19203484486E+01  0.76294573362E+02  0.24656628184E+04  0.24668436682E+04  0.00000000000E+00 0. -1.
<scales pt_clust_3="77.82468" pt_clust_4="40.82429" pt_clust_5="41.93008" pt_clust_6="14000.00000"></scales>
<clustering>
<clus scale="   41.930">  2  5  1 -1</clus>
<clus scale="   40.824">  2  4  1 -1</clus>
<clus scale="   77.825">  2  3  1 -1</clus>
<clus scale="   41.930">  2  3  1 -1</clus>
</clustering>
</event>
<event>
 6    0  0.3584505E+002  0.9173039E+02  0.7546771E-02  0.1298715E+00
          2   -1    0    0  503    0 -0.00000000000E+00  0.00000000000E+00  0.30669162334E+03  0.30669162334E+03  0.00000000000E+00 0. -1.
         21   -1    0    0  504  502  0.00000000000E+00 -0.00000000000E+00 -0.43330550119E+03  0.43330550119E+03  0.00000000000E+00 0.  1.
         21    1    1    2  503  505  0.76175892522E+02 -0.53768647037E+02  0.19501415401E+02  0.95258276324E+02  0.00000000000E+00 0. -1.
         21    1    1    2  504  501 -0.77667637678E+01 -0.86785024480E+02 -0.26914957494E+03  0.28290185009E+03  0.00000000000E+00 0.  1.
         21    1    1    2  505  502 -0.39081578232E+02  0.11388933635E+03 -0.86709877423E+02  0.14838043514E+03  0.00000000000E+00 0.  1.
          2    1    1    2  501    0 -0.29327550522E+02  0.26664335169E+02  0.20974415911E+03  0.21345656296E+03  0.00000000000E+00 0. -1.
<scales pt_clust_3="69.56654" pt_clust_4="14000.00000" pt_clust_5="91.73039" pt_clust_6="39.63700"></scales>
<clustering>
<clus scale="   39.637">  1  6  2 -1</clus>
<clus scale="   69.567">  1  3  2 -1</clus>
<clus scale="   91.730">  1  5  2 -1</clus>
<clus scale="   91.730">  2  3  1 -1</clus>
</clustering>
</event>
<event>
 6    0  0.3584505E+002  0.1640064E+03  0.7546771E-02  0.1184246E+00
          2   -1    0    0  505    0 -0.00000000000E+00  0.00000000000E+00  0.20199701174E+04  0.20199701174E+04  0.00000000000E+00 0. -1.
         21   -1    0    0  504  502  0.00000000000E+00 -0.00000000000E+00 -0.52851237335E+03  0.52851237335E+03  0.00000000000E+00 0.  1.
         21    1    1    2  503  502  0.19161616914E+02  0.17526101989E+03 -0.24603355214E+03  0.30268151816E+03  0.00000000000E+00 0.  1.
         21    1    1    2  504  501  0.73530419205E+02 -0.13093221830E+02 -0.18441441799E+03  0.19896440025E+03  0.00000000000E+00 0.  1.
         21    1    1    2  505  503 -0.92530269403E+02 -0.10184121702E+03  0.14370175428E+02  0.13834733890E+03  0.00000000000E+00 0.  1.
          2    1    1    2  501    0 -0.16176671575E+00 -0.60326581044E+02  0.19075355387E+04  0.19084892334E+04  0.00000000000E+00 0. -1.
<scales pt_clust_3="164.00636" pt_clust_4="75.46275" pt_clust_5="14000.00000" pt_clust_6="60.32680"></scales>
<clustering>
<clus scale="   60.327">  1  6  2 -1</clus>
<clus scale="   75.463">  2  4  1 -1</clus>
<clus scale="  164.006">  2  3  1 -1</clus>
<clus scale="   75.463">  2  3  1 -1</clus>
</clustering>
</event>
<event>
 6    0  0.3584505E+002  0.8935029E+02  0.7546771E-02  0.1304433E+00
         21   -1    0    0  505  502  0.00000000000E+00  0.00000000000E+00  0.49033097615E+03  0.49033097615E+03  0.00000000000E+00 0.  1.
          1   -1    0    0  504    0 -0.00000000000E+00 -0.00000000000E+00 -0.28972230444E+03  0.28972230444E+03  0.00000000000E+00 0. -1.
         21    1    1    2  503  502  0.42345435264E+02  0.11865734373E+02  0.23848417135E+03  0.24250491031E+03  0.00000000000E+00 0.  1.
         21    1    1    2  504  503  0.49348639408E+02 -0.89449633396E+02  0.14009972746E+03  0.17339105732E+03  0.00000000000E+00 0.  1.
         21    1    1    2  505  501 -0.21093977485E+02  0.74548420924E+02  0.71158922848E+02  0.10519512940E+03  0.00000000000E+00 0.  1.
          1    1    1    2  501    0 -0.70600097187E+02  0.30354780985E+01 -0.24913414994E+03  0.25896218356E+03  0.00000000000E+00 0. -1.
<scales pt_clust_3="43.97649" pt_clust_4="89.35029" pt_clust_5="14000.00000" pt_clust_6="69.84375"></scales>
<clustering>
<clus scale="   43.976">  1  3  2 -1</clus>
<clus scale="   69.844">  2  6  1 -1</clus>
<clus scale="   89.350">  2  4  1 -1</clus>
<clus scale="   43.976">  1  3  2 -1</clus>
</clustering>
</event>
<event>
 6    0  0.3584505E+002  0.1129436E+03  0.7546771E-02  0.1255214E+00
         21   -1    0    0  503  502  0.00000000000E+00  0.00000000000E+00  0.83961711484E+02  0.83961711484E+02  0.00000000000E+00 0. -1.
          1   -1    0    0  505    0 -0.00000000000E+00 -0.00000000000E+00 -0.12965303720E+04  0.12965303720E+04  0.00000000000E+00 0.  1.
         21    1    1    2  503  501  0.59265309342E+02  0.70656300544E+02 -0.35873115482E+02  0.98952362844E+02  0.00000000000E+00 0. -1.
         21    1    1    2  504  502 -0.18709119374E+02  0.57220011167E+02  0.23336583792E+02  0.64565911817E+02  0.00000000000E+00 0. -1.
         21    1    1    2  505  504 -0.29093910858E+02 -0.98433950051E+02 -0.31343467005E+03  0.32981356940E+03  0.00000000000E+00 0.  1.
          1    1    1    2  501    0 -0.11462279111E+02 -0.29442361659E+02 -0.88659745881E+03  0.88716023945E+03  0.00000000000E+00 0.  1.
<scales pt_clust_3="112.94359" pt_clust_4="58.98064" pt_clust_5="14000.00000" pt_clust_6="31.59488"></scales>
<clustering>
<clus scale="   31.595">  2  6  1 -1</clus>
<clus scale="   58.981">  1  4  2 -1</clus>
<clus scale="  112.944">  1  3  2 -1</clus>
<clus scale="   58.981">  1  3  2 -1</clus>
</clustering>
</event>
<event>
 6    0  0.3584505E+002  0.1038743E+03  0.7546771E-02  0.1272354E+00
         21   -1    0    0  503  502  0.00000000000E+00  0.00000000000E+00  0.91109077189E+03  0.91109077189E+03  0.00000000000E+00 0. -1.
         -3   -1    0    0    0  501 -0.00000000000E+00 -0.00000000000E+00 -0.43008600843E+03  0.43008600843E+03  0.00000000000E+00 0. -1.
         21    1    1    2  503  505 -0.98117082011E+02  0.35536377200E+02  0.70636118381E+03  0.71402795315E+03  0.00000000000E+00 0. -1.
         21    1    1    2  504  502  0.10625710764E+03 -0.30488668438E+01  0.18124126870E+03  0.21011488760E+03  0.00000000000E+00 0. -1.
         21    1    1    2  505  501  0.34900610094E+02  0.21476423149E+01 -0.11309661227E+03  0.11837866640E+03  0.00000000000E+00 0.  1.
         -3    1    1    2    0  504 -0.43040635724E+02 -0.34635152671E+02 -0.29350107677E+03  0.29865527316E+03  0.00000000000E+00 0. -1.
<scales pt_clust_3="103.87428" pt_clust_4="14000.00000" pt_clust_5="34.96663" pt_clust_6="34.16083"></scales>
<clustering>
<clus scale="   34.967">  2  5  1 -1</clus>
<clus scale="   34.161">  2  6  1 -1</clus>
<clus scale="  103.874">  1  3  2 -1</clus>
<clus scale="  103.874">  1  3  2 -1</clus>
</clustering>
</event>
<event>
 6    0  0.3584505E+002  0.1767585E+03  0.7546771E-02  0.1170978E+00
          2   -1    0    0  504    0 -0.00000000000E+00  0.00000000000E+00  0.34245475884E+04  0.34245475884E+04  0.00000000000E+00 0. -1.
         21   -1    0    0  503  502  0.00000000000E+00 -0.00000000000E+00 -0.59703636046E+03  0.59703636046E+03  0.00000000000E+00 0.  1.
         21    1    1    2  503  501  0.52810698773E+01 -0.96133188954E+02  0.52841634205E+03  0.53711573265E+03  0.00000000000E+00 0. -1.
         21    1    1    2  504  505  0.11942720913E+03  0.12966682621E+03  0.14375752721E+04  0.14483435390E+04  0.00000000000E+00 0. -1.
         21    1    1    2  505  502 -0.17387226261E+03  0.35976366978E+02 -0.57259133212E+03  0.59948869573E+03  0.00000000000E+00 0.  1.
          2    1    1    2  501    0  0.49163983606E+02 -0.69510004237E+02  0.14341109460E+04  0.14366359815E+04  0.00000000000E+00 0. -1.
<scales pt_clust_3="116.22382" pt_clust_4="14000.00000" pt_clust_5="176.75850" pt_clust_6="85.13952"></scales>
<clustering>
<clus scale="   85.140">  1  6  2 -1</clus>
<clus scale="  116.224">  1  3  2 -1</clus>
<clus scale="  176.759">  2  5  1 -1</clus>
<clus scale="  176.759">  2  3  1 -1</clus>
</clustering>
</event>
<event>
 6    0  0.3584505E+002  0.3152619E+03  0.7546771E-02  0.1077851E+00
         21   -1    0    0  505  502  0.00000000000E+00  0.00000000000E+00  0.10091774376E+03  0.10091774376E+03  0.00000000000E+00 0.  1.
          2   -1    0    0  503    0 -0.00000000000E+00 -0.00000000000E+00 -0.26589745210E+04  0.26589745210E+04  0.00000000000E+00 0.  1.
         21    1    1    2  503  502 -0.43977117482E+02  0.40247287228E+02 -0.90133269820E+02  0.10806404268E+03  0.00000000000E+00 0.  1.
         21    1    1    2  504  501  0.50835777696E+02 -0.29827010719E+03 -0.43450867449E+03  0.52947815945E+03  0.00000000000E+00 0.  1.
         21    1    1    2  505  504  0.49124215778E+02 -0.55616795513E+02 -0.11025939369E+02  0.75019916409E+02  0.00000000000E+00 0.  1.
          2    1    1    2  501    0 -0.55982875992E+02  0.31363961547E+03 -0.20223888935E+04  0.20473301462E+04  0.00000000000E+00 0.  1.
<scales pt_clust_3="59.61402" pt_clust_4="315.26192" pt_clust_5="53.62299" pt_clust_6="14000.00000"></scales>
<clustering>
<clus scale="   59.614">  1  3  2 -1</clus>
<clus scale="   53.623">  1  5  2 -1</clus>
<clus scale="  315.262">  1  4  2 -1</clus>
<clus scale="   59.614">  1  3  2 -1</clus>
</clustering>
</event>
<event>
 6    0  0.3584505E+002  0.8257178E+02  0.7546771E-02  0.1321908E+00
         21   -1    0    0  505  502  0.00000000000E+00  0.00000000000E+00  0.14316105250E+03  0.14316105250E+03  0.00000000000E+00 0.  1.
          1   -1    0    0  504    0 -0.00000000000E+00 -0.00000000000E+00 -0.32139806817E+03  0.32139806817E+03  0.00000000000E+00 0.  1.
         21    1    1    2  503  502 -0.42176496962E+02 -0.34299338673E+02  0.21527102550E+02  0.58469801382E+02  0.00000000000E+00 0.  1.
         21    1    1    2  504  503 -0.40349870448E+02  0.98541951883E+02  0.37182106741E+02  0.11278801970E+03  0.00000000000E+00 0.  1.
         21    1    1    2  505  501  0.29355236385E+02 -0.54785079222E+02 -0.13740224521E+02  0.63654760847E+02  0.00000000000E+00 0.  1.
          1    1    1    2  501    0  0.53171131024E+02 -0.94575339874E+01 -0.22320600044E+03  0.22964653875E+03  0.00000000000E+00 0.  1.
<scales pt_clust_3="48.16101" pt_clust_4="82.57178" pt_clust_5="14000.00000" pt_clust_6="54.00569"></scales>
<clustering>
<clus scale="   54.006">  2  6  1 -1</clus>
<clus scale="   48.161">  1  3  2 -1</clus>
<clus scale="   82.572">  1  4  2 -1</clus>
<clus scale="   48.161">  1  3  2 -1</clus>
</clustering>
</event>
<event>
 6    0  0.3584505E+002  0.1836461E+03  0.7546771E-02  0.1164320E+00
         21   -1    0    0  501  502  0.00000000000E+00  0.00000000000E+00  0.15937187277E+04  0.15937187277E+04  0.00000000000E+00 0. -1.
          1   -1    0    0  505    0 -0.00000000000E+00 -0.00000000000E+00 -0.82417325090E+03  0.82417325090E+03  0.00000000000E+00 0.  1.
         21    1    1    2  503  504 -0.11982446608E+03 -0.20386835307E+03  0.77970672122E+03  0.81477774832E+03  0.00000000000E+00 0.  1.
         21    1    1    2  504  502 -0.66662590273E+01  0.71236499952E+02  0.69428970949E+03  0.69796653117E+03  0.00000000000E+00 0. -1.
         21    1    1    2  505  503  0.12407613973E+03  0.96320604925E+02  0.38161423263E+02  0.16164418211E+03  0.00000000000E+00 0.  1.
          1    1    1    2  501    0  0.24145853727E+01  0.36311248192E+02 -0.74261237720E+03  0.74350351696E+03  0.00000000000E+00 0.  1.
<scales pt_clust_3="183.64610" pt_clust_4="72.36214" pt_clust_5="14000.00000" pt_clust_6="36.39144"></scales>
<clustering>
<clus scale="   36.391">  2  6  1 -1</clus>
<clus scale="   72.362">  1  4  2 -1</clus>
<clus scale="  183.646">  1  3  2 -1</clus>
<clus scale="   72.362">  1  3  2 -1</clus>
</clustering>
</event>
<event>
 6    0  0.3584505E+002  0.1466855E+03  0.7546771E-02  0.1204606E+00
         -2   -1    0    0    0  501 -0.00000000000E+00  0.00000000000E+00  0.13013294755E+03  0.13013294755E+03  0.00000000000E+00 0.  1.
         21   -1    0    0  501  502  0.00000000000E+00 -0.00000000000E+00 -0.53529196189E+03  0.53529196189E+03  0.00000000000E+00 0.  1.
         21    1    1    2  503  504 -0.27185411269E+02  0.13153061281E+03 -0.31410913994E+03  0.34161952592E+03  0.00000000000E+00 0.  1.
         21    1    1    2  504  505  0.28011468223E+02  0.39683394549E+02 -0.73384467126E+02  0.88003944061E+02  0.00000000000E+00 0.  1.
         21    1    1    2  505  502 -0.11218717790E+02 -0.47480722704E+02 -0.82408137686E+02  0.95767321223E+02  0.00000000000E+00 0. -1.
         -2    1    1    2    0  503  0.10392660837E+02 -0.12373328466E+03  0.64742730409E+02  0.14003411824E+03  0.00000000000E+00 0.  1.
<scales pt_clust_3="42.98937" pt_clust_4="42.98937" pt_clust_5="48.78810" pt_clust_6="128.08796"></scales>
<clustering>
<clus scale="   42.989">  3  4 -1 -1</clus>
<clus scale="   48.788">  2  5  1 -1</clus>
<clus scale="  128.088">  1  6  2 -1</clus>
<clus scale="   48.788">  2  3  1 -1</clus>
</clustering>
</event>
<event>
 6    0  0.3584505E+002  0.1288503E+03  0.7546771E-02  0.1229172E+00
         21   -1    0    0  501  502  0.00000000000E+00  0.00000000000E+00  0.50783644163E+02  0.50783644163E+02  0.00000000000E+00 0. -1.
          2   -1    0    0  503    0 -0.00000000000E+00 -0.00000000000E+00 -0.95069818685E+03  0.95069818685E+03  0.00000000000E+00 0. -1.
         21    1    1    2  503  504 -0.73234397450E+02  0.23478727121E+02 -0.41493465479E+03  0.42200153476E+03  0.00000000000E+00 0. -1.
         21    1    1    2  504  505  0.76883518822E+02  0.27152869015E+02 -0.19075403602E+02  0.83739027847E+02  0.00000000000E+00 0. -1.
         21    1    1    2  505  502  0.48220037416E+02  0.19073713395E+02 -0.54366078196E+02  0.75130879201E+02  0.00000000000E+00 0. -1.
          2    1    1    2  501    0 -0.51869158788E+02 -0.69705309531E+02 -0.41153840610E+03  0.42061038921E+03  0.00000000000E+00 0. -1.
<scales pt_clust_3="76.90597" pt_clust_4="36.17946" pt_clust_5="36.17946" pt_clust_6="120.59935"></scales>
<clustering>
<clus scale="   36.179">  4  5 -1 -1</clus>
<clus scale="   76.906">  2  3  1 -1</clus>
<clus scale="  120.599">  2  6  1 -1</clus>
<clus scale="  128.850">  1  3  2 -1</clus>
</clustering>
</event>
<event>
 6    0  0.3584505E+002  0.8282943E+02  0.7546771E-02  0.1321208E+00
          2   -1    0    0  505    0 -0.00000000000E+00  0.00000000000E+00  0.10202475322E+04  0.10202475322E+04  0.00000000000E+00 0.  1.
         21   -1    0    0  504  502  0.00000000000E+00 -0.00000000000E+00 -0.40243181491E+02  0.40243181491E+02  0.00000000000E+00 0. -1.
         21    1    1    2  503  502 -0.37645738057E+02 -0.36830435110E+01  0.15954249090E+02  0.41052459943E+02  0.00000000000E+00 0. -1.
         21    1    1    2  504  501 -0.50858972117E+02 -0.71401296037E+02  0.16495814411E+03  0.18680462904E+03  0.00000000000E+00 0. -1.
         21    1    1    2  505  503  0.10076841967E+03  0.16804186242E+02  0.15403737312E+03  0.18483551444E+03  0.00000000000E+00 0. -1.
          2    1    1    2  501    0 -0.12263709499E+02  0.58280153306E+02  0.64505458435E+03  0.64779811024E+03  0.00000000000E+00 0.  1.
<scales pt_clust_3="37.82547" pt_clust_4="14000.00000" pt_clust_5="82.82943" pt_clust_6="59.79095"></scales>
<clustering>
<clus scale="   37.825">  2  3  1 -1</clus>
<clus scale="   59.791">  1  6  2 -1</clus>
<clus scale="   82.829">  2  5  1 -1</clus>
<clus scale="   37.825">  2  3  1 -1</clus>
</clustering>
</event>
<event>
 6    0  0.3584505E+002  0.9991547E+02  0.7546771E-02  0.1280474E+00
          2   -1    0    0  504    0 -0.00000000000E+00  0.00000000000E+00  0.99007448714E+03  0.99007448714E+03  0.00000000000E+00 0. -1.
         21   -1    0    0  505  502  0.00000000000E+00 -0.00000000000E+00 -0.34324237049E+03  0.34324237049E+03  0.00000000000E+00 0. -1.
         21    1    1    2  503  502 -0.32908430110E+02  0.29944465406E+01  0.11833787037E+02  0.35099430166E+02  0.00000000000E+00 0. -1.
         21    1    1    2  504  503 -0.12001168462E+03 -0.21092068133E+02  0.39374947417E+03  0.41217269220E+03  0.00000000000E+00 0. -1.
         21    1    1    2  505  501  0.61249916353E+02  0.26054575672E+02 -0.31514305320E+03  0.32209554041E+03  0.00000000000E+00 0. -1.
          2    1    1    2  501    0  0.91670198373E+02 -0.79569540803E+01  0.55639190864E+03  0.56394919486E+03  0.00000000000E+00 0. -1.
<scales pt_clust_3="33.04439" pt_clust_4="14000.00000" pt_clust_5="41.41278" pt_clust_6="99.91547"></scales>
<clustering>
<clus scale="   33.044">  2  3  1 -1</clus>
<clus scale="   41.413">  2  5  1 -1</clus>
<clus scale="   99.915">  1  6  2 -1</clus>
<clus scale="   33.044">  2  3  1 -1</clus>
</clustering>
</event>
<event>
 6    0  0.3584505E+002  0.9092321E+02  0.7546771E-02  0.1300631E+00
          1   -1    0    0  505    0 -0.00000000000E+00  0.00000000000E+00  0.29176540949E+04  0.29176540949E+04  0.00000000000E+00 0. -1.
         21   -1    0    0  504  502  0.00000000000E+00 -0.00000000000E+00 -0.51326053304E+02  0.51326053304E+02  0.00000000000E+00 0.  1.
         21    1    1    2  503  502 -0.25573435794E+02 -0.22998568915E+02 -0.36211989752E+02  0.49942396741E+02  0.00000000000E+00 0.  1.
         21    1    1    2  504  501 -0.89874838636E+02  0.75363946473E+02  0.68174699350E+03  0.69176309109E+03  0.00000000000E+00 0. -1.
         21    1    1    2  505  503  0.80733075011E+02  0.63152795643E+00  0.62080778137E+03  0.62603556579E+03  0.00000000000E+00 0. -1.
          1    1    1    2  501    0  0.34715199419E+02 -0.52996905514E+02  0.15999852565E+04  0.16012390946E+04  0.00000000000E+00 0. -1.
<scales pt_clust_3="34.39382" pt_clust_4="90.92321" pt_clust_5="14000.00000" pt_clust_6="63.80417"></scales>
<clustering>
<clus scale="   34.394">  2  3  1 -1</clus>
<clus scale="   63.804">  1  6  2 -1</clus>
<clus scale="   90.923">  1  4  2 -1</clus>
<clus scale="   34.394">  2  3  1 -1</clus>
</clustering>
</event>
<event>
 6    0  0.3584505E+002  0.1238902E+03  0.7546771E-02  0.1236814E+00
         21   -1    0    0  504  502  0.00000000000E+00  0.00000000000E+00  0.20224214998E+02  0.20224214998E+02  0.00000000000E+00 0.  1.
          2   -1    0    0  503    0 -0.00000000000E+00 -0.00000000000E+00 -0.18736647006E+04  0.18736647006E+04  0.00000000000E+00 0.  1.
         21    1    1    2  503  505 -0.85677865708E+02 -0.23640926027E+02 -0.63973319351E+03  0.64587781269E+03  0.00000000000E+00 0.  1.
         21    1    1    2  504  501  0.45040441276E+02  0.57970041015E+00 -0.19429545457E+03  0.19944849227E+03  0.00000000000E+00 0.  1.
         21    1    1    2  505  502 -0.65206667292E+02 -0.28634833481E+02 -0.10671835484E+03  0.12829914422E+03  0.00000000000E+00 0.  1.
          2    1    1    2  501    0  0.10584409172E+03  0.51696059097E+02 -0.91269348264E+03  0.92026346636E+03  0.00000000000E+00 0.  1.
<scales pt_clust_3="111.88085" pt_clust_4="32.90510" pt_clust_5="71.21701" pt_clust_6="32.90510"></scales>
<clustering>
<clus scale="   32.905">  4  6 -1 -1</clus>
<clus scale="   71.217">  1  5  2 -1</clus>
<clus scale="  111.881">  2  3  1 -1</clus>
<clus scale="   71.217">  1  3  2 -1</clus>
</clustering>
</event>
<event>
 6    0  0.3584505E+002  0.5912390E+02  0.7546771E-02  0.1401546E+00
         21   -1    0    0  503  502  0.00000000000E+00  0.00000000000E+00  0.15660224082E+04  0.15660224082E+04  0.00000000000E+00 0.  1.
          2   -1    0    0  505    0 -0.00000000000E+00 -0.00000000000E+00 -0.43190530742E+02  0.43190530742E+02  0.00000000000E+00 0.  1.
         21    1    1    2  503  504 -0.84691338182E+01  0.84904773313E+02  0.49925161909E+03  0.50649059806E+03  0.00000000000E+00 0.  1.
         21    1    1    2  504  501 -0.64923550818E+02 -0.24646918094E+02  0.18127159222E+03  0.19411833548E+03  0.00000000000E+00 0.  1.
         21    1    1    2  505  502  0.24640658877E+02 -0.30657003628E+02  0.85012649514E+03  0.85103588155E+03  0.00000000000E+00 0.  1.
          2    1    1    2  501    0  0.48752025759E+02 -0.29600851592E+02 -0.78178290211E+01  0.57568123829E+02  0.00000000000E+00 0.  1.
<scales pt_clust_3="59.12390" pt_clust_4="14000.00000" pt_clust_5="39.33210" pt_clust_6="58.32220"></scales>
<clustering>
<clus scale="   39.332">  1  5  2 -1</clus>
<clus scale="   58.322">  2  6  1 -1</clus>
<clus scale="   59.124">  1  3  2 -1</clus>
<clus scale="   39.332">  1  3  2 -1</clus>
</clustering>
</event>
<event>
 6    0  0.3584505E+002  0.8404716E+02  0.7546771E-02  0.1317943E+00
         -1   -1    0    0    0  501 -0.00000000000E+00  0.00000000000E+00  0.27570526877E+03  0.27570526877E+03  0.00000000000E+00 0. -1.
         21   -1    0    0  505  502  0.00000000000E+00 -0.00000000000E+00 -0.18248931812E+03  0.18248931812E+03  0.00000000000E+00 0.  1.
         21    1    1    2  503  501 -0.26155511171E+02  0.10720400159E+03 -0.37025943001E+02  0.11639471283E+03  0.00000000000E+00 0.  1.
         21    1    1    2  504  502 -0.34561682962E+02 -0.68371089470E+02  0.24783113178E+02  0.80519056771E+02  0.00000000000E+00 0. -1.
         21    1    1    2  505  503  0.36837274674E+02  0.38391008937E+02 -0.58135015278E+02  0.78806943692E+02  0.00000000000E+00 0. -1.
         -1    1    1    2    0  504  0.23879919459E+02 -0.77223921053E+02  0.16359379575E+03  0.18247387359E+03  0.00000000000E+00 0. -1.
<scales pt_clust_3="14000.00000" pt_clust_4="64.28656" pt_clust_5="53.20577" pt_clust_6="84.04716"></scales>
<clustering>
<clus scale="   53.206">  2  5  1 -1</clus>
<clus scale="   64.287">  2  4  1 -1</clus>
<clus scale="   84.047">  1  6  2 -1</clus>
<clus scale="   53.206">  2  3  1 -1</clus>
</clustering>
</event>
<event>
 6    0  0.3584505E+002  0.6996321E+02  0.7546771E-02  0.1360218E+00
         21   -1    0    0  503  502  0.00000000000E+00  0.00000000000E+00  0.91108240634E+03  0.91108240634E+03  0.00000000000E+00 0.  1.
          1   -1    0    0  504    0 -0.00000000000E+00 -0.00000000000E+00 -0.12507093071E+03  0.12507093071E+03  0.00000000000E+00 0.  1.
         21    1    1    2  503  501  0.68258348734E+02  0.10984409256E+02  0.75588292272E+03  0.75903810990E+03  0.00000000000E+00 0.  1.
         21    1    1    2  504  505  0.23378905174E+02 -0.31836682872E+02  0.23083580673E+01  0.39566097867E+02  0.00000000000E+00 0.  1.
         21    1    1    2  505  502 -0.51206681196E+02  0.66168208594E+02  0.10821937133E+03  0.13679103903E+03  0.00000000000E+00 0.  1.
          1    1    1    2  501    0 -0.40430572712E+02 -0.45315934978E+02 -0.80399176486E+02  0.10075809026E+03  0.00000000000E+00 0.  1.
<scales pt_clust_3="69.40561" pt_clust_4="39.49870" pt_clust_5="14000.00000" pt_clust_6="69.96321"></scales>
<clustering>
<clus scale="   39.499">  2  4  1 -1</clus>
<clus scale="   69.406">  1  3  2 -1</clus>
<clus scale="   69.963">  2  6  1 -1</clus>
<clus scale="   69.406">  1  3  2 -1</clus>
</clustering>
</event>
<event>
 6    0  0.3584505E+002  0.1278661E+03  0.7546771E-02  0.1230657E+00
          2   -1    0    0  503    0 -0.00000000000E+00  0.00000000000E+00  0.22186399165E+04  0.22186399165E+04  0.00000000000E+00 0. -1.
         21   -1    0    0  504  502  0.00000000000E+00 -0.00000000000E+00 -0.10301988680E+03  0.10301988680E+03  0.00000000000E+00 0. -1.
         21    1    1    2  503  502  0.68956060754E+02 -0.40606185105E+02 -0.40368001924E+02  0.89629103325E+02  0.00000000000E+00 0. -1.
         21    1    1    2  504  505  0.14778011201E+02  0.47295357434E+02  0.79153078597E+01  0.50178606481E+02  0.00000000000E+00 0. -1.
         21    1    1    2  505  501  0.33943563932E+00  0.76183928295E+02  0.80217286191E+02  0.11062964861E+03  0.00000000000E+00 0. -1.
          2    1    1    2  501    0 -0.84073507595E+02 -0.82873100624E+02  0.20678554376E+04  0.20712224449E+04  0.00000000000E+00 0. -1.
<scales pt_clust_3="80.02375" pt_clust_4="41.25066" pt_clust_5="41.25066" pt_clust_6="117.18990"></scales>
<clustering>
<clus scale="   41.251">  4  5 -1 -1</clus>
<clus scale="   80.024">  2  3  1 -1</clus>
<clus scale="  117.190">  1  6  2 -1</clus>
<clus scale="   80.024">  2  3  1 -1</clus>
</clustering>
</event>
<event>
 6    0  0.3584505E+002  0.1878447E+03  0.7546771E-02  0.1160420E+00
          2   -1    0    0  505    0 -0.00000000000E+00  0.00000000000E+00  0.17165401959E+04  0.17165401959E+04  0.00000000000E+00 0.  1.
         21   -1    0    0  504  502  0.00000000000E+00 -0.00000000000E+00 -0.11502717549E+03  0.11502717549E+03  0.00000000000E+00 0.  1.
         21    1    1    2  503  501 -0.18323324206E+03  0.77904216449E+02  0.21408953966E+03  0.29236589905E+03  0.00000000000E+00 0.  1.
         21    1    1    2  504  503  0.18797122938E+03  0.42129001487E+01  0.59956132358E+02  0.19734657182E+03  0.00000000000E+00 0.  1.
         21    1    1    2  505  502  0.13978980876E+02 -0.46420677347E+02  0.78675708675E+02  0.92412977049E+02  0.00000000000E+00 0.  1.
          2    1    1    2  501    0 -0.18716968197E+02 -0.35696439251E+02  0.12487916397E+04  0.12494419234E+04  0.00000000000E+00 0.  1.
<scales pt_clust_3="14000.00000" pt_clust_4="187.84471" pt_clust_5="53.99498" pt_clust_6="40.30584"></scales>
<clustering>
<clus scale="   40.306">  1  6  2 -1</clus>
<clus scale="   53.995">  1  5  2 -1</clus>
<clus scale="  187.845">  2  4  1 -1</clus>
<clus scale="  187.845">  2  3  1 -1</clus>
</clustering>
</event>
<event>
 6    0  0.3584505E+002  0.9740273E+02  0.7546771E-02  0.1285854E+00
         -2   -1    0    0    0  501 -0.00000000000E+00  0.00000000000E+00  0.11472623341E+04  0.11472623341E+04  0.00000000000E+00 0.  1.
         21   -1    0    0  503  502  0.00000000000E+00 -0.00000000000E+00 -0.91986966683E+02  0.91986966683E+02  0.00000000000E+00 0. -1.
         21    1    1    2  503  504 -0.10034165644E+01 -0.45308129211E+02 -0.42649858685E+02  0.62232177073E+02  0.00000000000E+00 0. -1.
         21    1    1    2  504  505  0.24601628939E+02 -0.40583382252E+02 -0.13886519124E+02  0.49447815673E+02  0.00000000000E+00 0. -1.
         21    1    1    2  505  501  0.98271973556E+01  0.11788644361E+03  0.49154529495E+03  0.50557943429E+03  0.00000000000E+00 0. -1.
         -2    1    1    2    0  502 -0.33425409730E+02 -0.31994932149E+02  0.62026645028E+03  0.62198987375E+03  0.00000000000E+00 0.  1.
<scales pt_clust_3="35.79613" pt_clust_4="35.79613" pt_clust_5="90.25221" pt_clust_6="46.27022"></scales>
<clustering>
<clus scale="   35.796">  3  4 -1 -1</clus>
<clus scale="   46.270">  1  6  2 -1</clus>
<clus scale="   90.252">  1  5  2 -1</clus>
<clus scale="   97.403">  2  3  1 -1</clus>
</clustering>
</event>
<event>
 6    0  0.3584505E+002  0.1100243E+03  0.7546771E-02  0.1260525E+00
         21   -1    0    0  505  502  0.00000000000E+00  0.00000000000E+00  0.42985717087E+03  0.42985717087E+03  0.00000000000E+00 0.  1.
          2   -1    0    0  502    0 -0.00000000000E+00 -0.00000000000E+00 -0.61786684296E+03  0.61786684296E+03  0.00000000000E+00 0. -1.
         21    1    1    2  503  501 -0.20231676193E+01  0.45145584397E+02  0.58748404856E+02  0.74118770031E+02  0.00000000000E+00 0.  1.
         21    1    1    2  504  503 -0.47477109354E+01  0.80763976231E+02  0.16800409182E+02  0.82629379547E+02  0.00000000000E+00 0.  1.
         21    1    1    2  505  504  0.23229477835E+02 -0.87983105768E+02  0.30634507791E+03  0.31957462713E+03  0.00000000000E+00 0.  1.
          2    1    1    2  501    0 -0.16458599281E+02 -0.37926454859E+02 -0.56990356404E+03  0.57140123712E+03  0.00000000000E+00 0. -1.
<scales pt_clust_3="40.68456" pt_clust_4="40.68456" pt_clust_5="95.61411" pt_clust_6="41.34370"></scales>
<clustering>
<clus scale="   40.685">  3  4 -1 -1</clus>
<clus scale="   41.344">  2  6  1 -1</clus>
<clus scale="   95.614">  1  5  2 -1</clus>
<clus scale="   95.614">  1  3  2 -1</clus>
</clustering>
</event>
<event>
 6    0  0.3584505E+002  0.7578101E+02  0.7546771E-02  0.1341469E+00
          2   -1    0    0  505    0 -0.00000000000E+00  0.00000000000E+00  0.17011383548E+04  0.17011383548E+04  0.00000000000E+00 0. -1.
         21   -1    0    0  504  502  0.00000000000E+00 -0.00000000000E+00 -0.38452971911E+03  0.38452971911E+03  0.00000000000E+00 0.  1.
         21    1    1    2  503  502  0.96963937371E+02  0.72769562771E+02  0.22851419712E+03  0.25868156622E+03  0.00000000000E+00 0.  1.
         21    1    1    2  504  501 -0.36285568189E+02 -0.40933331096E+02 -0.36388785782E+03  0.36797629424E+03  0.00000000000E+00 0.  1.
         21    1    1    2  505  503 -0.40315669777E+02  0.28109038368E+02  0.22090802054E+03  0.22630913549E+03  0.00000000000E+00 0.  1.
          2    1    1    2  501    0 -0.20362699406E+02 -0.59945270043E+02  0.12310742759E+04  0.12327010780E+04  0.00000000000E+00 0. -1.
<scales pt_clust_3="75.78101" pt_clust_4="54.70876" pt_clust_5="49.14744" pt_clust_6="14000.00000"></scales>
<clustering>
<clus scale="   49.147">  1  5  2 -1</clus>
<clus scale="   54.709">  2  4  1 -1</clus>
<clus scale="   75.781">  2  3  1 -1</clus>
<clus scale="   54.709">  2  3  1 -1</clus>
</clustering>
</event>
<event>
 6    0  0.3584505E+002  0.9106194E+02  0.7546771E-02  0.1300300E+00
         21   -1    0    0  501  502  0.00000000000E+00  0.00000000000E+00  0.41876835820E+03  0.41876835820E+03  0.00000000000E+00 0. -1.
          1   -1    0    0  505    0 -0.00000000000E+00 -0.00000000000E+00 -0.19386855170E+03  0.19386855170E+03  0.00000000000E+00 0. -1.
         21    1    1    2  503  504  0.70997362047E+02 -0.47742401832E+01  0.15954500710E+03  0.17469409858E+03  0.00000000000E+00 0. -1.
         21    1    1    2  504  502  0.30582915472E+02  0.16817705893E+02  0.21151774602E+03  0.21437795324E+03  0.00000000000E+00 0. -1.
         21    1    1    2  505  503 -0.45709193788E+02 -0.65495784063E+02 -0.32797203182E+02  0.86340515769E+02  0.00000000000E+00 0. -1.
          1    1    1    2  501    0 -0.55871083731E+02  0.53452318354E+02 -0.11336574345E+03  0.13722434231E+03  0.00000000000E+00 0. -1.
<scales pt_clust_3="14000.00000" pt_clust_4="34.90200" pt_clust_5="75.82498" pt_clust_6="91.06194"></scales>
<clustering>
<clus scale="   34.902">  1  4  2 -1</clus>
<clus scale="   75.825">  2  5  1 -1</clus>
<clus scale="   91.062">  2  6  1 -1</clus>
<clus scale="   34.902">  1  3  2 -1</clus>
</clustering>
</event>
<event>
 6    0  0.3584505E+002  0.6659053E+02  0.7546771E-02  0.1372087E+00
          2   -1    0    0  503    0 -0.00000000000E+00  0.00000000000E+00  0.42572418602E+04  0.42572418602E+04  0.00000000000E+00 0. -1.
         21   -1    0    0  501  502  0.00000000000E+00 -0.00000000000E+00 -0.69842213988E+01  0.69842213988E+01  0.00000000000E+00 0.  1.
         21    1    1    2  503  504  0.87508967800E+01 -0.53493007444E+02  0.19954711710E+04  0.19962072223E+04  0.00000000000E+00 0. -1.
         21    1    1    2  504  505 -0.61428858259E+02  0.17105618785E+02  0.11666442892E+04  0.11683856403E+04  0.00000000000E+00 0. -1.
         21    1    1    2  505  502  0.70359589683E+02  0.81355363198E+02  0.83722344369E+03  0.84410441394E+03  0.00000000000E+00 0.  1.
          2    1    1    2  501    0 -0.17681628204E+02 -0.44967974538E+02  0.25091873484E+03  0.25552880503E+03  0.00000000000E+00 0. -1.
<scales pt_clust_3="57.50280" pt_clust_4="14000.00000" pt_clust_5="66.59053" pt_clust_6="48.31934"></scales>
<clustering>
<clus scale="   48.319">  2  6  1 -1</clus>
<clus scale="   57.503">  1  3  2 -1</clus>
<clus scale="   66.591">  2  5  1 -1</clus>
<clus scale="   48.319">  2  3  1 -1</clus>
</clustering>
</event>
<event>
 6    0  0.3584505E+002  0.7487553E+02  0.7546771E-02  0.1344257E+00
          3   -1    0    0  504    0 -0.00000000000E+00  0.00000000000E+00  0.11031112398E+04  0.11031112398E+04  0.00000000000E+00 0. -1.
         21   -1    0    0  503  502  0.00000000000E+00 -0.00000000000E+00 -0.27387210298E+02  0.27387210298E+02  0.00000000000E+00 0. -1.
         21    1    1    2  503  501  0.35136842625E+02  0.46753660688E+01  0.45507762083E+02  0.57683733993E+02  0.00000000000E+00 0. -1.
         21    1    1    2  504  505  0.32943922869E+02 -0.37404978641E+02  0.17474081171E+03  0.18171071998E+03  0.00000000000E+00 0. -1.
         21    1    1    2  505  502 -0.93801924626E+02 -0.40015718178E+02  0.14977355546E+03  0.18119651398E+03  0.00000000000E+00 0. -1.
          3    1    1    2  501    0  0.25721159133E+02  0.72745330750E+02  0.70570190028E+03  0.70990748216E+03  0.00000000000E+00 0. -1.
<scales pt_clust_3="35.44653" pt_clust_4="53.28823" pt_clust_5="14000.00000" pt_clust_6="74.87553"></scales>
<clustering>
<clus scale="   35.447">  2  3  1 -1</clus>
<clus scale="   53.288">  1  4  2 -1</clus>
<clus scale="   74.876">  1  6  2 -1</clus>
<clus scale="   35.447">  2  3  1 -1</clus>
</clustering>
</event>
<event>
 6    0  0.3584505E+002  0.1036581E+03  0.7546771E-02  0.1272786E+00
         21   -1    0    0  503  502  0.00000000000E+00  0.00000000000E+00  0.40937547588E+03  0.40937547588E+03  0.00000000000E+00 0. -1.
         -4   -1    0    0    0  501 -0.00000000000E+00 -0.00000000000E+00 -0.21206278666E+03  0.21206278666E+03  0.00000000000E+00 0.  1.
         21    1    1    2  503  504 -0.37955092327E+02 -0.30295098731E+01  0.55354149480E+02  0.67185183100E+02  0.00000000000E+00 0.  1.
         21    1    1    2  504  501 -0.51252104572E+02 -0.46109112193E+02  0.84695451401E+01  0.69459064528E+02  0.00000000000E+00 0.  1.
         21    1    1    2  505  502 -0.31964027412E+02  0.10945014004E+02  0.28503937309E+03  0.28703473064E+03  0.00000000000E+00 0. -1.
         -4    1    1    2    0  505  0.12117122431E+03  0.38193608062E+02 -0.15155037849E+03  0.19775928428E+03  0.00000000000E+00 0.  1.
<scales pt_clust_3="53.88737" pt_clust_4="103.65805" pt_clust_5="33.78598" pt_clust_6="14000.00000"></scales>
<clustering>
<clus scale="   33.786">  1  5  2 -1</clus>
<clus scale="   53.887">  1  3  2 -1</clus>
<clus scale="  103.658">  1  4  2 -1</clus>
<clus scale="   33.786">  1  3  2 -1</clus>
</clustering>
</event>
<event>
 6    0  0.3584505E+002  0.1893879E+03  0.7546771E-02  0.1159015E+00
          2   -1    0    0  503    0 -0.00000000000E+00  0.00000000000E+00  0.46831661002E+03  0.46831661002E+03  0.00000000000E+00 0. -1.
         21   -1    0    0  504  502  0.00000000000E+00 -0.00000000000E+00 -0.34553649932E+03  0.34553649932E+03  0.00000000000E+00 0. -1.
         21    1    1    2  503  505  0.11661175167E+03  0.17903708212E+03  0.24626560407E+03  0.32603577281E+03  0.00000000000E+00 0. -1.
         21    1    1    2  504  501 -0.31802429271E+02 -0.64000785161E+02 -0.19458749387E+03  0.20729637666E+03  0.00000000000E+00 0. -1.
         21    1    1    2  505  502 -0.66155864594E+01  0.30819461514E+02 -0.61069770393E+02  0.68724973977E+02  0.00000000000E+00 0. -1.
          2    1    1    2  501    0 -0.78193735940E+02 -0.14585575847E+03  0.13217177089E+03  0.21179598589E+03  0.00000000000E+00 0. -1.
<scales pt_clust_3="189.38789" pt_clust_4="55.61964" pt_clust_5="31.52150" pt_clust_6="14000.00000"></scales>
<clustering>
<clus scale="   31.522">  2  5  1 -1</clus>
<clus scale="   55.620">  2  4  1 -1</clus>
<clus scale="  189.388">  2  3  1 -1</clus>
<clus scale="   31.522">  2  3  1 -1</clus>
</clustering>
</event>
<event>
 6    0  0.3584505E+002  0.1464830E+03  0.7546771E-02  0.1204862E+00
          1   -1    0    0  503    0 -0.00000000000E+00  0.00000000000E+00  0.10590784814E+04  0.10590784814E+04  0.00000000000E+00 0.  1.
         21   -1    0    0  505  502  0.00000000000E+00 -0.00000000000E+00 -0.89708947197E+02  0.89708947197E+02  0.00000000000E+00 0. -1.
         21    1    1    2  503  504  0.10874979959E+02 -0.50316141837E+02  0.92665720911E+02  0.10600431666E+03  0.00000000000E+00 0.  1.
         21    1    1    2  504  502  0.15482108617E+03  0.43264824034E+02  0.24488770151E+02  0.16260723718E+03  0.00000000000E+00 0. -1.
         21    1    1    2  505  501 -0.11362482241E+03  0.12510420885E+02  0.24114586412E+03  0.26686782998E+03  0.00000000000E+00 0.  1.
          1    1    1    2  501    0 -0.52071243722E+02 -0.54591030825E+01  0.61106917899E+03  0.61330804474E+03  0.00000000000E+00 0.  1.
<scales pt_clust_3="51.47795" pt_clust_4="146.48303" pt_clust_5="14000.00000" pt_clust_6="58.71482"></scales>
<clustering>
<clus scale="   51.478">  1  3  2 -1</clus>
<clus scale="   58.715">  1  6  2 -1</clus>
<clus scale="  146.483">  2  4  1 -1</clus>
<clus scale="  146.483">  2  3  1 -1</clus>
</clustering>
</event>
<event>
 6    0  0.3584505E+002  0.1377866E+03  0.7546771E-02  0.1216339E+00
          2   -1    0    0  505    0 -0.00000000000E+00  0.00000000000E+00  0.13719235635E+04  0.13719235635E+04  0.00000000000E+00 0.  1.
         21   -1    0    0  503  502  0.00000000000E+00 -0.00000000000E+00 -0.84844207698E+02  0.84844207698E+02  0.00000000000E+00 0.  1.
         21    1    1    2  503  504  0.34347417791E+02 -0.10354514047E+02 -0.38955767451E+02  0.52957651834E+02  0.00000000000E+00 0.  1.
         21    1    1    2  504  501  0.11077829884E+03  0.54524716032E+02  0.94958636742E+02  0.15576237942E+03  0.00000000000E+00 0.  1.
         21    1    1    2  505  502 -0.12945637576E+03  0.35601969895E+01  0.54668743528E+03  0.56181739037E+03  0.00000000000E+00 0.  1.
          2    1    1    2  501    0 -0.15669340872E+02 -0.47730398974E+02  0.68438905120E+03  0.68623034954E+03  0.00000000000E+00 0.  1.
<scales pt_clust_3="35.87424" pt_clust_4="14000.00000" pt_clust_5="137.78660" pt_clust_6="50.22309"></scales>
<clustering>
<clus scale="   35.874">  2  3  1 -1</clus>
<clus scale="   50.223">  1  6  2 -1</clus>
<clus scale="  137.787">  1  5  2 -1</clus>
<clus scale="   35.874">  2  3  1 -1</clus>
</clustering>
</event>
<event>
 6    0  0.3584505E+002  0.1816332E+03  0.7546771E-02  0.1166232E+00
          2   -1    0    0  505    0 -0.00000000000E+00  0.00000000000E+00  0.27794486016E+04  0.27794486016E+04  0.00000000000E+00 0. -1.
         21   -1    0    0  504  502  0.00000000000E+00 -0.00000000000E+00 -0.23811639075E+03  0.23811639075E+03  0.00000000000E+00 0. -1.
         21    1    1    2  503  502 -0.28617993144E+02  0.17259446367E+03 -0.19556883104E+03  0.26240237441E+03  0.00000000000E+00 0. -1.
         21    1    1    2  504  501  0.57344213968E+02 -0.26976507306E+02  0.12216362789E+04  0.12232789088E+04  0.00000000000E+00 0. -1.
         21    1    1    2  505  503 -0.41670462252E+02 -0.90128104492E+02  0.31527067781E+03  0.33053759685E+03  0.00000000000E+00 0. -1.
          2    1    1    2  501    0  0.12944241428E+02 -0.55489851870E+02  0.11999940852E+04  0.12013461123E+04  0.00000000000E+00 0. -1.
<scales pt_clust_3="173.83583" pt_clust_4="49.92090" pt_clust_5="99.29503" pt_clust_6="49.92090"></scales>
<clustering>
<clus scale="   49.921">  4  6 -1 -1</clus>
<clus scale="   99.295">  1  5  2 -1</clus>
<clus scale="  173.836">  2  3  1 -1</clus>
<clus scale="  173.836">  2  3  1 -1</clus>
</clustering>
</event>
<event>
 6    0  0.3584505E+002  0.1070534E+03  0.7546771E-02  0.1266126E+00
          2   -1    0    0  505    0 -0.00000000000E+00  0.00000000000E+00  0.89472938290E+03  0.89472938290E+03  0.00000000000E+00 0. -1.
         21   -1    0    0  503  502  0.00000000000E+00 -0.00000000000E+00 -0.88979078617E+03  0.88979078617E+03  0.00000000000E+00 0.  1.
         21    1    1    2  503  501 -0.76182633658E+02  0.45903181038E+02  0.50543372857E+02  0.10230116441E+03  0.00000000000E+00 0. -1.
         21    1    1    2  504  502 -0.45563397925E+02 -0.30701855687E+02 -0.84617111100E+03  0.84795293282E+03  0.00000000000E+00 0.  1.
         21    1    1    2  505  504  0.11142060553E+03 -0.43994610547E+02  0.20149870603E+03  0.23441801472E+03  0.00000000000E+00 0. -1.
          2    1    1    2  501    0  0.10325426054E+02  0.28793285196E+02  0.59906762885E+03  0.59984805712E+03  0.00000000000E+00 0. -1.
<scales pt_clust_3="14000.00000" pt_clust_4="54.86768" pt_clust_5="107.05340" pt_clust_6="30.58869"></scales>
<clustering>
<clus scale="   30.589">  1  6  2 -1</clus>
<clus scale="   54.868">  2  4  1 -1</clus>
<clus scale="  107.053">  1  5  2 -1</clus>
<clus scale="   54.868">  2  3  1 -1</clus>
</clustering>
</event>
<event>
 6    0  0.3584505E+002  0.7172227E+02  0.7546771E-02  0.1354332E+00
          2   -1    0    0  502    0 -0.00000000000E+00  0.00000000000E+00  0.23182693111E+04  0.23182693111E+04  0.00000000000E+00 0.  1.
         21   -1    0    0  505  502  0.00000000000E+00 -0.00000000000E+00 -0.35612010951E+02  0.35612010951E+02  0.00000000000E+00 0.  1.
         21    1    1    2  503  501 -0.86667357785E+02  0.57580553506E+01  0.27301580855E+03  0.28649959481E+03  0.00000000000E+00 0.  1.
         21    1    1    2  504  503 -0.50415022202E+01  0.50010315702E+02  0.13059995066E+03  0.13993854198E+03  0.00000000000E+00 0.  1.
         21    1    1    2  505  504  0.22371077440E+02 -0.44290265091E+02  0.26017175716E+01  0.49687640536E+02  0.00000000000E+00 0.  1.
          2    1    1    2  501    0  0.69337782565E+02 -0.11478105961E+02  0.18764398234E+04  0.18777555447E+04  0.00000000000E+00 0.  1.
<scales pt_clust_3="71.72227" pt_clust_4="33.07321" pt_clust_5="49.61948" pt_clust_6="14000.00000"></scales>
<clustering>
<clus scale="   49.619">  2  5  1 -1</clus>
<clus scale="   33.073">  2  4  1 -1</clus>
<clus scale="   71.722">  2  3  1 -1</clus>
<clus scale="   49.619">  2  3  1 -1</clus>
</clustering>
</event>
<event>
 6    0  0.3584505E+002  0.1086368E+03  0.7546771E-02  0.1263115E+00
          2   -1    0    0  503    0 -0.00000000000E+00  0.00000000000E+00  0.72524298701E+03  0.72524298701E+03  0.00000000000E+00 0. -1.
         21   -1    0    0  504  502  0.00000000000E+00 -0.00000000000E+00 -0.47036536910E+03  0.47036536910E+03  0.00000000000E+00 0.  1.
         21    1    1    2  503  505 -0.79816797911E+02  0.66191900996E+02  0.34567005148E+03  0.36088761890E+03  0.00000000000E+00 0.  1.
         21    1    1    2  504  501  0.94307058543E+01 -0.33121268071E+02 -0.10882446476E+03  0.11414342181E+03  0.00000000000E+00 0. -1.
         21    1    1    2  505  502  0.91924564030E+02 -0.82563297636E+01 -0.34445424459E+03  0.35660485004E+03  0.00000000000E+00 0.  1.
          2    1    1    2  501    0 -0.21538471974E+02 -0.24814303161E+02  0.36248627578E+03  0.36397246537E+03  0.00000000000E+00 0. -1.
<scales pt_clust_3="14000.00000" pt_clust_4="34.57031" pt_clust_5="108.63678" pt_clust_6="32.85811"></scales>
<clustering>
<clus scale="   32.858">  1  6  2 -1</clus>
<clus scale="   34.570">  2  4  1 -1</clus>
<clus scale="  108.637">  2  5  1 -1</clus>
<clus scale="   34.570">  2  3  1 -1</clus>
</clustering>
</event>
<event>
 6    0  0.3584505E+002  0.2081114E+03  0.7546771E-02  0.1143070E+00
          2   -1    0    0  505    0 -0.00000000000E+00  0.00000000000E+00  0.16123022600E+04  0.16123022600E+04  0.00000000000E+00 0.  1.
         21   -1    0    0  503  502  0.00000000000E+00 -0.00000000000E+00 -0.38626046015E+03  0.38626046015E+03  0.00000000000E+00 0.  1.
         21    1    1    2  503  504  0.73783726434E+02 -0.58303432214E+02 -0.10709062689E+03  0.14251922980E+03  0.00000000000E+00 0.  1.
         21    1    1    2  504  501 -0.98304762023E+02 -0.18206276795E+03  0.53404444540E+03  0.57272519359E+03  0.00000000000E+00 0.  1.
         21    1    1    2  505  502  0.53039918575E+02  0.22338024224E+03 -0.18734454441E+03  0.29632742685E+03  0.00000000000E+00 0.  1.
          2    1    1    2  501    0 -0.28518882987E+02  0.16985957932E+02  0.98643252572E+03  0.98699086989E+03  0.00000000000E+00 0.  1.
<scales pt_clust_3="93.10725" pt_clust_4="208.11135" pt_clust_5="14000.00000" pt_clust_6="33.19412"></scales>
<clustering>
<clus scale="   33.194">  1  6  2 -1</clus>
<clus scale="   93.107">  2  3  1 -1</clus>
<clus scale="  208.111">  1  4  2 -1</clus>
<clus scale="   93.107">  2  3  1 -1</clus>
</clustering>
</event>
<event>
 6    0  0.3584505E+002  0.9406161E+02  0.7546771E-02  0.1293304E+00
         21   -1    0    0  503  502  0.00000000000E+00  0.00000000000E+00  0.25798018976E+03  0.25798018976E+03  0.00000000000E+00 0.  1.
         -2   -1    0    0    0  501 -0.00000000000E+00 -0.00000000000E+00 -0.12749992017E+04  0.12749992017E+04  0.00000000000E+00 0.  1.
         21    1    1    2  503  501 -0.83651913846E+02  0.19485737151E+02  0.44506488586E+02  0.96737604729E+02  0.00000000000E+00 0.  1.
         21    1    1    2  504  505  0.35771614605E+02  0.79894643835E+02 -0.27395690812E+03  0.28760241660E+03  0.00000000000E+00 0. -1.
         21    1    1    2  505  502 -0.39380853436E+01 -0.75718002685E+02  0.17169232063E+03  0.18768851167E+03  0.00000000000E+00 0.  1.
         -2    1    1    2    0  504  0.51818384585E+02 -0.23662378300E+02 -0.95926091302E+03  0.96095085846E+03  0.00000000000E+00 0.  1.
<scales pt_clust_3="14000.00000" pt_clust_4="94.06161" pt_clust_5="76.36404" pt_clust_6="56.96537"></scales>
<clustering>
<clus scale="   56.965">  2  6  1 -1</clus>
<clus scale="   76.364">  1  5  2 -1</clus>
<clus scale="   94.062">  2  4  1 -1</clus>
<clus scale="   76.364">  1  3  2 -1</clus>
</clustering>
</event>
<event>
 6    0  0.3584505E+002  0.1148250E+03  0.7546771E-02  0.1251887E+00
         21   -1    0    0  504  502  0.00000000000E+00  0.00000000000E+00  0.43588029057E+03  0.43588029057E+03  0.00000000000E+00 0.  1.
         -2   -1    0    0    0  501 -0.00000000000E+00 -0.00000000000E+00 -0.16976640710E+04  0.16976640710E+04  0.00000000000E+00 0.  1.
         21    1    1    2  503  501 -0.71330725758E+02  0.57680246876E+02 -0.66706639924E+03  0.67334438760E+03  0.00000000000E+00 0. -1.
         21    1    1    2  504  503  0.33810311157E+02 -0.45736360463E+02  0.91410627698E+00  0.56883981921E+02  0.00000000000E+00 0. -1.
         21    1    1    2  505  502 -0.67259395796E+01 -0.68903755488E+02  0.39956041615E+03  0.40551386158E+03  0.00000000000E+00 0.  1.
         -2    1    1    2    0  505  0.44246354181E+02  0.56959869074E+02 -0.99519190357E+03  0.99780213043E+03  0.00000000000E+00 0.  1.
<scales pt_clust_3="114.82503" pt_clust_4="56.87664" pt_clust_5="14000.00000" pt_clust_6="72.07695"></scales>
<clustering>
<clus scale="   56.877">  1  4  2 -1</clus>
<clus scale="   72.077">  2  6  1 -1</clus>
<clus scale="  114.825">  2  3  1 -1</clus>
<clus scale="   56.877">  1  3  2 -1</clus>
</clustering>
</event>
<event>
 6    0  0.3584505E+002  0.1411281E+03  0.7546771E-02  0.1211819E+00
          1   -1    0    0  503    0 -0.00000000000E+00  0.00000000000E+00  0.19108515437E+04  0.19108515437E+04  0.00000000000E+00 0. -1.
         21   -1    0    0  501  502  0.00000000000E+00 -0.00000000000E+00 -0.82953739431E+02  0.82953739431E+02  0.00000000000E+00 0.  1.
         21    1    1    2  503  505  0.13775291202E+03 -0.12562347491E+03  0.49975872407E+03  0.53340032293E+03  0.00000000000E+00 0.  1.
         21    1    1    2  504  502 -0.32476996043E+02 -0.97426205166E+01 -0.13647413306E+02  0.36550318965E+02  0.00000000000E+00 0. -1.
         21    1    1    2  505  504 -0.97289134667E+02  0.64449820458E+02  0.44952775242E+02  0.12505881450E+03  0.00000000000E+00 0.  1.
          1    1    1    2  501    0 -0.79867813052E+01  0.70916274971E+02  0.12968337183E+04  0.12987958267E+04  0.00000000000E+00 0. -1.
<scales pt_clust_3="14000.00000" pt_clust_4="33.90684" pt_clust_5="141.12812" pt_clust_6="71.26431"></scales>
<clustering>
<clus scale="   33.907">  2  4  1 -1</clus>
<clus scale="   71.264">  1  6  2 -1</clus>
<clus scale="  141.128">  2  5  1 -1</clus>
<clus scale="   33.907">  2  3  1 -1</clus>
</clustering>
</event>
<event>
 6    0  0.3584505E+002  0.2947639E+03  0.7546771E-02  0.1087888E+00
         21   -1    0    0  505  502  0.00000000000E+00  0.00000000000E+00  0.10078055518E+04  0.10078055518E+04  0.00000000000E+00 0.  1.
          2   -1    0    0  502    0 -0.00000000000E+00 -0.00000000000E+00 -0.45330953514E+03  0.45330953514E+03  0.00000000000E+00 0.  1.
         21    1    1    2  503  504 -0.65627076961E+01  0.76531881454E+02  0.44334302728E+03  0.44994803905E+03  0.00000000000E+00 0.  1.
         21    1    1    2  504  501  0.97011471024E+02 -0.25089395956E+03 -0.44353937249E+02  0.27262845817E+03  0.00000000000E+00 0.  1.
         21    1    1    2  505  503 -0.57726768534E+02  0.18511876245E+03  0.42484549463E+03  0.46700645641E+03  0.00000000000E+00 0.  1.
          2    1    1    2  501    0 -0.32721994794E+02 -0.10756684345E+02 -0.26933856800E+03  0.27153213330E+03  0.00000000000E+00 0.  1.
<scales pt_clust_3="75.61800" pt_clust_4="269.12031" pt_clust_5="75.61800" pt_clust_6="34.44467"></scales>
<clustering>
<clus scale="   34.445">  2  6  1 -1</clus>
<clus scale="   75.618">  3  5 -1 -1</clus>
<clus scale="  269.120">  2  4  1 -1</clus>
<clus scale="  294.764">  1  3  2 -1</clus>
</clustering>
</event>
<event>
 6    0  0.3584505E+002  0.1564900E+03  0.7546771E-02  0.1192717E+00
          2   -1    0    0  504    0 -0.00000000000E+00  0.00000000000E+00  0.32826728222E+04  0.32826728222E+04  0.00000000000E+00 0. -1.
         21   -1    0    0  503  502  0.00000000000E+00 -0.00000000000E+00 -0.20863946798E+02  0.20863946798E+02  0.00000000000E+00 0.  1.
         21    1    1    2  503  505 -0.16242861101E+02 -0.36586552686E+02  0.86802327058E+02  0.95587919513E+02  0.00000000000E+00 0.  1.
         21    1    1    2  504  502 -0.48684087094E+02  0.16885726900E+03  0.21849922012E+04  0.21920478638E+04  0.00000000000E+00 0. -1.
         21    1    1    2  505  501  0.56874003311E+02 -0.96379125492E+02  0.23810404170E+03  0.26309147223E+03  0.00000000000E+00 0.  1.
          2    1    1    2  501    0  0.80529448832E+01 -0.35891590824E+02  0.75191030544E+03  0.75280951352E+03  0.00000000000E+00 0. -1.
<scales pt_clust_3="36.65418" pt_clust_4="143.99006" pt_clust_5="36.65418" pt_clust_6="36.78391"></scales>
<clustering>
<clus scale="   36.654">  3  5 -1 -1</clus>
<clus scale="   36.784">  1  6  2 -1</clus>
<clus scale="  143.990">  1  4  2 -1</clus>
<clus scale="  156.490">  2  3  1 -1</clus>
</clustering>
</event>
<event>
 6    0  0.3584505E+002  0.1185247E+03  0.7546771E-02  0.1245551E+00
          1   -1    0    0  504    0 -0.00000000000E+00  0.00000000000E+00  0.10791173444E+04  0.10791173444E+04  0.00000000000E+00 0.  1.
         21   -1    0    0  503  502  0.00000000000E+00 -0.00000000000E+00 -0.18362811846E+03  0.18362811846E+03  0.00000000000E+00 0. -1.
         21    1    1    2  503  505 -0.10887177578E+03 -0.41941164226E+02  0.30485857711E+02  0.12058819320E+03  0.00000000000E+00 0. -1.
         21    1    1    2  504  502  0.29997642258E+02 -0.41829043478E+02 -0.11592376958E+03  0.12683787988E+03  0.00000000000E+00 0. -1.
         21    1    1    2  505  501  0.11546735293E+03  0.76117901152E+02  0.26953068317E+03  0.30294130395E+03  0.00000000000E+00 0. -1.
          1    1    1    2  501    0 -0.36593219408E+02  0.76523065516E+01  0.71139645463E+03  0.71237808582E+03  0.00000000000E+00 0.  1.
<scales pt_clust_3="118.52470" pt_clust_4="51.06563" pt_clust_5="14000.00000" pt_clust_6="37.38478"></scales>
<clustering>
<clus scale="   37.385">  1  6  2 -1</clus>
<clus scale="   51.066">  2  4  1 -1</clus>
<clus scale="  118.525">  2  3  1 -1</clus>
<clus scale="   51.066">  2  3  1 -1</clus>
</clustering>
</event>
<event>
 6    0  0.3614833E+002  0.1432587E+03  0.7546771E-02  0.1209010E+00
          2   -1    0    0  505    0 -0.00000000000E+00  0.00000000000E+00  0.70854528085E+03  0.70854528085E+03  0.00000000000E+00 0.  1.
         21   -1    0    0  503  502  0.00000000000E+00 -0.00000000000E+00 -0.41733929577E+03  0.41733929577E+03  0.00000000000E+00 0. -1.
         21    1    1    2  503  501  0.44203193439E+02 -0.12489359644E+02  0.12711685352E+03  0.13516138821E+03  0.00000000000E+00 0.  1.
         21    1    1    2  504  502 -0.38085583654E+02  0.76330323135E+01 -0.34050869172E+03  0.34271700279E+03  0.00000000000E+00 0. -1.
         21    1    1    2  505  504 -0.97501439908E+02  0.24865791187E+02 -0.30224758614E+02  0.10506366826E+03  0.00000000000E+00 0. -1.
          2    1    1    2  501    0  0.91383830122E+02 -0.20009463857E+02  0.53482258190E+03  0.54294251736E+03  0.00000000000E+00 0.  1.
<scales pt_clust_3="33.02390" pt_clust_4="38.84295" pt_clust_5="135.28477" pt_clust_6="33.02390"></scales>
<clustering>
<clus scale="   33.024">  3  6 -1 -1</clus>
<clus scale="   38.843">  2  4  1 -1</clus>
<clus scale="  135.285">  2  5  1 -1</clus>
<clus scale="   38.843">  2  3  1 -1</clus>
</clustering>
</event>
<event>
 6    0  0.6728334E+002  0.1207030E+03  0.7546771E-02  0.1241942E+00
          1   -1    0    0  505    0 -0.00000000000E+00  0.00000000000E+00  0.62016144131E+03  0.62016144131E+03  0.00000000000E+00 0. -1.
         21   -1    0    0  501  502  0.00000000000E+00 -0.00000000000E+00 -0.84954372714E+03  0.84954372714E+03  0.00000000000E+00 0. -1.
         21    1    1    2  503  502 -0.30496594995E+02  0.87588190767E+01 -0.52640739733E+03  0.52736278517E+03  0.00000000000E+00 0. -1.
         21    1    1    2  504  503 -0.87411194077E+02  0.27574176287E+02 -0.30312774940E+03  0.31668199271E+03  0.00000000000E+00 0. -1.
         21    1    1    2  505  504  0.62528506762E+02  0.63000546463E+01  0.84579593030E+02  0.10537178182E+03  0.00000000000E+00 0.  1.
          1    1    1    2  501    0  0.55379282310E+02 -0.42633050010E+02  0.51557326786E+03  0.52028860875E+03  0.00000000000E+00 0. -1.
<scales pt_clust_3="31.72947" pt_clust_4="120.70303" pt_clust_5="61.89689" pt_clust_6="14000.00000"></scales>
<clustering>
<clus scale="   31.729">  2  3  1 -1</clus>
<clus scale="   61.897">  1  5  2 -1</clus>
<clus scale="  120.703">  2  4  1 -1</clus>
<clus scale="   31.729">  2  3  1 -1</clus>
</clustering>
</event>
<event>
 6    0  0.3584505E+002  0.2194573E+03  0.7546771E-02  0.1134288E+00
         21   -1    0    0  503  502  0.00000000000E+00  0.00000000000E+00  0.26971843382E+03  0.26971843382E+03  0.00000000000E+00 0. -1.
          1   -1    0    0  505    0 -0.00000000000E+00 -0.00000000000E+00 -0.14497791520E+04  0.14497791520E+04  0.00000000000E+00 0.  1.
         21    1    1    2  503  504 -0.72504974806E+02 -0.19608264596E+02 -0.26417195292E+02  0.79619869499E+02  0.00000000000E+00 0. -1.
         21    1    1    2  504  501 -0.13619928657E+03  0.99952106489E+02  0.18348560264E+03  0.24941458584E+03  0.00000000000E+00 0. -1.
         21    1    1    2  505  502  0.23152922547E+03 -0.60872810889E+02 -0.51647372840E+03  0.56925951329E+03  0.00000000000E+00 0.  1.
          1    1    1    2  501    0 -0.22824964096E+02 -0.19471031004E+02 -0.82065539717E+03  0.82120361723E+03  0.00000000000E+00 0.  1.
<scales pt_clust_3="77.40340" pt_clust_4="219.45731" pt_clust_5="14000.00000" pt_clust_6="30.00167"></scales>
<clustering>
<clus scale="   30.002">  2  6  1 -1</clus>
<clus scale="   77.403">  1  3  2 -1</clus>
<clus scale="  219.457">  1  4  2 -1</clus>
<clus scale="   77.403">  1  3  2 -1</clus>
</clustering>
</event>
<event>
 6    0  0.3584505E+002  0.1903283E+03  0.7546771E-02  0.1158166E+00
         21   -1    0    0  505  502  0.00000000000E+00  0.00000000000E+00  0.22888909775E+03  0.22888909775E+03  0.00000000000E+00 0. -1.
          3   -1    0    0  504    0 -0.00000000000E+00 -0.00000000000E+00 -0.17499984765E+04  0.17499984765E+04  0.00000000000E+00 0. -1.
         21    1    1    2  503  501  0.24652347985E+02 -0.11881775208E+03  0.61371488430E+02  0.13598476408E+03  0.00000000000E+00 0. -1.
         21    1    1    2  504  502  0.14722261083E+03  0.15312835737E+03 -0.43299067197E+03  0.48229007141E+03  0.00000000000E+00 0. -1.
         21    1    1    2  505  503  0.25051772182E+02 -0.23849084383E+02  0.94737398674E+02  0.10085407688E+03  0.00000000000E+00 0. -1.
          3    1    1    2  501    0 -0.19692673100E+03 -0.10461520904E+02 -0.12442275939E+04  0.12597586619E+04  0.00000000000E+00 0. -1.
<scales pt_clust_3="143.52366" pt_clust_4="190.32828" pt_clust_5="34.58858" pt_clust_6="14000.00000"></scales>
<clustering>
<clus scale="   34.589">  1  5  2 -1</clus>
<clus scale="  143.524">  1  3  2 -1</clus>
<clus scale="  190.328">  1  4  2 -1</clus>
<clus scale="   34.589">  1  3  2 -1</clus>
</clustering>
</event>
<event>
 6    0  0.3584505E+002  0.1434761E+03  0.7546771E-02  0.1208727E+00
         -4   -1    0    0    0  501 -0.00000000000E+00  0.00000000000E+00  0.11583746134E+03  0.11583746134E+03  0.00000000000E+00 0.  1.
         21   -1    0    0  503  502  0.00000000000E+00 -0.00000000000E+00 -0.56444918379E+03  0.56444918379E+03  0.00000000000E+00 0.  1.
         21    1    1    2  503  501 -0.96382943754E+02  0.17845558383E+03 -0.37294462711E+03  0.42452769301E+03  0.00000000000E+00 0.  1.
         21    1    1    2  504  505  0.16267403877E+02 -0.80044933017E+02 -0.13980722534E+02  0.82869055342E+02  0.00000000000E+00 0.  1.
         21    1    1    2  505  502  0.64352534659E+02 -0.55407356673E+02 -0.86147958029E+02  0.12096567514E+03  0.00000000000E+00 0. -1.
         -4    1    1    2    0  504  0.15763005218E+02 -0.43003294139E+02  0.24461585228E+02  0.51924221633E+02  0.00000000000E+00 0.  1.
<scales pt_clust_3="136.72170" pt_clust_4="32.57640" pt_clust_5="84.91893" pt_clust_6="32.57640"></scales>
<clustering>
<clus scale="   32.576">  4  6 -1 -1</clus>
<clus scale="   84.919">  2  5  1 -1</clus>
<clus scale="  136.722">  2  3  1 -1</clus>
<clus scale="   84.919">  2  3  1 -1</clus>
</clustering>
</event>
<event>
 6    0  0.3584505E+002  0.1077015E+03  0.7546771E-02  0.1264887E+00
         21   -1    0    0  501  502  0.00000000000E+00  0.00000000000E+00  0.20740541433E+03  0.20740541433E+03  0.00000000000E+00 0.  1.
          2   -1    0    0  503    0 -0.00000000000E+00 -0.00000000000E+00 -0.83474134212E+03  0.83474134212E+03  0.00000000000E+00 0. -1.
         21    1    1    2  503  505 -0.50863314000E+02 -0.12846220791E+03 -0.38541925567E+03  0.40943573148E+03  0.00000000000E+00 0.  1.
         21    1    1    2  504  502  0.10915737726E+03 -0.35396107596E+02  0.12444536962E+03  0.16927748658E+03  0.00000000000E+00 0.  1.
         21    1    1    2  505  504 -0.60385817933E+02  0.84764166096E+02 -0.17282232934E+02  0.10549922481E+03  0.00000000000E+00 0.  1.
          2    1    1    2  501    0  0.20917546714E+01  0.79094149412E+02 -0.34907980881E+03  0.35793431357E+03  0.00000000000E+00 0. -1.
<scales pt_clust_3="80.00799" pt_clust_4="107.70146" pt_clust_5="14000.00000" pt_clust_6="79.12180"></scales>
<clustering>
<clus scale="   79.122">  2  6  1 -1</clus>
<clus scale="   80.008">  2  3  1 -1</clus>
<clus scale="  107.701">  1  4  2 -1</clus>
<clus scale="  107.701">  1  3  2 -1</clus>
</clustering>
</event>
<event>
 6    0  0.3584505E+002  0.1253341E+03  0.7546771E-02  0.1234548E+00
         21   -1    0    0  505  502  0.00000000000E+00  0.00000000000E+00  0.40308623016E+03  0.40308623016E+03  0.00000000000E+00 0.  1.
          2   -1    0    0  504    0 -0.00000000000E+00 -0.00000000000E+00 -0.65712367099E+03  0.65712367099E+03  0.00000000000E+00 0.  1.
         21    1    1    2  503  501  0.71568357293E+02 -0.37455791450E+02  0.56677396856E+02  0.98677724908E+02  0.00000000000E+00 0.  1.
         21    1    1    2  504  502  0.29945010049E+02  0.46979420735E+02  0.71068891915E+02  0.90302585774E+02  0.00000000000E+00 0.  1.
         21    1    1    2  505  503  0.20510385368E+02  0.40223326443E+02  0.23562657482E+03  0.23991347328E+03  0.00000000000E+00 0.  1.
          2    1    1    2  501    0 -0.12202375271E+03 -0.49746955728E+02 -0.61741030442E+03  0.63131611720E+03  0.00000000000E+00 0.  1.
<scales pt_clust_3="125.33410" pt_clust_4="77.67555" pt_clust_5="45.15077" pt_clust_6="14000.00000"></scales>
<clustering>
<clus scale="   45.151">  1  5  2 -1</clus>
<clus scale="   77.676">  1  4  2 -1</clus>
<clus scale="  125.334">  1  3  2 -1</clus>
<clus scale="   45.151">  1  3  2 -1</clus>
</clustering>
</event>
<event>
 6    0  0.3584505E+002  0.8763633E+02  0.7546771E-02  0.1308679E+00
          1   -1    0    0  503    0 -0.00000000000E+00  0.00000000000E+00  0.22313891574E+04  0.22313891574E+04  0.00000000000E+00 0.  1.
         21   -1    0    0  505  502  0.00000000000E+00 -0.00000000000E+00 -0.66049261222E+03  0.66049261222E+03  0.00000000000E+00 0.  1.
         21    1    1    2  503  504  0.55978801247E+02 -0.91715317638E+02 -0.30265353525E+02  0.11163027055E+03  0.00000000000E+00 0. -1.
         21    1    1    2  504  502  0.20478875259E+02 -0.58227275203E+02 -0.57675411339E+03  0.58004750428E+03  0.00000000000E+00 0.  1.
         21    1    1    2  505  501 -0.51132617028E+02  0.66274172245E+02  0.16158996551E+03  0.18198386573E+03  0.00000000000E+00 0. -1.
          1    1    1    2  501    0 -0.25325059479E+02  0.83668420596E+02  0.20163260465E+04  0.20182201290E+04  0.00000000000E+00 0.  1.
<scales pt_clust_3="14000.00000" pt_clust_4="61.72358" pt_clust_5="76.46423" pt_clust_6="87.63633"></scales>
<clustering>
<clus scale="   61.724">  2  4  1 -1</clus>
<clus scale="   76.464">  2  5  1 -1</clus>
<clus scale="   87.636">  1  6  2 -1</clus>
<clus scale="   61.724">  2  3  1 -1</clus>
</clustering>
</event>
<event>
 6    0  0.3584505E+002  0.1100487E+03  0.7546771E-02  0.1260480E+00
          1   -1    0    0  505    0 -0.00000000000E+00  0.00000000000E+00  0.61241856062E+03  0.61241856062E+03  0.00000000000E+00 0. -1.
         21   -1    0    0  503  502  0.00000000000E+00 -0.00000000000E+00 -0.27843505670E+03  0.27843505670E+03  0.00000000000E+00 0. -1.
         21    1    1    2  503  504 -0.30754638981E+02  0.66947227473E+02 -0.13278956935E+03  0.15185798897E+03  0.00000000000E+00 0. -1.
         21    1    1    2  504  501 -0.82457538838E+02  0.71161003814E+01  0.19536508458E+03  0.21217304464E+03  0.00000000000E+00 0. -1.
         21    1    1    2  505  502  0.14285585027E+03 -0.44467566287E+02 -0.82221623627E+02  0.17072068943E+03  0.00000000000E+00 0. -1.
          1    1    1    2  501    0 -0.29643672449E+02 -0.29595761568E+02  0.35362961231E+03  0.35610189430E+03  0.00000000000E+00 0. -1.
<scales pt_clust_3="73.15045" pt_clust_4="14000.00000" pt_clust_5="110.04872" pt_clust_6="41.88862"></scales>
<clustering>
<clus scale="   41.889">  1  6  2 -1</clus>
<clus scale="   73.150">  2  3  1 -1</clus>
<clus scale="  110.049">  2  5  1 -1</clus>
<clus scale="   73.150">  2  3  1 -1</clus>
</clustering>
</event>
<event>
 6    0  0.3584505E+002  0.1075894E+03  0.7546771E-02  0.1265100E+00
         -2   -1    0    0    0  501 -0.00000000000E+00  0.00000000000E+00  0.94683141772E+03  0.94683141772E+03  0.00000000000E+00 0. -1.
         21   -1    0    0  501  502  0.00000000000E+00 -0.00000000000E+00 -0.11793605789E+04  0.11793605789E+04  0.00000000000E+00 0.  1.
         21    1    1    2  503  502  0.13693525202E+02 -0.27886353258E+02 -0.56137775051E+03  0.56223672959E+03  0.00000000000E+00 0.  1.
         21    1    1    2  504  505 -0.12541657809E+02  0.76125919642E+02 -0.54851685468E+02  0.94663383737E+02  0.00000000000E+00 0. -1.
         21    1    1    2  505  503  0.17199087675E+02 -0.93352870614E+02 -0.53799789016E+03  0.54630787737E+03  0.00000000000E+00 0.  1.
         -2    1    1    2    0  504 -0.18350955067E+02  0.45113304230E+02  0.92169816499E+03  0.92298400588E+03  0.00000000000E+00 0. -1.
<scales pt_clust_3="31.06705" pt_clust_4="14000.00000" pt_clust_5="107.58945" pt_clust_6="48.67059"></scales>
<clustering>
<clus scale="   31.067">  2  3  1 -1</clus>
<clus scale="   48.671">  1  6  2 -1</clus>
<clus scale="  107.589">  2  5  1 -1</clus>
<clus scale="   31.067">  2  3  1 -1</clus>
</clustering>
</event>
<event>
 6    0  0.3584505E+002  0.2018533E+03  0.7546771E-02  0.1148185E+00
          1   -1    0    0  503    0 -0.00000000000E+00  0.00000000000E+00  0.11350277677E+04  0.11350277677E+04  0.00000000000E+00 0.  1.
         21   -1    0    0  505  502  0.00000000000E+00 -0.00000000000E+00 -0.19503081861E+03  0.19503081861E+03  0.00000000000E+00 0.  1.
         21    1    1    2  503  502  0.25332489264E+03  0.11588112016E+02  0.45716536079E+03  0.52278863097E+03  0.00000000000E+00 0.  1.
         21    1    1    2  504  501 -0.16247129987E+03 -0.30588483220E+02  0.24741222930E+02  0.16716670332E+03  0.00000000000E+00 0.  1.
         21    1    1    2  505  504 -0.40170546601E+02  0.40858924492E+02 -0.80434897632E+02  0.98756758158E+02  0.00000000000E+00 0.  1.
          1    1    1    2  501    0 -0.50683046162E+02 -0.21858553288E+02  0.53852526305E+03  0.54134649391E+03  0.00000000000E+00 0.  1.
<scales pt_clust_3="201.85326" pt_clust_4="14000.00000" pt_clust_5="57.61105" pt_clust_6="55.19572"></scales>
<clustering>
<clus scale="   55.196">  1  6  2 -1</clus>
<clus scale="   57.611">  2  5  1 -1</clus>
<clus scale="  201.853">  1  3  2 -1</clus>
<clus scale="   57.611">  2  3  1 -1</clus>
</clustering>
</event>
<event>
 6    0  0.3584505E+002  0.1669481E+03  0.7546771E-02  0.1181068E+00
          2   -1    0    0  505    0 -0.00000000000E+00  0.00000000000E+00  0.33056336540E+04  0.33056336540E+04  0.00000000000E+00 0. -1.
         21   -1    0    0  504  502  0.00000000000E+00 -0.00000000000E+00 -0.56488242545E+02  0.56488242545E+02  0.00000000000E+00 0. -1.
         21    1    1    2  503  501  0.11486647028E+03 -0.15519523725E+02  0.74016333884E+02  0.13752664939E+03  0.00000000000E+00 0. -1.
         21    1    1    2  504  503  0.42735605976E+02  0.23151690652E+02  0.78999078456E+01  0.49241662666E+02  0.00000000000E+00 0. -1.
         21    1    1    2  505  502 -0.20059060940E+02 -0.42277828131E+02  0.23055333086E+03  0.23525437094E+03  0.00000000000E+00 0.  1.
          2    1    1    2  501    0 -0.13754301532E+03  0.34645661205E+02  0.29366758389E+04  0.29400992135E+04  0.00000000000E+00 0. -1.
<scales pt_clust_3="37.06049" pt_clust_4="37.06049" pt_clust_5="46.79509" pt_clust_6="156.83176"></scales>
<clustering>
<clus scale="   37.060">  3  4 -1 -1</clus>
<clus scale="   46.795">  1  5  2 -1</clus>
<clus scale="  156.832">  1  6  2 -1</clus>
<clus scale="  166.948">  2  3  1 -1</clus>
</clustering>
</event>
<event>
 6    0  0.3584505E+002  0.2084619E+03  0.7546771E-02  0.1142790E+00
          2   -1    0    0  504    0 -0.00000000000E+00  0.00000000000E+00  0.23824159286E+04  0.23824159286E+04  0.00000000000E+00 0. -1.
         21   -1    0    0  503  502  0.00000000000E+00 -0.00000000000E+00 -0.11990414534E+03  0.11990414534E+03  0.00000000000E+00 0. -1.
         21    1    1    2  503  505 -0.20459290296E+03  0.22608481428E+02  0.21961400805E+02  0.20700652767E+03  0.00000000000E+00 0. -1.
         21    1    1    2  504  502  0.22686033450E+03  0.18451720301E+02  0.66367924047E+03  0.70162398162E+03  0.00000000000E+00 0. -1.
         21    1    1    2  505  501 -0.53054535353E+02 -0.17061711585E+02  0.87077497472E+02  0.10338460374E+03  0.00000000000E+00 0. -1.
          2    1    1    2  501    0  0.30787103815E+02 -0.23998490145E+02  0.14897936445E+04  0.14903049609E+04  0.00000000000E+00 0. -1.
<scales pt_clust_3="208.46185" pt_clust_4="14000.00000" pt_clust_5="53.49774" pt_clust_6="39.03554"></scales>
<clustering>
<clus scale="   39.036">  1  6  2 -1</clus>
<clus scale="   53.498">  1  5  2 -1</clus>
<clus scale="  208.462">  2  3  1 -1</clus>
<clus scale="  208.462">  2  3  1 -1</clus>
</clustering>
</event>
<event>
 6    0  0.3584505E+002  0.1457547E+03  0.7546771E-02  0.1205789E+00
          2   -1    0    0  504    0 -0.00000000000E+00  0.00000000000E+00  0.12450550342E+04  0.12450550342E+04  0.00000000000E+00 0. -1.
         21   -1    0    0  503  502  0.00000000000E+00 -0.00000000000E+00 -0.50765574011E+02  0.50765574011E+02  0.00000000000E+00 0. -1.
         21    1    1    2  503  501  0.44348824594E+02 -0.43348994296E+01  0.19541366733E+03  0.20042981558E+03  0.00000000000E+00 0.  1.
         21    1    1    2  504  505 -0.10667201653E+03 -0.24568361272E+02  0.19494908734E+03  0.22357922565E+03  0.00000000000E+00 0. -1.
         21    1    1    2  505  502 -0.21740948120E+02 -0.33511175172E+02 -0.17591827740E+02  0.43647910486E+02  0.00000000000E+00 0. -1.
          2    1    1    2  501    0  0.84064140054E+02  0.62414435873E+02  0.82151853325E+03  0.82816365649E+03  0.00000000000E+00 0. -1.
<scales pt_clust_3="41.48306" pt_clust_4="131.35499" pt_clust_5="39.94581" pt_clust_6="41.48306"></scales>
<clustering>
<clus scale="   39.946">  2  5  1 -1</clus>
<clus scale="   41.483">  3  6 -1 -1</clus>
<clus scale="  131.355">  2  4  1 -1</clus>
<clus scale="   39.946">  2  3  1 -1</clus>
</clustering>
</event>
<event>
 6    0  0.3584505E+002  0.9202870E+02  0.7546771E-02  0.1298012E+00
          1   -1    0    0  505    0 -0.00000000000E+00  0.00000000000E+00  0.12124013055E+04  0.12124013055E+04  0.00000000000E+00 0.  1.
         21   -1    0    0  503  502  0.00000000000E+00 -0.00000000000E+00 -0.86678363151E+03  0.86678363151E+03  0.00000000000E+00 0. -1.
         21    1    1    2  503  501 -0.26972982082E+02 -0.90564383652E+02 -0.68599555641E+03  0.69247335888E+03  0.00000000000E+00 0. -1.
         21    1    1    2  504  502  0.83533207386E+02  0.55269375548E+02 -0.15715453288E+03  0.18635999521E+03  0.00000000000E+00 0. -1.
         21    1    1    2  505  504 -0.56968729336E+02  0.70057881985E+02  0.37046696430E+03  0.38131262055E+03  0.00000000000E+00 0. -1.
          1    1    1    2  501    0  0.40850403235E+00 -0.34762873880E+02  0.81830079898E+03  0.81903896238E+03  0.00000000000E+00 0.  1.
<scales pt_clust_3="92.02870" pt_clust_4="14000.00000" pt_clust_5="67.53199" pt_clust_6="34.76527"></scales>
<clustering>
<clus scale="   34.765">  1  6  2 -1</clus>
<clus scale="   67.532">  1  5  2 -1</clus>
<clus scale="   92.029">  2  3  1 -1</clus>
<clus scale="   92.029">  2  3  1 -1</clus>
</clustering>
</event>
<event>
 6    0  0.3584505E+002  0.1303186E+03  0.7546771E-02  0.1226984E+00
         21   -1    0    0  501  502  0.00000000000E+00  0.00000000000E+00  0.13619235148E+04  0.13619235148E+04  0.00000000000E+00 0. -1.
         -1   -1    0    0    0  501 -0.00000000000E+00 -0.00000000000E+00 -0.52842613865E+02  0.52842613865E+02  0.00000000000E+00 0. -1.
         21    1    1    2  503  502 -0.67179124796E+02  0.59470324459E+02  0.10668570135E+04  0.10706230156E+04  0.00000000000E+00 0. -1.
         21    1    1    2  504  503 -0.27204241922E+02  0.22956973154E+02  0.18371519719E+03  0.18713195097E+03  0.00000000000E+00 0. -1.
         21    1    1    2  505  504  0.66558625284E+02 -0.67364747374E+02  0.75485917404E+02  0.12110401940E+03  0.00000000000E+00 0. -1.
         -1    1    1    2    0  505  0.27824741434E+02 -0.15062550239E+02 -0.16977227143E+02  0.35907142703E+02  0.00000000000E+00 0. -1.
<scales pt_clust_3="30.30115" pt_clust_4="30.30115" pt_clust_5="121.11443" pt_clust_6="31.64011"></scales>
<clustering>
<clus scale="   30.301">  3  4 -1 -1</clus>
<clus scale="   31.640">  2  6  1 -1</clus>
<clus scale="  121.114">  2  5  1 -1</clus>
<clus scale="  130.319">  1  3  2 -1</clus>
</clustering>
</event>
<event>
 6    0  0.3584505E+002  0.1259706E+03  0.7546771E-02  0.1233560E+00
         21   -1    0    0  505  502  0.00000000000E+00  0.00000000000E+00  0.13864936435E+04  0.13864936435E+04  0.00000000000E+00 0.  1.
         -1   -1    0    0    0  501 -0.00000000000E+00 -0.00000000000E+00 -0.59279667064E+03  0.59279667064E+03  0.00000000000E+00 0. -1.
         21    1    1    2  503  502  0.55303480430E+02 -0.78587752065E+02  0.66666615761E+03  0.67355643819E+03  0.00000000000E+00 0. -1.
         21    1    1    2  504  503 -0.15740703929E+03 -0.34378364561E+02  0.29700665017E+03  0.33789317575E+03  0.00000000000E+00 0.  1.
         21    1    1    2  505  501  0.80324627451E+02  0.65716649539E+02  0.39095847454E+03  0.40449876714E+03  0.00000000000E+00 0.  1.
         -1    1    1    2    0  504  0.21778931414E+02  0.47249467087E+02 -0.56093430947E+03  0.56334193305E+03  0.00000000000E+00 0. -1.
<scales pt_clust_3="93.29984" pt_clust_4="14000.00000" pt_clust_5="125.97059" pt_clust_6="52.02724"></scales>
<clustering>
<clus scale="   52.027">  2  6  1 -1</clus>
<clus scale="   93.300">  1  3  2 -1</clus>
<clus scale="  125.971">  1  5  2 -1</clus>
<clus scale="   93.300">  1  3  2 -1</clus>
</clustering>
</event>
<event>
 6    0  0.3584505E+002  0.6919408E+02  0.7546771E-02  0.1362855E+00
         21   -1    0    0  503  502  0.00000000000E+00  0.00000000000E+00  0.53542326607E+02  0.53542326607E+02  0.00000000000E+00 0. -1.
          2   -1    0    0  505    0 -0.00000000000E+00 -0.00000000000E+00 -0.66756208477E+03  0.66756208477E+03  0.00000000000E+00 0. -1.
         21    1    1    2  503  501 -0.64772094225E+02 -0.79999611537E+01  0.45421841281E+01  0.65422129325E+02  0.00000000000E+00 0. -1.
         21    1    1    2  504  502  0.10418173421E+03 -0.14888879618E+02 -0.24446978284E+03  0.26615970244E+03  0.00000000000E+00 0. -1.
         21    1    1    2  505  504  0.23182233063E+02  0.33989754946E+02 -0.19999137737E+03  0.20417950532E+03  0.00000000000E+00 0. -1.
          2    1    1    2  501    0 -0.62591873048E+02 -0.11100914174E+02 -0.17410078209E+03  0.18534307430E+03  0.00000000000E+00 0. -1.
<scales pt_clust_3="69.19408" pt_clust_4="14000.00000" pt_clust_5="41.14267" pt_clust_6="53.67926"></scales>
<clustering>
<clus scale="   41.143">  2  5  1 -1</clus>
<clus scale="   53.679">  2  6  1 -1</clus>
<clus scale="   69.194">  1  3  2 -1</clus>
<clus scale="   69.194">  1  3  2 -1</clus>
</clustering>
</event>
<event>
 6    0  0.3584505E+002  0.7243129E+02  0.7546771E-02  0.1352015E+00
         21   -1    0    0  504  502  0.00000000000E+00  0.00000000000E+00  0.18484873185E+03  0.18484873185E+03  0.00000000000E+00 0.  1.
          1   -1    0    0  505    0 -0.00000000000E+00 -0.00000000000E+00 -0.23520178809E+04  0.23520178809E+04  0.00000000000E+00 0. -1.
         21    1    1    2  503  502  0.34521455930E+02  0.42146417366E+02  0.15823444101E+03  0.16735049967E+03  0.00000000000E+00 0.  1.
         21    1    1    2  504  501  0.69867698124E+02 -0.59113706284E+02 -0.19663816508E+03  0.21689281565E+03  0.00000000000E+00 0.  1.
         21    1    1    2  505  503 -0.54577251834E+02  0.32192709846E+02 -0.74941787072E+02  0.98139280793E+02  0.00000000000E+00 0.  1.
          1    1    1    2  501    0 -0.49811902220E+02 -0.15225420928E+02 -0.20538236379E+04  0.20544840166E+04  0.00000000000E+00 0. -1.
<scales pt_clust_3="53.81840" pt_clust_4="72.43129" pt_clust_5="14000.00000" pt_clust_6="52.08684"></scales>
<clustering>
<clus scale="   52.087">  2  6  1 -1</clus>
<clus scale="   53.818">  1  3  2 -1</clus>
<clus scale="   72.431">  2  4  1 -1</clus>
<clus scale="   53.818">  1  3  2 -1</clus>
</clustering>
</event>
<event>
 6    0  0.3584505E+002  0.1017373E+03  0.7546771E-02  0.1276685E+00
          2   -1    0    0  505    0 -0.00000000000E+00  0.00000000000E+00  0.20115880559E+04  0.20115880559E+04  0.00000000000E+00 0. -1.
         21   -1    0    0  504  502  0.00000000000E+00 -0.00000000000E+00 -0.17148017521E+03  0.17148017521E+03  0.00000000000E+00 0.  1.
         21    1    1    2  503  501  0.53897559738E+02  0.80651656982E+02 -0.17539049276E+02  0.98576137930E+02  0.00000000000E+00 0.  1.
         21    1    1    2  504  503 -0.10271252225E+03 -0.57012926912E+01 -0.77111670251E+02  0.12856351214E+03  0.00000000000E+00 0.  1.
         21    1    1    2  505  502  0.40896590763E+02  0.27081880134E+02  0.56242612113E+02  0.74627011095E+02  0.00000000000E+00 0. -1.
          2    1    1    2  501    0  0.79183717518E+01 -0.10203224442E+03  0.18785159881E+04  0.18813015699E+04  0.00000000000E+00 0. -1.
<scales pt_clust_3="101.73729" pt_clust_4="77.64775" pt_clust_5="49.05058" pt_clust_6="14000.00000"></scales>
<clustering>
<clus scale="   49.051">  2  5  1 -1</clus>
<clus scale="   77.648">  2  4  1 -1</clus>
<clus scale="  101.737">  2  3  1 -1</clus>
<clus scale="   49.051">  2  3  1 -1</clus>
</clustering>
</event>
<event>
 6    0  0.3584505E+002  0.6136078E+02  0.7546771E-02  0.1392208E+00
          1   -1    0    0  505    0 -0.00000000000E+00  0.00000000000E+00  0.16833672257E+04  0.16833672257E+04  0.00000000000E+00 0.  1.
         21   -1    0    0  503  502  0.00000000000E+00 -0.00000000000E+00 -0.17141427173E+03  0.17141427173E+03  0.00000000000E+00 0.  1.
         21    1    1    2  503  501  0.48596923310E+02 -0.81579780363E+02  0.25084607217E+03  0.26821758600E+03  0.00000000000E+00 0.  1.
         21    1    1    2  504  502 -0.56033754312E+01  0.60536386441E+02 -0.14924450204E+03  0.16115201919E+03  0.00000000000E+00 0.  1.
         21    1    1    2  505  504 -0.39545591438E+02  0.57644165608E+02  0.16101812252E+03  0.17553785749E+03  0.00000000000E+00 0.  1.
          1    1    1    2  501    0 -0.34479564415E+01 -0.36600771686E+02  0.12493332614E+04  0.12498740348E+04  0.00000000000E+00 0.  1.
<scales pt_clust_3="14000.00000" pt_clust_4="61.36078" pt_clust_5="59.65653" pt_clust_6="36.76282"></scales>
<clustering>
<clus scale="   36.763">  1  6  2 -1</clus>
<clus scale="   59.657">  1  5  2 -1</clus>
<clus scale="   61.361">  2  4  1 -1</clus>
<clus scale="   61.361">  2  3  1 -1</clus>
</clustering>
</event>
<event>
 6    0  0.3584505E+002  0.1260037E+03  0.7546771E-02  0.1233509E+00
          2   -1    0    0  502    0 -0.00000000000E+00  0.00000000000E+00  0.25364371759E+04  0.25364371759E+04  0.00000000000E+00 0.  1.
         21   -1    0    0  503  502  0.00000000000E+00 -0.00000000000E+00 -0.23943058641E+03  0.23943058641E+03  0.00000000000E+00 0. -1.
         21    1    1    2  503  505  0.38934690372E+02  0.39674977047E+02 -0.15213852164E+03  0.16197575029E+03  0.00000000000E+00 0. -1.
         21    1    1    2  504  501 -0.44428484801E+02  0.39175311206E+02  0.81514561044E+03  0.81729490485E+03  0.00000000000E+00 0. -1.
         21    1    1    2  505  504  0.60626448188E+02 -0.10071251613E+03 -0.38003236368E+02  0.12354279866E+03  0.00000000000E+00 0. -1.
          2    1    1    2  501    0 -0.55132653760E+02  0.21862227880E+02  0.16720027371E+04  0.16730543086E+04  0.00000000000E+00 0.  1.
<scales pt_clust_3="55.58789" pt_clust_4="47.86829" pt_clust_5="116.54459" pt_clust_6="47.86829"></scales>
<clustering>
<clus scale="   47.868">  4  6 -1 -1</clus>
<clus scale="   55.588">  2  3  1 -1</clus>
<clus scale="  116.545">  2  5  1 -1</clus>
<clus scale="   55.588">  2  3  1 -1</clus>
</clustering>
</event>
<event>
 6    0  0.3584505E+002  0.1059538E+03  0.7546771E-02  0.1268252E+00
         21   -1    0    0  503  502  0.00000000000E+00  0.00000000000E+00  0.17052066292E+03  0.17052066292E+03  0.00000000000E+00 0.  1.
          2   -1    0    0  504    0 -0.00000000000E+00 -0.00000000000E+00 -0.10357625772E+04  0.10357625772E+04  0.00000000000E+00 0. -1.
         21    1    1    2  503  505 -0.83992451857E+02  0.11074005182E+03  0.46703843910E+02  0.14662653267E+03  0.00000000000E+00 0.  1.
         21    1    1    2  504  502  0.25503094402E+02 -0.85050107195E+02  0.35344533027E+02  0.95567591645E+02  0.00000000000E+00 0.  1.
         21    1    1    2  505  501  0.67784048377E+02  0.10125758655E+02 -0.13925288459E+03  0.15520494215E+03  0.00000000000E+00 0. -1.
          2    1    1    2  501    0 -0.92946909219E+01 -0.35815703278E+02 -0.80803740663E+03  0.80888417366E+03  0.00000000000E+00 0. -1.
<scales pt_clust_3="14000.00000" pt_clust_4="105.95384" pt_clust_5="63.13201" pt_clust_6="37.00211"></scales>
<clustering>
<clus scale="   37.002">  2  6  1 -1</clus>
<clus scale="   63.132">  2  5  1 -1</clus>
<clus scale="  105.954">  1  4  2 -1</clus>
<clus scale="  105.954">  1  3  2 -1</clus>
</clustering>
</event>
