<event>
 5    0  0.6295173E-005  0.2641379E+03  0.7546771E-02  0.1104682E+00
         21   -1    0    0  502  501  0.00000000000E+00  0.00000000000E+00  0.18634144986E+03  0.18634144986E+03  0.00000000000E+00 0.  1.
         21   -1    0    0  501  502 -0.00000000000E+00 -0.00000000000E+00 -0.37441391592E+03  0.37441391592E+03  0.00000000000E+00 0.  1.
         25    1    1    2    0    0 -0.79228175596E+02 -0.44444103861E+02 -0.11151891815E+03  0.19056193555E+03  0.12500000000E+03 0.  0.
         25    1    1    2    0    0  0.56033984766E+02 -0.56664468466E+01 -0.15950817228E+03  0.21033252980E+03  0.12500000000E+03 0.  0.
         25    1    1    2    0    0  0.23194190830E+02  0.50110550708E+02  0.82954624373E+02  0.15986090043E+03  0.12500000000E+03 0.  0.
</event>
<event>
 5    0  0.5660959E-005  0.3179637E+03  0.7546771E-02  0.1076590E+00
         21   -1    0    0  502  501  0.00000000000E+00  0.00000000000E+00  0.19218770332E+04  0.19218770332E+04  0.00000000000E+00 0.  1.
         21   -1    0    0  501  502 -0.00000000000E+00 -0.00000000000E+00 -0.52605303327E+02  0.52605303327E+02  0.00000000000E+00 0.  1.
         25    1    1    2    0    0  0.82913231407E+02  0.37962657068E+02  0.64726619527E+03  0.66550303892E+03  0.12500000000E+03 0.  0.
         25    1    1    2    0    0 -0.22593113716E+02  0.21427488663E+02  0.11186033436E+04  0.11259964593E+04  0.12500000000E+03 0.  0.
         25    1    1    2    0    0 -0.60320117690E+02 -0.59390145730E+02  0.10340219100E+03  0.18298283830E+03  0.12500000000E+03 0.  0.
</event>
<event>
 5    0  0.5660959E-005  0.3401063E+03  0.7546771E-02  0.1066751E+00
         21   -1    0    0  502  501  0.00000000000E+00  0.00000000000E+00  0.25388165766E+03  0.25388165766E+03  0.00000000000E+00 0. -1.
         21   -1    0    0  501  502 -0.00000000000E+00 -0.00000000000E+00 -0.45561491257E+03  0.45561491257E+03  0.00000000000E+00 0. -1.
         25    1    1    2    0    0 -0.41309492623E+02 -0.11765920420E+03  0.13404506864E+01  0.17656998420E+03  0.12500000000E+03 0.  0.
         25    1    1    2    0    0  0.11440369657E+03  0.23158963414E+03 -0.45622280778E+02  0.29056558112E+03  0.12500000000E+03 0.  0.
         25    1    1    2    0    0 -0.73094203951E+02 -0.11393042994E+03 -0.15745142482E+03  0.24236100490E+03  0.12500000000E+03 0.  0.
</event>
<event>
 5    0  0.5660959E-005  0.2681014E+03  0.7546771E-02  0.1102371E+00
         21   -1    0    0  502  501  0.00000000000E+00  0.00000000000E+00  0.73367024133E+03  0.73367024133E+03  0.00000000000E+00 0.  1.
         21   -1    0    0  501  502 -0.00000000000E+00 -0.00000000000E+00 -0.97970935678E+02  0.97970935678E+02  0.00000000000E+00 0.  1.
         25    1    1    2    0    0 -0.25847779289E+02 -0.57249609576E+02  0.13158003011E+03  0.19205189354E+03  0.12500000000E+03 0.  0.
         25    1    1    2    0    0  0.63104251202E+02 -0.36598134429E+02  0.44570364274E+03  0.46861317428E+03  0.12500000000E+03 0.  0.
         25    1    1    2    0    0 -0.37256471913E+02  0.93847744005E+02  0.58415632809E+02  0.17097610918E+03  0.12500000000E+03 0.  0.
</event>
<event>
 5    0  0.5660959E-005  0.2280865E+03  0.7546771E-02  0.1127994E+00
         21   -1    0    0  502  501  0.00000000000E+00  0.00000000000E+00  0.13265727573E+03  0.13265727573E+03  0.00000000000E+00 0.  1.
         21   -1    0    0  501  502 -0.00000000000E+00 -0.00000000000E+00 -0.39216432826E+03  0.39216432826E+03  0.00000000000E+00 0.  1.
         25    1    1    2    0    0 -0.89577819604E+01 -0.93748615991E+00  0.17120306569E+02  0.12648804542E+03  0.12500000000E+03 0.  0.
         25    1    1    2    0    0  0.64261054424E+02 -0.87659825301E+01 -0.18894160340E+03  0.23564858383E+03  0.12500000000E+03 0.  0.
         25    1    1    2    0    0 -0.55303272464E+02  0.97034686901E+01 -0.87685755700E+02  0.16268497473E+03  0.12500000000E+03 0.  0.
</event>
<event>
 5    0  0.5660959E-005  0.2841957E+03  0.7546771E-02  0.1093419E+00
         21   -1    0    0  502  501  0.00000000000E+00  0.00000000000E+00  0.15206431363E+04  0.15206431363E+04  0.00000000000E+00 0. -1.
         21   -1    0    0  501  502 -0.00000000000E+00 -0.00000000000E+00 -0.53113825652E+02  0.53113825652E+02  0.00000000000E+00 0. -1.
         25    1    1    2    0    0  0.77147346671E+02  0.17329325623E+03  0.74756983554E+03  0.78132446830E+03  0.12500000000E+03 0.  0.
         25    1    1    2    0    0 -0.84642031121E+02 -0.80676322813E+02  0.31405255427E+03  0.35766877043E+03  0.12500000000E+03 0.  0.
         25    1    1    2    0    0  0.74946844495E+01 -0.92616933416E+02  0.40590692083E+03  0.43476372322E+03  0.12500000000E+03 0.  0.
</event>
<event>
 5    0  0.5781866E-005  0.2859568E+03  0.7546771E-02  0.1092479E+00
         21   -1    0    0  502  501  0.00000000000E+00  0.00000000000E+00  0.21037380566E+03  0.21037380566E+03  0.00000000000E+00 0.  1.
         21   -1    0    0  501  502 -0.00000000000E+00 -0.00000000000E+00 -0.38869520165E+03  0.38869520165E+03  0.00000000000E+00 0.  1.
         25    1    1    2    0    0 -0.48020507160E+02  0.10939962094E+03 -0.50812153299E+02  0.18022519550E+03  0.12500000000E+03 0.  0.
         25    1    1    2    0    0 -0.25645687564E+02 -0.16067652790E+03 -0.16165749874E+03  0.26121407850E+03  0.12500000000E+03 0.  0.
         25    1    1    2    0    0  0.73666194724E+02  0.51276906958E+02  0.34148256039E+02  0.15762973331E+03  0.12500000000E+03 0.  0.
</event>
<event>
 5    0  0.5660959E-005  0.3198965E+03  0.7546771E-02  0.1075697E+00
         21   -1    0    0  502  501  0.00000000000E+00  0.00000000000E+00  0.84476433660E+03  0.84476433660E+03  0.00000000000E+00 0. -1.
         21   -1    0    0  501  502 -0.00000000000E+00 -0.00000000000E+00 -0.12113880303E+03  0.12113880303E+03  0.00000000000E+00 0. -1.
         25    1    1    2    0    0  0.13216686135E+03 -0.17565587549E+02  0.63928362181E+03  0.66489486253E+03  0.12500000000E+03 0.  0.
         25    1    1    2    0    0 -0.57878550959E+02 -0.89722772952E+01  0.62729275401E+02  0.15162582370E+03  0.12500000000E+03 0.  0.
         25    1    1    2    0    0 -0.74288310389E+02  0.26537864844E+02  0.21612636359E+02  0.14938245339E+03  0.12500000000E+03 0.  0.
</event>
<event>
 5    0  0.5660959E-005  0.2525152E+03  0.7546771E-02  0.1111726E+00
         21   -1    0    0  502  501  0.00000000000E+00  0.00000000000E+00  0.75173231444E+03  0.75173231444E+03  0.00000000000E+00 0.  1.
         21   -1    0    0  501  502 -0.00000000000E+00 -0.00000000000E+00 -0.84822615465E+02  0.84822615465E+02  0.00000000000E+00 0.  1.
         25    1    1    2    0    0 -0.98680336568E+02 -0.36622664429E+02  0.45238567101E+03  0.48099565873E+03  0.12500000000E+03 0.  0.
         25    1    1    2    0    0  0.55268412759E+02  0.49114179919E+02  0.14636170055E+03  0.20618813619E+03  0.12500000000E+03 0.  0.
         25    1    1    2    0    0  0.43411923809E+02 -0.12491515490E+02  0.68162327401E+02  0.14937113498E+03  0.12500000000E+03 0.  0.
</event>
<event>
 5    0  0.5660959E-005  0.2915175E+03  0.7546771E-02  0.1089559E+00
         21   -1    0    0  502  501  0.00000000000E+00  0.00000000000E+00  0.37902327830E+02  0.37902327830E+02  0.00000000000E+00 0.  1.
         21   -1    0    0  501  502 -0.00000000000E+00 -0.00000000000E+00 -0.22421433960E+04  0.22421433960E+04  0.00000000000E+00 0.  1.
         25    1    1    2    0    0  0.10195792493E+03  0.65337680094E+02 -0.86216985841E+03  0.87956028540E+03  0.12500000000E+03 0.  0.
         25    1    1    2    0    0 -0.18453939173E+03 -0.10323166568E+03 -0.80954835947E+03  0.84599356394E+03  0.12500000000E+03 0.  0.
         25    1    1    2    0    0  0.82581466791E+02  0.37893985590E+02 -0.53252285026E+03  0.55449187446E+03  0.12500000000E+03 0.  0.
</event>
<event>
 5    0  0.5660959E-005  0.3482166E+03  0.7546771E-02  0.1063349E+00
         21   -1    0    0  502  501  0.00000000000E+00  0.00000000000E+00  0.15728838170E+04  0.15728838170E+04  0.00000000000E+00 0. -1.
         21   -1    0    0  501  502 -0.00000000000E+00 -0.00000000000E+00 -0.77090732932E+02  0.77090732932E+02  0.00000000000E+00 0. -1.
         25    1    1    2    0    0 -0.15837944627E+03  0.53624224328E+02  0.51895869725E+03  0.55937709632E+03  0.12500000000E+03 0.  0.
         25    1    1    2    0    0  0.56310496885E+02 -0.16945774697E+02  0.89569048859E+03  0.90628057614E+03  0.12500000000E+03 0.  0.
         25    1    1    2    0    0  0.10206894939E+03 -0.36678449631E+02  0.81143898206E+02  0.18431687745E+03  0.12500000000E+03 0.  0.
</event>
<event>
 5    0  0.6354166E-005  0.3231864E+03  0.7546771E-02  0.1074192E+00
         21   -1    0    0  502  501  0.00000000000E+00  0.00000000000E+00  0.42168828715E+03  0.42168828715E+03  0.00000000000E+00 0.  1.
         21   -1    0    0  501  502 -0.00000000000E+00 -0.00000000000E+00 -0.24769353698E+03  0.24769353698E+03  0.00000000000E+00 0.  1.
         25    1    1    2    0    0  0.39106212014E+02  0.16497460747E+03  0.24995599728E+02  0.21212189169E+03  0.12500000000E+03 0.  0.
         25    1    1    2    0    0  0.26983095090E+02 -0.97219935274E+02  0.23018584308E+03  0.28069614459E+03  0.12500000000E+03 0.  0.
         25    1    1    2    0    0 -0.66089307104E+02 -0.67754672195E+02 -0.81186692638E+02  0.17656378785E+03  0.12500000000E+03 0.  0.
</event>
<event>
 5    0  0.6314364E-005  0.6035528E+03  0.7546771E-02  0.9898062E-01
         21   -1    0    0  502  501  0.00000000000E+00  0.00000000000E+00  0.39863255464E+03  0.39863255464E+03  0.00000000000E+00 0.  1.
         21   -1    0    0  501  502 -0.00000000000E+00 -0.00000000000E+00 -0.91381393012E+03  0.91381393012E+03  0.00000000000E+00 0.  1.
         25    1    1    2    0    0 -0.17275172870E+03 -0.39018010186E+03 -0.42177554288E+03  0.61286481398E+03  0.12500000000E+03 0.  0.
         25    1    1    2    0    0  0.33195245726E+03  0.31654166626E+03 -0.91761920846E+02  0.48418623532E+03  0.12500000000E+03 0.  0.
         25    1    1    2    0    0 -0.15920072856E+03  0.73638435595E+02 -0.16439117588E+01  0.21539543546E+03  0.12500000000E+03 0.  0.
</event>
<event>
 5    0  0.6125299E-005  0.2697110E+03  0.7546771E-02  0.1101445E+00
         21   -1    0    0  502  501  0.00000000000E+00  0.00000000000E+00  0.52059627254E+03  0.52059627254E+03  0.00000000000E+00 0.  1.
         21   -1    0    0  501  502 -0.00000000000E+00 -0.00000000000E+00 -0.13973211815E+03  0.13973211815E+03  0.00000000000E+00 0.  1.
         25    1    1    2    0    0  0.36817284859E+01 -0.22477778373E+02  0.61877606810E+01  0.12720885986E+03  0.12500000000E+03 0.  0.
         25    1    1    2    0    0  0.32639347622E+02  0.42049698964E+02  0.37776156607E+03  0.40145025220E+03  0.12500000000E+03 0.  0.
         25    1    1    2    0    0 -0.36321076108E+02 -0.19571920591E+02 -0.30851723541E+01  0.13166927863E+03  0.12500000000E+03 0.  0.
</event>
<event>
 5    0  0.5660959E-005  0.2706558E+03  0.7546771E-02  0.1100905E+00
         21   -1    0    0  502  501  0.00000000000E+00  0.00000000000E+00  0.33992106169E+03  0.33992106169E+03  0.00000000000E+00 0.  1.
         21   -1    0    0  501  502 -0.00000000000E+00 -0.00000000000E+00 -0.21550469904E+03  0.21550469904E+03  0.00000000000E+00 0.  1.
         25    1    1    2    0    0 -0.74450944167E+02 -0.61214813700E+02  0.15405639950E+03  0.22056421000E+03  0.12500000000E+03 0.  0.
         25    1    1    2    0    0 -0.50875738047E+02 -0.18401950208E+02 -0.35243803725E+02  0.14069150008E+03  0.12500000000E+03 0.  0.
         25    1    1    2    0    0  0.12532668221E+03  0.79616763908E+02  0.56037668700E+01  0.19417005066E+03  0.12500000000E+03 0.  0.
</event>
<event>
 5    0  0.5698842E-005  0.3009264E+03  0.7546771E-02  0.1084778E+00
         21   -1    0    0  502  501  0.00000000000E+00  0.00000000000E+00  0.35225223029E+03  0.35225223029E+03  0.00000000000E+00 0.  1.
         21   -1    0    0  501  502 -0.00000000000E+00 -0.00000000000E+00 -0.25707913897E+03  0.25707913897E+03  0.00000000000E+00 0.  1.
         25    1    1    2    0    0 -0.12153253850E+01  0.20622336276E+03  0.12595094743E+03  0.27206284848E+03  0.12500000000E+03 0.  0.
         25    1    1    2    0    0 -0.41332351824E+02 -0.91206908197E+02 -0.24660915058E+02  0.16205006677E+03  0.12500000000E+03 0.  0.
         25    1    1    2    0    0  0.42547677209E+02 -0.11501645456E+03 -0.61169410553E+01  0.17521845401E+03  0.12500000000E+03 0.  0.
</event>
<event>
 5    0  0.5660959E-005  0.3192322E+03  0.7546771E-02  0.1076003E+00
         21   -1    0    0  502  501  0.00000000000E+00  0.00000000000E+00  0.25662524190E+03  0.25662524190E+03  0.00000000000E+00 0.  1.
         21   -1    0    0  501  502 -0.00000000000E+00 -0.00000000000E+00 -0.39711282930E+03  0.39711282930E+03  0.00000000000E+00 0.  1.
         25    1    1    2    0    0  0.10966737396E+03  0.78896124875E+02 -0.46238919684E+02  0.18977504874E+03  0.12500000000E+03 0.  0.
         25    1    1    2    0    0  0.27381090947E+02  0.22750603054E+02 -0.19127502346E+03  0.23125407819E+03  0.12500000000E+03 0.  0.
         25    1    1    2    0    0 -0.13704846491E+03 -0.10164672793E+03  0.97026355742E+02  0.23270894426E+03  0.12500000000E+03 0.  0.
</event>
<event>
 5    0  0.5660959E-005  0.4165253E+03  0.7546771E-02  0.1038203E+00
         21   -1    0    0  502  501  0.00000000000E+00  0.00000000000E+00  0.23670544074E+03  0.23670544074E+03  0.00000000000E+00 0. -1.
         21   -1    0    0  501  502 -0.00000000000E+00 -0.00000000000E+00 -0.73295040179E+03  0.73295040179E+03  0.00000000000E+00 0. -1.
         25    1    1    2    0    0  0.72072279389E+02  0.10978237333E+02 -0.91832904103E+02  0.17138616463E+03  0.12500000000E+03 0.  0.
         25    1    1    2    0    0 -0.20752427476E+02  0.57971099325E+02 -0.56230396176E+03  0.57931170972E+03  0.12500000000E+03 0.  0.
         25    1    1    2    0    0 -0.51319851914E+02 -0.68949336658E+02  0.15789190481E+03  0.21895796818E+03  0.12500000000E+03 0.  0.
</event>
<event>
 5    0  0.5660959E-005  0.2230912E+03  0.7546771E-02  0.1131599E+00
         21   -1    0    0  502  501  0.00000000000E+00  0.00000000000E+00  0.18837239741E+04  0.18837239741E+04  0.00000000000E+00 0.  1.
         21   -1    0    0  501  502 -0.00000000000E+00 -0.00000000000E+00 -0.26420902247E+02  0.26420902247E+02  0.00000000000E+00 0.  1.
         25    1    1    2    0    0  0.64388113380E+02  0.87564141403E+02  0.88225977466E+03  0.89767511828E+03  0.12500000000E+03 0.  0.
         25    1    1    2    0    0 -0.35292585883E+02 -0.43121343735E+02  0.50007345384E+03  0.51846260824E+03  0.12500000000E+03 0.  0.
         25    1    1    2    0    0 -0.29095527497E+02 -0.44442797668E+02  0.47496984335E+03  0.49400714982E+03  0.12500000000E+03 0.  0.
</event>
<event>
 5    0  0.5660959E-005  0.2900842E+03  0.7546771E-02  0.1090305E+00
         21   -1    0    0  502  501  0.00000000000E+00  0.00000000000E+00  0.11116502419E+03  0.11116502419E+03  0.00000000000E+00 0. -1.
         21   -1    0    0  501  502 -0.00000000000E+00 -0.00000000000E+00 -0.75697244375E+03  0.75697244375E+03  0.00000000000E+00 0. -1.
         25    1    1    2    0    0 -0.15924724184E+03 -0.44489902820E+02 -0.35415735213E+03  0.41035529186E+03  0.12500000000E+03 0.  0.
         25    1    1    2    0    0  0.27888220050E+02 -0.46911739309E+02 -0.18066180746E+03  0.22636729617E+03  0.12500000000E+03 0.  0.
         25    1    1    2    0    0  0.13135902179E+03  0.91401642129E+02 -0.11098825998E+03  0.23141487991E+03  0.12500000000E+03 0.  0.
</event>
<event>
 5    0  0.5660959E-005  0.2790272E+03  0.7546771E-02  0.1096221E+00
         21   -1    0    0  502  501  0.00000000000E+00  0.00000000000E+00  0.14538327452E+03  0.14538327452E+03  0.00000000000E+00 0. -1.
         21   -1    0    0  501  502 -0.00000000000E+00 -0.00000000000E+00 -0.53552362962E+03  0.53552362962E+03  0.00000000000E+00 0. -1.
         25    1    1    2    0    0 -0.54367217341E+02  0.17263595912E+03 -0.13818315809E+03  0.25976634479E+03  0.12500000000E+03 0.  0.
         25    1    1    2    0    0 -0.23823560899E+02 -0.69868596010E+02 -0.56933406580E+02  0.15593458740E+03  0.12500000000E+03 0.  0.
         25    1    1    2    0    0  0.78190778240E+02 -0.10276736311E+03 -0.19502379043E+03  0.26520597195E+03  0.12500000000E+03 0.  0.
</event>
<event>
 5    0  0.5660959E-005  0.2999168E+03  0.7546771E-02  0.1085282E+00
         21   -1    0    0  502  501  0.00000000000E+00  0.00000000000E+00  0.24315811941E+03  0.24315811941E+03  0.00000000000E+00 0. -1.
         21   -1    0    0  501  502 -0.00000000000E+00 -0.00000000000E+00 -0.36992427453E+03  0.36992427453E+03  0.00000000000E+00 0. -1.
         25    1    1    2    0    0  0.13050907508E+03  0.16463859815E+03 -0.22639644882E+02  0.24551179239E+03  0.12500000000E+03 0.  0.
         25    1    1    2    0    0 -0.10809246408E+03 -0.13581818470E+03 -0.25421451454E+02  0.21541079426E+03  0.12500000000E+03 0.  0.
         25    1    1    2    0    0 -0.22416611000E+02 -0.28820413450E+02 -0.78705058777E+02  0.15215980730E+03  0.12500000000E+03 0.  0.
</event>
<event>
 5    0  0.5660959E-005  0.2748030E+03  0.7546771E-02  0.1098562E+00
         21   -1    0    0  502  501  0.00000000000E+00  0.00000000000E+00  0.17747654275E+03  0.17747654275E+03  0.00000000000E+00 0.  1.
         21   -1    0    0  501  502 -0.00000000000E+00 -0.00000000000E+00 -0.42550242669E+03  0.42550242669E+03  0.00000000000E+00 0.  1.
         25    1    1    2    0    0  0.83366117731E+01 -0.98113340977E+01 -0.25702844778E+03  0.28610205232E+03  0.12500000000E+03 0.  0.
         25    1    1    2    0    0  0.43700772932E+02  0.15623614480E+02  0.88237934102E+02  0.15988992432E+03  0.12500000000E+03 0.  0.
         25    1    1    2    0    0 -0.52037384705E+02 -0.58122803822E+01 -0.79235370252E+02  0.15698699280E+03  0.12500000000E+03 0.  0.
</event>
<event>
 5    0  0.5660959E-005  0.2559943E+03  0.7546771E-02  0.1109574E+00
         21   -1    0    0  502  501  0.00000000000E+00  0.00000000000E+00  0.23263554521E+02  0.23263554521E+02  0.00000000000E+00 0. -1.
         21   -1    0    0  501  502 -0.00000000000E+00 -0.00000000000E+00 -0.28169855928E+04  0.28169855928E+04  0.00000000000E+00 0. -1.
         25    1    1    2    0    0 -0.71997395078E+02 -0.94416487863E+02 -0.54777592529E+03  0.57426610766E+03  0.12500000000E+03 0.  0.
         25    1    1    2    0    0  0.90469838742E+02  0.60153890312E+02 -0.14368671085E+04  0.14463800917E+04  0.12500000000E+03 0.  0.
         25    1    1    2    0    0 -0.18472443664E+02  0.34262597551E+02 -0.80907900447E+03  0.81960294792E+03  0.12500000000E+03 0.  0.
</event>
<event>
 5    0  0.5660959E-005  0.4082641E+03  0.7546771E-02  0.1040955E+00
         21   -1    0    0  502  501  0.00000000000E+00  0.00000000000E+00  0.15612351444E+03  0.15612351444E+03  0.00000000000E+00 0.  1.
         21   -1    0    0  501  502 -0.00000000000E+00 -0.00000000000E+00 -0.10676135762E+04  0.10676135762E+04  0.00000000000E+00 0.  1.
         25    1    1    2    0    0 -0.55670067073E+02  0.33006884053E+02 -0.24586138788E+03  0.28330448781E+03  0.12500000000E+03 0.  0.
         25    1    1    2    0    0  0.15934726255E+03 -0.11642637723E+03  0.16602100747E+02  0.23419496396E+03  0.12500000000E+03 0.  0.
         25    1    1    2    0    0 -0.10367719547E+03  0.83419493179E+02 -0.68223077463E+03  0.70623763887E+03  0.12500000000E+03 0.  0.
</event>
<event>
 5    0  0.5660959E-005  0.4547462E+03  0.7546771E-02  0.1026316E+00
         21   -1    0    0  502  501  0.00000000000E+00  0.00000000000E+00  0.88008920499E+02  0.88008920499E+02  0.00000000000E+00 0.  1.
         21   -1    0    0  501  502 -0.00000000000E+00 -0.00000000000E+00 -0.23496944215E+04  0.23496944215E+04  0.00000000000E+00 0. -1.
         25    1    1    2    0    0  0.25858107456E+03  0.22267683604E+03 -0.98653113488E+03  0.10513409654E+04  0.12500000000E+03 0.  0.
         25    1    1    2    0    0 -0.32258988559E+03 -0.13863768263E+03 -0.77198201238E+03  0.85724317948E+03  0.12500000000E+03 0.  0.
         25    1    1    2    0    0  0.64008811033E+02 -0.84039153411E+02 -0.50317235374E+03  0.52911919712E+03  0.12500000000E+03 0.  0.
</event>
<event>
 5    0  0.5660959E-005  0.2851921E+03  0.7546771E-02  0.1092886E+00
         21   -1    0    0  502  501  0.00000000000E+00  0.00000000000E+00  0.36321187310E+03  0.36321187310E+03  0.00000000000E+00 0. -1.
         21   -1    0    0  501  502 -0.00000000000E+00 -0.00000000000E+00 -0.22393130329E+03  0.22393130329E+03  0.00000000000E+00 0. -1.
         25    1    1    2    0    0  0.38065430818E+02 -0.72369621976E+02 -0.12176947161E+03  0.19271518732E+03  0.12500000000E+03 0.  0.
         25    1    1    2    0    0 -0.57982373304E+02  0.10414520286E+02  0.19446807405E+03  0.23856497997E+03  0.12500000000E+03 0.  0.
         25    1    1    2    0    0  0.19916942485E+02  0.61955101690E+02  0.66581967376E+02  0.15586300909E+03  0.12500000000E+03 0.  0.
</event>
<event>
 5    0  0.5660959E-005  0.3950198E+03  0.7546771E-02  0.1045518E+00
         21   -1    0    0  502  501  0.00000000000E+00  0.00000000000E+00  0.11512277897E+04  0.11512277897E+04  0.00000000000E+00 0.  1.
         21   -1    0    0  501  502 -0.00000000000E+00 -0.00000000000E+00 -0.13554278016E+03  0.13554278016E+03  0.00000000000E+00 0.  1.
         25    1    1    2    0    0 -0.80295605528E+01 -0.43226060432E+02  0.34173838504E+03  0.36652842994E+03  0.12500000000E+03 0.  0.
         25    1    1    2    0    0  0.28295159338E+03  0.81544178407E+02  0.30601993187E+03  0.44270109095E+03  0.12500000000E+03 0.  0.
         25    1    1    2    0    0 -0.27492203282E+03 -0.38318117974E+02  0.36792669262E+03  0.47754104895E+03  0.12500000000E+03 0.  0.
</event>
<event>
 5    0  0.5660959E-005  0.1935318E+03  0.7546771E-02  0.1155314E+00
         21   -1    0    0  502  501  0.00000000000E+00  0.00000000000E+00  0.90708745911E+02  0.90708745911E+02  0.00000000000E+00 0. -1.
         21   -1    0    0  501  502 -0.00000000000E+00 -0.00000000000E+00 -0.41290992518E+03  0.41290992518E+03  0.00000000000E+00 0. -1.
         25    1    1    2    0    0  0.13334005880E+02  0.74939870861E+01 -0.12849341389E+03  0.17991529387E+03  0.12500000000E+03 0.  0.
         25    1    1    2    0    0 -0.52934399868E+01 -0.28219734489E+02 -0.68556687174E+02  0.14542830975E+03  0.12500000000E+03 0.  0.
         25    1    1    2    0    0 -0.80405658932E+01  0.20725747403E+02 -0.12515107821E+03  0.17827506747E+03  0.12500000000E+03 0.  0.
</event>
<event>
 5    0  0.6041404E-005  0.2805595E+03  0.7546771E-02  0.1095384E+00
         21   -1    0    0  502  501  0.00000000000E+00  0.00000000000E+00  0.11598819605E+03  0.11598819605E+03  0.00000000000E+00 0.  1.
         21   -1    0    0  501  502 -0.00000000000E+00 -0.00000000000E+00 -0.67863464618E+03  0.67863464618E+03  0.00000000000E+00 0. -1.
         25    1    1    2    0    0  0.13210330539E+02 -0.14258684235E+02 -0.34454390240E+03  0.36703313691E+03  0.12500000000E+03 0.  0.
         25    1    1    2    0    0  0.86043631182E+02 -0.80745944939E+02 -0.15487510388E+03  0.23137569426E+03  0.12500000000E+03 0.  0.
         25    1    1    2    0    0 -0.99253961721E+02  0.95004629174E+02 -0.63227443841E+02  0.19621401106E+03  0.12500000000E+03 0.  0.
</event>
<event>
 5    0  0.5660959E-005  0.3832276E+03  0.7546771E-02  0.1049747E+00
         21   -1    0    0  502  501  0.00000000000E+00  0.00000000000E+00  0.19497805239E+03  0.19497805239E+03  0.00000000000E+00 0. -1.
         21   -1    0    0  501  502 -0.00000000000E+00 -0.00000000000E+00 -0.75323036579E+03  0.75323036579E+03  0.00000000000E+00 0. -1.
         25    1    1    2    0    0 -0.19600380992E+03  0.19777972311E+03 -0.41870708173E+03  0.51814566742E+03  0.12500000000E+03 0.  0.
         25    1    1    2    0    0  0.32139518577E+02 -0.27772759074E+02 -0.79904028844E+01  0.13226156410E+03  0.12500000000E+03 0.  0.
         25    1    1    2    0    0  0.16386429134E+03 -0.17000696403E+03 -0.13155482879E+03  0.29780118666E+03  0.12500000000E+03 0.  0.
</event>
<event>
 5    0  0.5660959E-005  0.3464840E+03  0.7546771E-02  0.1064067E+00
         21   -1    0    0  502  501  0.00000000000E+00  0.00000000000E+00  0.13590150623E+04  0.13590150623E+04  0.00000000000E+00 0. -1.
         21   -1    0    0  501  502 -0.00000000000E+00 -0.00000000000E+00 -0.88336878385E+02  0.88336878385E+02  0.00000000000E+00 0. -1.
         25    1    1    2    0    0  0.37459230068E+02  0.30152895103E+02  0.23231077982E+03  0.26815236233E+03  0.12500000000E+03 0.  0.
         25    1    1    2    0    0  0.24812001023E+02  0.10400345485E+03  0.95381481323E+03  0.96789464920E+03  0.12500000000E+03 0.  0.
         25    1    1    2    0    0 -0.62271231091E+02 -0.13415634995E+03  0.84552590825E+02  0.21130492912E+03  0.12500000000E+03 0.  0.
</event>
<event>
 5    0  0.5660959E-005  0.2767608E+03  0.7546771E-02  0.1097471E+00
         21   -1    0    0  502  501  0.00000000000E+00  0.00000000000E+00  0.55887031944E+03  0.55887031944E+03  0.00000000000E+00 0. -1.
         21   -1    0    0  501  502 -0.00000000000E+00 -0.00000000000E+00 -0.13705605270E+03  0.13705605270E+03  0.00000000000E+00 0. -1.
         25    1    1    2    0    0 -0.14829188267E+03  0.57439834638E+02  0.87130469978E+02  0.22024199388E+03  0.12500000000E+03 0.  0.
         25    1    1    2    0    0  0.82746047071E+01  0.11946991651E+02  0.19334944982E+03  0.23069505724E+03  0.12500000000E+03 0.  0.
         25    1    1    2    0    0  0.14001727796E+03 -0.69386826289E+02  0.14133434695E+03  0.24498932103E+03  0.12500000000E+03 0.  0.
</event>
<event>
 5    0  0.5660959E-005  0.2036203E+03  0.7546771E-02  0.1146720E+00
         21   -1    0    0  502  501  0.00000000000E+00  0.00000000000E+00  0.32001468402E+03  0.32001468402E+03  0.00000000000E+00 0.  1.
         21   -1    0    0  501  502 -0.00000000000E+00 -0.00000000000E+00 -0.12956038177E+03  0.12956038177E+03  0.00000000000E+00 0.  1.
         25    1    1    2    0    0 -0.34198076649E+02  0.38434748495E+02  0.29509586263E+02  0.13835661899E+03  0.12500000000E+03 0.  0.
         25    1    1    2    0    0 -0.54854270451E+01 -0.44974817403E+02  0.10047834715E+03  0.16665449996E+03  0.12500000000E+03 0.  0.
         25    1    1    2    0    0  0.39683503694E+02  0.65400689088E+01  0.60466368835E+02  0.14456394684E+03  0.12500000000E+03 0.  0.
</event>
<event>
 5    0  0.5660959E-005  0.2715611E+03  0.7546771E-02  0.1100389E+00
         21   -1    0    0  502  501  0.00000000000E+00  0.00000000000E+00  0.87663676223E+03  0.87663676223E+03  0.00000000000E+00 0.  1.
         21   -1    0    0  501  502 -0.00000000000E+00 -0.00000000000E+00 -0.84123102924E+02  0.84123102924E+02  0.00000000000E+00 0.  1.
         25    1    1    2    0    0 -0.32874673762E+02  0.40556401496E+02  0.12638640801E+03  0.18526761726E+03  0.12500000000E+03 0.  0.
         25    1    1    2    0    0 -0.23123708382E+02 -0.11449189461E+03  0.12354329650E+03  0.21102380418E+03  0.12500000000E+03 0.  0.
         25    1    1    2    0    0  0.55998382145E+02  0.73935493110E+02  0.54258395480E+03  0.56446844371E+03  0.12500000000E+03 0.  0.
</event>
<event>
 5    0  0.5660959E-005  0.5309887E+03  0.7546771E-02  0.1005993E+00
         21   -1    0    0  502  501  0.00000000000E+00  0.00000000000E+00  0.24343996938E+04  0.24343996938E+04  0.00000000000E+00 0. -1.
         21   -1    0    0  501  502 -0.00000000000E+00 -0.00000000000E+00 -0.11581869333E+03  0.11581869333E+03  0.00000000000E+00 0.  1.
         25    1    1    2    0    0  0.64538056209E+02  0.38705660189E+03  0.67115091707E+03  0.78743033168E+03  0.12500000000E+03 0.  0.
         25    1    1    2    0    0 -0.24180337020E+03 -0.20721542328E+03  0.81198592883E+03  0.88110910226E+03  0.12500000000E+03 0.  0.
         25    1    1    2    0    0  0.17726531399E+03 -0.17984117861E+03  0.83544415457E+03  0.88167895318E+03  0.12500000000E+03 0.  0.
</event>
<event>
 5    0  0.5660959E-005  0.3112769E+03  0.7546771E-02  0.1079735E+00
         21   -1    0    0  502  501  0.00000000000E+00  0.00000000000E+00  0.41517693368E+03  0.41517693368E+03  0.00000000000E+00 0.  1.
         21   -1    0    0  501  502 -0.00000000000E+00 -0.00000000000E+00 -0.23337832206E+03  0.23337832206E+03  0.00000000000E+00 0.  1.
         25    1    1    2    0    0  0.13644427161E+03 -0.14342172708E+03 -0.21758121379E+02  0.23512814995E+03  0.12500000000E+03 0.  0.
         25    1    1    2    0    0 -0.54590634607E+02  0.96684264875E+02  0.14287444676E+02  0.16780082102E+03  0.12500000000E+03 0.  0.
         25    1    1    2    0    0 -0.81853636999E+02  0.46737462207E+02  0.18926928832E+03  0.24562628476E+03  0.12500000000E+03 0.  0.
</event>
<event>
 5    0  0.5660959E-005  0.2633107E+03  0.7546771E-02  0.1105170E+00
         21   -1    0    0  502  501  0.00000000000E+00  0.00000000000E+00  0.68483258549E+03  0.68483258549E+03  0.00000000000E+00 0.  1.
         21   -1    0    0  501  502 -0.00000000000E+00 -0.00000000000E+00 -0.10124007583E+03  0.10124007583E+03  0.00000000000E+00 0.  1.
         25    1    1    2    0    0 -0.84263061740E+02 -0.13864132934E+01  0.69357755681E+02  0.16594482212E+03  0.12500000000E+03 0.  0.
         25    1    1    2    0    0  0.64084638846E+02 -0.82255897638E+02  0.39470904740E+03  0.42695796717E+03  0.12500000000E+03 0.  0.
         25    1    1    2    0    0  0.20178422893E+02  0.83642310931E+02  0.11952570658E+03  0.19316987204E+03  0.12500000000E+03 0.  0.
</event>
<event>
 5    0  0.5660959E-005  0.6688573E+03  0.7546771E-02  0.9772024E-01
         21   -1    0    0  502  501  0.00000000000E+00  0.00000000000E+00  0.37197330356E+03  0.37197330356E+03  0.00000000000E+00 0. -1.
         21   -1    0    0  501  502 -0.00000000000E+00 -0.00000000000E+00 -0.12026939242E+04  0.12026939242E+04  0.00000000000E+00 0. -1.
         25    1    1    2    0    0  0.41006081923E+03  0.92718508117E+02 -0.10670537585E+03  0.45139520871E+03  0.12500000000E+03 0.  0.
         25    1    1    2    0    0  0.44853582473E+02  0.23378248211E+03 -0.33740717672E+03  0.43143330389E+03  0.12500000000E+03 0.  0.
         25    1    1    2    0    0 -0.45491440170E+03 -0.32650099023E+03 -0.38660806807E+03  0.69183871515E+03  0.12500000000E+03 0.  0.
</event>
<event>
 5    0  0.5660959E-005  0.2604867E+03  0.7546771E-02  0.1106851E+00
         21   -1    0    0  502  501  0.00000000000E+00  0.00000000000E+00  0.61633963304E+02  0.61633963304E+02  0.00000000000E+00 0. -1.
         21   -1    0    0  501  502 -0.00000000000E+00 -0.00000000000E+00 -0.11009080622E+04  0.11009080622E+04  0.00000000000E+00 0. -1.
         25    1    1    2    0    0  0.25199312635E+02 -0.16521184658E+03 -0.39852648025E+03  0.44986477420E+03  0.12500000000E+03 0.  0.
         25    1    1    2    0    0 -0.53147818871E+02  0.83805471349E+02 -0.30555697801E+03  0.34472904504E+03  0.12500000000E+03 0.  0.
         25    1    1    2    0    0  0.27948506236E+02  0.81406375229E+02 -0.33519064067E+03  0.36794820630E+03  0.12500000000E+03 0.  0.
</event>
<event>
 5    0  0.5660959E-005  0.2939333E+03  0.7546771E-02  0.1088313E+00
         21   -1    0    0  502  501  0.00000000000E+00  0.00000000000E+00  0.10942049251E+04  0.10942049251E+04  0.00000000000E+00 0.  1.
         21   -1    0    0  501  502 -0.00000000000E+00 -0.00000000000E+00 -0.78958480583E+02  0.78958480583E+02  0.00000000000E+00 0.  1.
         25    1    1    2    0    0 -0.38002725264E+02  0.54446819950E+02  0.42708634398E+02  0.14784346716E+03  0.12500000000E+03 0.  0.
         25    1    1    2    0    0  0.31858727821E+02 -0.48679331517E+02  0.20141072448E+03  0.24408182192E+03  0.12500000000E+03 0.  0.
         25    1    1    2    0    0  0.61439974432E+01 -0.57674884322E+01  0.77112708560E+03  0.78123811656E+03  0.12500000000E+03 0.  0.
</event>
<event>
 5    0  0.5660959E-005  0.2543530E+03  0.7546771E-02  0.1110584E+00
         21   -1    0    0  502  501  0.00000000000E+00  0.00000000000E+00  0.27834143579E+04  0.27834143579E+04  0.00000000000E+00 0.  1.
         21   -1    0    0  501  502 -0.00000000000E+00 -0.00000000000E+00 -0.23243196122E+02  0.23243196122E+02  0.00000000000E+00 0.  1.
         25    1    1    2    0    0  0.33744676599E+02  0.20991223373E+02  0.30107460691E+03  0.32840562356E+03  0.12500000000E+03 0.  0.
         25    1    1    2    0    0 -0.39590355830E+02  0.40742960254E+02  0.17611248066E+04  0.17664690684E+04  0.12500000000E+03 0.  0.
         25    1    1    2    0    0  0.58456792312E+01 -0.61734183628E+02  0.69797174832E+03  0.71178286214E+03  0.12500000000E+03 0.  0.
</event>
<event>
 5    0  0.5660959E-005  0.5195126E+03  0.7546771E-02  0.1008808E+00
         21   -1    0    0  502  501  0.00000000000E+00  0.00000000000E+00  0.68357997069E+03  0.68357997069E+03  0.00000000000E+00 0. -1.
         21   -1    0    0  501  502 -0.00000000000E+00 -0.00000000000E+00 -0.39482336090E+03  0.39482336090E+03  0.00000000000E+00 0. -1.
         25    1    1    2    0    0  0.22768909272E+03  0.16625714848E+03  0.15418399668E+03  0.34479191869E+03  0.12500000000E+03 0.  0.
         25    1    1    2    0    0 -0.30094165599E+03  0.95932337816E+02 -0.98918063631E+02  0.35380598788E+03  0.12500000000E+03 0.  0.
         25    1    1    2    0    0  0.73252563274E+02 -0.26218948629E+03  0.23349067674E+03  0.37980542502E+03  0.12500000000E+03 0.  0.
</event>
<event>
 5    0  0.5686037E-005  0.3330715E+03  0.7546771E-02  0.1069786E+00
         21   -1    0    0  502  501  0.00000000000E+00  0.00000000000E+00  0.63886956930E+03  0.63886956930E+03  0.00000000000E+00 0.  1.
         21   -1    0    0  501  502 -0.00000000000E+00 -0.00000000000E+00 -0.17364517496E+03  0.17364517496E+03  0.00000000000E+00 0.  1.
         25    1    1    2    0    0 -0.11118340579E+03 -0.13410822906E+01  0.20995091471E+03  0.26845471650E+03  0.12500000000E+03 0.  0.
         25    1    1    2    0    0  0.16615631003E+03  0.91890239804E+02  0.29792852745E+03  0.37475077452E+03  0.12500000000E+03 0.  0.
         25    1    1    2    0    0 -0.54972904248E+02 -0.90549157513E+02 -0.42655047825E+02  0.16930925324E+03  0.12500000000E+03 0.  0.
</event>
<event>
 5    0  0.5660959E-005  0.2560111E+03  0.7546771E-02  0.1109564E+00
         21   -1    0    0  502  501  0.00000000000E+00  0.00000000000E+00  0.66125271001E+03  0.66125271001E+03  0.00000000000E+00 0. -1.
         21   -1    0    0  501  502 -0.00000000000E+00 -0.00000000000E+00 -0.99117477440E+02  0.99117477440E+02  0.00000000000E+00 0. -1.
         25    1    1    2    0    0  0.11878330587E+02 -0.81335589462E+02  0.18588253234E+03  0.23860823263E+03  0.12500000000E+03 0.  0.
         25    1    1    2    0    0 -0.30762562731E+02 -0.23721885950E+01  0.14555931392E+02  0.12957174724E+03  0.12500000000E+03 0.  0.
         25    1    1    2    0    0  0.18884232144E+02  0.83707778057E+02  0.36169676884E+03  0.39219020758E+03  0.12500000000E+03 0.  0.
</event>
<event>
 5    0  0.5660959E-005  0.3353702E+03  0.7546771E-02  0.1068785E+00
         21   -1    0    0  502  501  0.00000000000E+00  0.00000000000E+00  0.85985587459E+03  0.85985587459E+03  0.00000000000E+00 0.  1.
         21   -1    0    0  501  502 -0.00000000000E+00 -0.00000000000E+00 -0.13080468603E+03  0.13080468603E+03  0.00000000000E+00 0.  1.
         25    1    1    2    0    0  0.11544513905E+03 -0.47170047368E+02  0.15639063905E+01  0.17657870568E+03  0.12500000000E+03 0.  0.
         25    1    1    2    0    0  0.64486250960E+02  0.26202355164E+02  0.24392514620E+03  0.28278882037E+03  0.12500000000E+03 0.  0.
         25    1    1    2    0    0 -0.17993139001E+03  0.20967692204E+02  0.48356213597E+03  0.53129303455E+03  0.12500000000E+03 0.  0.
</event>
<event>
 5    0  0.5660959E-005  0.3389140E+03  0.7546771E-02  0.1067259E+00
         21   -1    0    0  502  501  0.00000000000E+00  0.00000000000E+00  0.81708825645E+03  0.81708825645E+03  0.00000000000E+00 0.  1.
         21   -1    0    0  501  502 -0.00000000000E+00 -0.00000000000E+00 -0.14057565004E+03  0.14057565004E+03  0.00000000000E+00 0.  1.
         25    1    1    2    0    0  0.17327014320E+03 -0.78225386894E+02  0.45158917256E+03  0.50566741486E+03  0.12500000000E+03 0.  0.
         25    1    1    2    0    0 -0.46949858608E+02  0.37552624876E+02  0.23116023930E+03  0.26958216761E+03  0.12500000000E+03 0.  0.
         25    1    1    2    0    0 -0.12632028459E+03  0.40672762018E+02 -0.62368054405E+01  0.18241432403E+03  0.12500000000E+03 0.  0.
</event>
<event>
 5    0  0.5660959E-005  0.4068172E+03  0.7546771E-02  0.1041444E+00
         21   -1    0    0  502  501  0.00000000000E+00  0.00000000000E+00  0.45061075693E+03  0.45061075693E+03  0.00000000000E+00 0. -1.
         21   -1    0    0  501  502 -0.00000000000E+00 -0.00000000000E+00 -0.36727987070E+03  0.36727987070E+03  0.00000000000E+00 0. -1.
         25    1    1    2    0    0 -0.15122620618E+02  0.10075660917E+03  0.35198392617E+03  0.38716698236E+03  0.12500000000E+03 0.  0.
         25    1    1    2    0    0  0.22104175838E+02  0.39797634084E+01 -0.13351408648E+02  0.12770157877E+03  0.12500000000E+03 0.  0.
         25    1    1    2    0    0 -0.69815552199E+01 -0.10473637257E+03 -0.25530163128E+03  0.30302206651E+03  0.12500000000E+03 0.  0.
</event>
<event>
 5    0  0.5660959E-005  0.3157949E+03  0.7546771E-02  0.1077601E+00
         21   -1    0    0  502  501  0.00000000000E+00  0.00000000000E+00  0.33328144090E+03  0.33328144090E+03  0.00000000000E+00 0.  1.
         21   -1    0    0  501  502 -0.00000000000E+00 -0.00000000000E+00 -0.29922590421E+03  0.29922590421E+03  0.00000000000E+00 0.  1.
         25    1    1    2    0    0 -0.10833653559E+03  0.25351127068E+01  0.76516571061E+02  0.18227182280E+03  0.12500000000E+03 0.  0.
         25    1    1    2    0    0 -0.23399809374E+01 -0.16300658700E+03  0.29960434892E+02  0.20760358999E+03  0.12500000000E+03 0.  0.
         25    1    1    2    0    0  0.11067651653E+03  0.16047147430E+03 -0.72421469259E+02  0.24263193233E+03  0.12500000000E+03 0.  0.
</event>
<event>
 5    0  0.5660959E-005  0.3440049E+03  0.7546771E-02  0.1065103E+00
         21   -1    0    0  502  501  0.00000000000E+00  0.00000000000E+00  0.16135244248E+04  0.16135244248E+04  0.00000000000E+00 0. -1.
         21   -1    0    0  501  502 -0.00000000000E+00 -0.00000000000E+00 -0.73342178833E+02  0.73342178833E+02  0.00000000000E+00 0. -1.
         25    1    1    2    0    0 -0.62411092850E+02 -0.70477137099E+02  0.10539800953E+03  0.18866878856E+03  0.12500000000E+03 0.  0.
         25    1    1    2    0    0 -0.67171110953E+02  0.10925658517E+03  0.30655722136E+03  0.35503702556E+03  0.12500000000E+03 0.  0.
         25    1    1    2    0    0  0.12958220380E+03 -0.38779448068E+02  0.11282270151E+04  0.11431607895E+04  0.12500000000E+03 0.  0.
</event>
<event>
 5    0  0.5660959E-005  0.4269420E+03  0.7546771E-02  0.1034830E+00
         21   -1    0    0  502  501  0.00000000000E+00  0.00000000000E+00  0.22409142219E+03  0.22409142219E+03  0.00000000000E+00 0. -1.
         21   -1    0    0  501  502 -0.00000000000E+00 -0.00000000000E+00 -0.81341572688E+03  0.81341572688E+03  0.00000000000E+00 0. -1.
         25    1    1    2    0    0  0.34227020290E+02 -0.97874895400E+02 -0.31675249005E+03  0.35596084619E+03  0.12500000000E+03 0.  0.
         25    1    1    2    0    0 -0.38149740539E+02 -0.20922807873E+03  0.85291182500E+01  0.24683909230E+03  0.12500000000E+03 0.  0.
         25    1    1    2    0    0  0.39227202480E+01  0.30710297413E+03 -0.28110093289E+03  0.43470721057E+03  0.12500000000E+03 0.  0.
</event>
<event>
 5    0  0.5660959E-005  0.2632486E+03  0.7546771E-02  0.1105207E+00
         21   -1    0    0  502  501  0.00000000000E+00  0.00000000000E+00  0.25509026288E+03  0.25509026288E+03  0.00000000000E+00 0.  1.
         21   -1    0    0  501  502 -0.00000000000E+00 -0.00000000000E+00 -0.27166785866E+03  0.27166785866E+03  0.00000000000E+00 0.  1.
         25    1    1    2    0    0  0.70603036006E+02  0.75262104024E+02  0.83844951034E+02  0.18249424322E+03  0.12500000000E+03 0.  0.
         25    1    1    2    0    0 -0.46349571004E+02 -0.84155049659E+02  0.31420828542E+02  0.16075641070E+03  0.12500000000E+03 0.  0.
         25    1    1    2    0    0 -0.24253465002E+02  0.88929456354E+01 -0.13184337536E+03  0.18350746762E+03  0.12500000000E+03 0.  0.
</event>
<event>
 5    0  0.7421217E-005  0.2461224E+03  0.7546771E-02  0.1115780E+00
         21   -1    0    0  502  501  0.00000000000E+00  0.00000000000E+00  0.16114274780E+03  0.16114274780E+03  0.00000000000E+00 0. -1.
         21   -1    0    0  501  502 -0.00000000000E+00 -0.00000000000E+00 -0.37591648042E+03  0.37591648042E+03  0.00000000000E+00 0. -1.
         25    1    1    2    0    0 -0.34787974735E+02  0.45876158227E+02 -0.67169618321E+02  0.15313909594E+03  0.12500000000E+03 0.  0.
         25    1    1    2    0    0  0.55525660296E+02 -0.13482019238E+03 -0.42203792502E+02  0.19663606822E+03  0.12500000000E+03 0.  0.
         25    1    1    2    0    0 -0.20737685561E+02  0.88944034150E+02 -0.10540032180E+03  0.18728406406E+03  0.12500000000E+03 0.  0.
</event>
<event>
 5    0  0.5660959E-005  0.3520560E+03  0.7546771E-02  0.1061774E+00
         21   -1    0    0  502  501  0.00000000000E+00  0.00000000000E+00  0.50430677440E+03  0.50430677440E+03  0.00000000000E+00 0. -1.
         21   -1    0    0  501  502 -0.00000000000E+00 -0.00000000000E+00 -0.24576985596E+03  0.24576985596E+03  0.00000000000E+00 0. -1.
         25    1    1    2    0    0 -0.15371502767E+03  0.77454096896E+01  0.82787895866E+01  0.19844858140E+03  0.12500000000E+03 0.  0.
         25    1    1    2    0    0  0.27122865569E+03 -0.18047342397E+01  0.23358905044E+03  0.37915311579E+03  0.12500000000E+03 0.  0.
         25    1    1    2    0    0 -0.11751362801E+03 -0.59406754498E+01  0.16669078416E+02  0.17247493316E+03  0.12500000000E+03 0.  0.
</event>
<event>
 5    0  0.6180290E-005  0.4940073E+03  0.7546771E-02  0.1015355E+00
         21   -1    0    0  502  501  0.00000000000E+00  0.00000000000E+00  0.27618258928E+03  0.27618258928E+03  0.00000000000E+00 0.  1.
         21   -1    0    0  501  502 -0.00000000000E+00 -0.00000000000E+00 -0.88362980691E+03  0.88362980691E+03  0.00000000000E+00 0.  1.
         25    1    1    2    0    0 -0.13492887077E+03  0.16933578346E+02 -0.47123167836E+03  0.50613915175E+03  0.12500000000E+03 0.  0.
         25    1    1    2    0    0  0.27320248178E+03  0.13785196977E+03 -0.22026575837E+03  0.39722130599E+03  0.12500000000E+03 0.  0.
         25    1    1    2    0    0 -0.13827361101E+03 -0.15478554812E+03  0.84050219100E+02  0.25645193845E+03  0.12500000000E+03 0.  0.
</event>
<event>
 5    0  0.5660959E-005  0.2584925E+03  0.7546771E-02  0.1108052E+00
         21   -1    0    0  502  501  0.00000000000E+00  0.00000000000E+00  0.70740102287E+02  0.70740102287E+02  0.00000000000E+00 0.  1.
         21   -1    0    0  501  502 -0.00000000000E+00 -0.00000000000E+00 -0.94456168053E+03  0.94456168053E+03  0.00000000000E+00 0.  1.
         25    1    1    2    0    0 -0.10014189502E+02 -0.49344171899E+02 -0.45570323889E+03  0.47521108281E+03  0.12500000000E+03 0.  0.
         25    1    1    2    0    0  0.97108699687E+02 -0.19448579472E+02 -0.28425463628E+03  0.32593564555E+03  0.12500000000E+03 0.  0.
         25    1    1    2    0    0 -0.87094510185E+02  0.68792751372E+02 -0.13386370308E+03  0.21415505445E+03  0.12500000000E+03 0.  0.
</event>
<event>
 5    0  0.5660959E-005  0.3481975E+03  0.7546771E-02  0.1063357E+00
         21   -1    0    0  502  501  0.00000000000E+00  0.00000000000E+00  0.38838998840E+03  0.38838998840E+03  0.00000000000E+00 0.  1.
         21   -1    0    0  501  502 -0.00000000000E+00 -0.00000000000E+00 -0.31216424105E+03  0.31216424105E+03  0.00000000000E+00 0.  1.
         25    1    1    2    0    0  0.13827103622E+03 -0.42131559974E+02  0.10518563011E+03  0.21813519795E+03  0.12500000000E+03 0.  0.
         25    1    1    2    0    0 -0.25612542211E+03 -0.59956070877E+01  0.46270744572E+02  0.28879432293E+03  0.12500000000E+03 0.  0.
         25    1    1    2    0    0  0.11785438589E+03  0.48127167062E+02 -0.75230627328E+02  0.19362470858E+03  0.12500000000E+03 0.  0.
</event>
<event>
 5    0  0.5660959E-005  0.3341610E+03  0.7546771E-02  0.1069310E+00
         21   -1    0    0  502  501  0.00000000000E+00  0.00000000000E+00  0.36001577888E+03  0.36001577888E+03  0.00000000000E+00 0. -1.
         21   -1    0    0  501  502 -0.00000000000E+00 -0.00000000000E+00 -0.31016307408E+03  0.31016307408E+03  0.00000000000E+00 0. -1.
         25    1    1    2    0    0  0.42535128003E+02 -0.44401870414E+01  0.45354385820E+02  0.13968168344E+03  0.12500000000E+03 0.  0.
         25    1    1    2    0    0 -0.21334245986E+03 -0.14119592249E+02 -0.12931806208E+03  0.27939672375E+03  0.12500000000E+03 0.  0.
         25    1    1    2    0    0  0.17080733185E+03  0.18559779290E+02  0.13381638106E+03  0.25110044576E+03  0.12500000000E+03 0.  0.
</event>
<event>
 5    0  0.5842212E-005  0.2412223E+03  0.7546771E-02  0.1118981E+00
         21   -1    0    0  502  501  0.00000000000E+00  0.00000000000E+00  0.48240445813E+03  0.48240445813E+03  0.00000000000E+00 0. -1.
         21   -1    0    0  501  502 -0.00000000000E+00 -0.00000000000E+00 -0.12062118393E+03  0.12062118393E+03  0.00000000000E+00 0. -1.
         25    1    1    2    0    0 -0.68439166760E+02 -0.33695004693E+02  0.23959376366E+03  0.28080143246E+03  0.12500000000E+03 0.  0.
         25    1    1    2    0    0  0.92267770844E+02  0.61039753092E+02  0.55028506234E+02  0.17576213896E+03  0.12500000000E+03 0.  0.
         25    1    1    2    0    0 -0.23828604084E+02 -0.27344748399E+02  0.67161004300E+02  0.14646207064E+03  0.12500000000E+03 0.  0.
</event>
<event>
 5    0  0.6066572E-005  0.2714965E+03  0.7546771E-02  0.1100426E+00
         21   -1    0    0  502  501  0.00000000000E+00  0.00000000000E+00  0.36201602558E+03  0.36201602558E+03  0.00000000000E+00 0.  1.
         21   -1    0    0  501  502 -0.00000000000E+00 -0.00000000000E+00 -0.20361076681E+03  0.20361076681E+03  0.00000000000E+00 0.  1.
         25    1    1    2    0    0 -0.48488340796E+02  0.57382518429E+02  0.12724601728E+03  0.19354694916E+03  0.12500000000E+03 0.  0.
         25    1    1    2    0    0  0.14166341233E+03 -0.89741560677E+02 -0.32175194537E+01  0.20918274914E+03  0.12500000000E+03 0.  0.
         25    1    1    2    0    0 -0.93175071539E+02  0.32359042247E+02  0.34376760940E+02  0.16289709409E+03  0.12500000000E+03 0.  0.
</event>
<event>
 5    0  0.5660959E-005  0.3054261E+03  0.7546771E-02  0.1082559E+00
         21   -1    0    0  502  501  0.00000000000E+00  0.00000000000E+00  0.42018514911E+03  0.42018514911E+03  0.00000000000E+00 0.  1.
         21   -1    0    0  501  502 -0.00000000000E+00 -0.00000000000E+00 -0.22200955803E+03  0.22200955803E+03  0.00000000000E+00 0.  1.
         25    1    1    2    0    0 -0.17096725059E+03  0.37814136701E+02  0.69866273277E+01  0.21525223035E+03  0.12500000000E+03 0.  0.
         25    1    1    2    0    0 -0.10816790227E+01  0.66988705749E+02  0.97056521283E+02  0.17185349880E+03  0.12500000000E+03 0.  0.
         25    1    1    2    0    0  0.17204892962E+03 -0.10480284245E+03  0.94132442470E+02  0.25508897799E+03  0.12500000000E+03 0.  0.
</event>
<event>
 5    0  0.5660959E-005  0.3970261E+03  0.7546771E-02  0.1044814E+00
         21   -1    0    0  502  501  0.00000000000E+00  0.00000000000E+00  0.14658511050E+04  0.14658511050E+04  0.00000000000E+00 0.  1.
         21   -1    0    0  501  502 -0.00000000000E+00 -0.00000000000E+00 -0.10753462840E+03  0.10753462840E+03  0.00000000000E+00 0.  1.
         25    1    1    2    0    0  0.11402621650E+03 -0.18109706756E+02  0.39135338928E+03  0.42674631203E+03  0.12500000000E+03 0.  0.
         25    1    1    2    0    0  0.22860189528E+02  0.10382767088E+03  0.59924661218E+01  0.16420622143E+03  0.12500000000E+03 0.  0.
         25    1    1    2    0    0 -0.13688640603E+03 -0.85717964124E+02  0.96097062121E+03  0.98243319994E+03  0.12500000000E+03 0.  0.
</event>
<event>
 5    0  0.5660959E-005  0.2147738E+03  0.7546771E-02  0.1137840E+00
         21   -1    0    0  502  501  0.00000000000E+00  0.00000000000E+00  0.32483237030E+03  0.32483237030E+03  0.00000000000E+00 0. -1.
         21   -1    0    0  501  502 -0.00000000000E+00 -0.00000000000E+00 -0.14200484924E+03  0.14200484924E+03  0.00000000000E+00 0. -1.
         25    1    1    2    0    0 -0.38019567330E+01  0.15616335636E+02 -0.25605264060E+02  0.12860386604E+03  0.12500000000E+03 0.  0.
         25    1    1    2    0    0 -0.25297285984E+02  0.27586742253E+02  0.92183966390E+02  0.15976189998E+03  0.12500000000E+03 0.  0.
         25    1    1    2    0    0  0.29099242717E+02 -0.43203077889E+02  0.11624881872E+03  0.17847145352E+03  0.12500000000E+03 0.  0.
</event>
<event>
 5    0  0.5660959E-005  0.5661087E+03  0.7546771E-02  0.9978327E-01
         21   -1    0    0  502  501  0.00000000000E+00  0.00000000000E+00  0.19252315397E+03  0.19252315397E+03  0.00000000000E+00 0.  1.
         21   -1    0    0  501  502 -0.00000000000E+00 -0.00000000000E+00 -0.16646258901E+04  0.16646258901E+04  0.00000000000E+00 0.  1.
         25    1    1    2    0    0  0.24268974634E+03  0.22662275626E+03 -0.22698308472E+03  0.42119177032E+03  0.12500000000E+03 0.  0.
         25    1    1    2    0    0 -0.86406950244E+02  0.21817567122E+02 -0.30216656644E+01  0.15354575132E+03  0.12500000000E+03 0.  0.
         25    1    1    2    0    0 -0.15628279610E+03 -0.24844032338E+03 -0.12420979857E+04  0.12824115224E+04  0.12500000000E+03 0.  0.
</event>
<event>
 5    0  0.6364911E-005  0.4480262E+03  0.7546771E-02  0.1028312E+00
         21   -1    0    0  502  501  0.00000000000E+00  0.00000000000E+00  0.61948004594E+03  0.61948004594E+03  0.00000000000E+00 0. -1.
         21   -1    0    0  501  502 -0.00000000000E+00 -0.00000000000E+00 -0.32402577073E+03  0.32402577073E+03  0.00000000000E+00 0. -1.
         25    1    1    2    0    0 -0.65329885945E+02 -0.15993119762E+03 -0.11732738384E+03  0.24338590133E+03  0.12500000000E+03 0.  0.
         25    1    1    2    0    0 -0.15597198614E+03 -0.37598767828E+02  0.29297291933E+03  0.35664977115E+03  0.12500000000E+03 0.  0.
         25    1    1    2    0    0  0.22130187208E+03  0.19752996544E+03  0.11980873973E+03  0.34347014419E+03  0.12500000000E+03 0.  0.
</event>
<event>
 5    0  0.5660959E-005  0.2781914E+03  0.7546771E-02  0.1096681E+00
         21   -1    0    0  502  501  0.00000000000E+00  0.00000000000E+00  0.26569601789E+03  0.26569601789E+03  0.00000000000E+00 0. -1.
         21   -1    0    0  501  502 -0.00000000000E+00 -0.00000000000E+00 -0.29127441533E+03  0.29127441533E+03  0.00000000000E+00 0. -1.
         25    1    1    2    0    0 -0.83984821864E+01  0.37505521507E+02  0.24271796297E+02  0.13300871679E+03  0.12500000000E+03 0.  0.
         25    1    1    2    0    0  0.24622429067E+02 -0.79106756549E+02  0.13134437294E+03  0.19935016240E+03  0.12500000000E+03 0.  0.
         25    1    1    2    0    0 -0.16223946881E+02  0.41601235041E+02 -0.18119456668E+03  0.22461155403E+03  0.12500000000E+03 0.  0.
</event>
<event>
 5    0  0.5660959E-005  0.3057690E+03  0.7546771E-02  0.1082392E+00
         21   -1    0    0  502  501  0.00000000000E+00  0.00000000000E+00  0.12012630257E+03  0.12012630257E+03  0.00000000000E+00 0. -1.
         21   -1    0    0  501  502 -0.00000000000E+00 -0.00000000000E+00 -0.77830304361E+03  0.77830304361E+03  0.00000000000E+00 0. -1.
         25    1    1    2    0    0  0.10257641719E+03  0.69739838320E+02 -0.12748101641E+03  0.21739819677E+03  0.12500000000E+03 0.  0.
         25    1    1    2    0    0 -0.81363317824E+02 -0.89457865578E+02 -0.52448595436E+03  0.55256964767E+03  0.12500000000E+03 0.  0.
         25    1    1    2    0    0 -0.21213099366E+02  0.19718027257E+02 -0.62097702602E+01  0.12846150174E+03  0.12500000000E+03 0.  0.
</event>
<event>
 5    0  0.5660959E-005  0.2512611E+03  0.7546771E-02  0.1112510E+00
         21   -1    0    0  502  501  0.00000000000E+00  0.00000000000E+00  0.14324464376E+03  0.14324464376E+03  0.00000000000E+00 0.  1.
         21   -1    0    0  501  502 -0.00000000000E+00 -0.00000000000E+00 -0.44072943244E+03  0.44072943244E+03  0.00000000000E+00 0.  1.
         25    1    1    2    0    0 -0.12175019444E+03  0.28398786495E+02 -0.59184411030E+02  0.18643335385E+03  0.12500000000E+03 0.  0.
         25    1    1    2    0    0 -0.12536590165E+02  0.28583035013E+01 -0.57922268228E+02  0.13836663307E+03  0.12500000000E+03 0.  0.
         25    1    1    2    0    0  0.13428678460E+03 -0.31257089997E+02 -0.18037810943E+03  0.25917408928E+03  0.12500000000E+03 0.  0.
</event>
<event>
 5    0  0.5660959E-005  0.3763753E+03  0.7546771E-02  0.1052282E+00
         21   -1    0    0  502  501  0.00000000000E+00  0.00000000000E+00  0.51420757800E+03  0.51420757800E+03  0.00000000000E+00 0.  1.
         21   -1    0    0  501  502 -0.00000000000E+00 -0.00000000000E+00 -0.27548874838E+03  0.27548874838E+03  0.00000000000E+00 0.  1.
         25    1    1    2    0    0 -0.10598048525E+02 -0.84928275949E+02  0.35606172243E+03  0.38694971362E+03  0.12500000000E+03 0.  0.
         25    1    1    2    0    0 -0.46291820280E+02 -0.86527545982E+02 -0.86439379991E+02  0.18090526596E+03  0.12500000000E+03 0.  0.
         25    1    1    2    0    0  0.56889868805E+02  0.17145582193E+03 -0.30903512828E+02  0.22184134680E+03  0.12500000000E+03 0.  0.
</event>
<event>
 5    0  0.5660959E-005  0.2434418E+03  0.7546771E-02  0.1117521E+00
         21   -1    0    0  502  501  0.00000000000E+00  0.00000000000E+00  0.40139876487E+03  0.40139876487E+03  0.00000000000E+00 0.  1.
         21   -1    0    0  501  502 -0.00000000000E+00 -0.00000000000E+00 -0.14764344289E+03  0.14764344289E+03  0.00000000000E+00 0.  1.
         25    1    1    2    0    0 -0.50830760806E+02  0.22573485689E+02  0.33513744415E+02  0.14085985789E+03  0.12500000000E+03 0.  0.
         25    1    1    2    0    0 -0.81085012542E+02  0.27006279936E+02  0.68055953735E+02  0.16601425015E+03  0.12500000000E+03 0.  0.
         25    1    1    2    0    0  0.13191577335E+03 -0.49579765625E+02  0.15218562384E+03  0.24216809972E+03  0.12500000000E+03 0.  0.
</event>
<event>
 5    0  0.5660959E-005  0.3423559E+03  0.7546771E-02  0.1065797E+00
         21   -1    0    0  502  501  0.00000000000E+00  0.00000000000E+00  0.20202422549E+04  0.20202422549E+04  0.00000000000E+00 0.  1.
         21   -1    0    0  501  502 -0.00000000000E+00 -0.00000000000E+00 -0.58016592266E+02  0.58016592266E+02  0.00000000000E+00 0.  1.
         25    1    1    2    0    0 -0.10390129858E+03  0.45404308495E+02  0.57182530854E+03  0.59620987460E+03  0.12500000000E+03 0.  0.
         25    1    1    2    0    0 -0.13783377322E+02  0.18021425578E+03  0.75362798747E+03  0.78501420559E+03  0.12500000000E+03 0.  0.
         25    1    1    2    0    0  0.11768467590E+03 -0.22561856427E+03  0.63677236657E+03  0.69703476693E+03  0.12500000000E+03 0.  0.
</event>
<event>
 5    0  0.5660959E-005  0.2905572E+03  0.7546771E-02  0.1090059E+00
         21   -1    0    0  502  501  0.00000000000E+00  0.00000000000E+00  0.32582340822E+03  0.32582340822E+03  0.00000000000E+00 0. -1.
         21   -1    0    0  501  502 -0.00000000000E+00 -0.00000000000E+00 -0.25910813507E+03  0.25910813507E+03  0.00000000000E+00 0. -1.
         25    1    1    2    0    0  0.16175218564E+03 -0.39656286507E+02  0.37819191900E+02  0.21164045430E+03  0.12500000000E+03 0.  0.
         25    1    1    2    0    0 -0.13989733012E+03  0.70263761747E+02  0.10079906947E+03  0.22426259518E+03  0.12500000000E+03 0.  0.
         25    1    1    2    0    0 -0.21854855521E+02 -0.30607475240E+02 -0.71902988219E+02  0.14902849380E+03  0.12500000000E+03 0.  0.
</event>
<event>
 5    0  0.5660959E-005  0.2222997E+03  0.7546771E-02  0.1132180E+00
         21   -1    0    0  502  501  0.00000000000E+00  0.00000000000E+00  0.36385149037E+03  0.36385149037E+03  0.00000000000E+00 0. -1.
         21   -1    0    0  501  502 -0.00000000000E+00 -0.00000000000E+00 -0.13581682827E+03  0.13581682827E+03  0.00000000000E+00 0. -1.
         25    1    1    2    0    0  0.11703576964E+01 -0.52064605752E+01  0.16165068328E+03  0.20441237823E+03  0.12500000000E+03 0.  0.
         25    1    1    2    0    0 -0.48777591035E+02  0.31889970674E+02 -0.11144609987E+02  0.13836699732E+03  0.12500000000E+03 0.  0.
         25    1    1    2    0    0  0.47607233339E+02 -0.26683510099E+02  0.77528588810E+02  0.15688894308E+03  0.12500000000E+03 0.  0.
</event>
<event>
 5    0  0.6363065E-005  0.2930723E+03  0.7546771E-02  0.1088756E+00
         21   -1    0    0  502  501  0.00000000000E+00  0.00000000000E+00  0.44749478547E+03  0.44749478547E+03  0.00000000000E+00 0. -1.
         21   -1    0    0  501  502 -0.00000000000E+00 -0.00000000000E+00 -0.19193832199E+03  0.19193832199E+03  0.00000000000E+00 0. -1.
         25    1    1    2    0    0 -0.78912491610E+02 -0.12565850531E+03  0.12326348511E+03  0.22986110600E+03  0.12500000000E+03 0.  0.
         25    1    1    2    0    0  0.44066224332E+02  0.12739269029E+03  0.19278659478E+03  0.26638768889E+03  0.12500000000E+03 0.  0.
         25    1    1    2    0    0  0.34846267277E+02 -0.17341849748E+01 -0.60493616406E+02  0.14318431257E+03  0.12500000000E+03 0.  0.
</event>
<event>
 5    0  0.7217972E-005  0.2687634E+03  0.7546771E-02  0.1101989E+00
         21   -1    0    0  502  501  0.00000000000E+00  0.00000000000E+00  0.15571188176E+03  0.15571188176E+03  0.00000000000E+00 0.  1.
         21   -1    0    0  501  502 -0.00000000000E+00 -0.00000000000E+00 -0.46389383356E+03  0.46389383356E+03  0.00000000000E+00 0.  1.
         25    1    1    2    0    0 -0.42394549901E+02 -0.90924470204E+02 -0.43607421895E+02  0.16610588306E+03  0.12500000000E+03 0.  0.
         25    1    1    2    0    0  0.80904196264E+02 -0.22967835178E+02 -0.17558832548E+02  0.15167835385E+03  0.12500000000E+03 0.  0.
         25    1    1    2    0    0 -0.38509646363E+02  0.11389230538E+03 -0.24701569736E+03  0.30182147841E+03  0.12500000000E+03 0.  0.
</event>
<event>
 5    0  0.5660959E-005  0.4516281E+03  0.7546771E-02  0.1027238E+00
         21   -1    0    0  502  501  0.00000000000E+00  0.00000000000E+00  0.19322111147E+03  0.19322111147E+03  0.00000000000E+00 0. -1.
         21   -1    0    0  501  502 -0.00000000000E+00 -0.00000000000E+00 -0.10556193426E+04  0.10556193426E+04  0.00000000000E+00 0. -1.
         25    1    1    2    0    0  0.66119299046E+02  0.11714572172E+03  0.21521367015E+02  0.18488658973E+03  0.12500000000E+03 0.  0.
         25    1    1    2    0    0  0.10711569257E+03 -0.17886107096E+02 -0.17994320265E+02  0.16656073962E+03  0.12500000000E+03 0.  0.
         25    1    1    2    0    0 -0.17323499161E+03 -0.99259614629E+02 -0.86592527791E+03  0.89739312475E+03  0.12500000000E+03 0.  0.
</event>
<event>
 5    0  0.5989046E-005  0.4268393E+03  0.7546771E-02  0.1034863E+00
         21   -1    0    0  502  501  0.00000000000E+00  0.00000000000E+00  0.12334120200E+03  0.12334120200E+03  0.00000000000E+00 0. -1.
         21   -1    0    0  501  502 -0.00000000000E+00 -0.00000000000E+00 -0.14771362699E+04  0.14771362699E+04  0.00000000000E+00 0. -1.
         25    1    1    2    0    0 -0.20758899538E+02  0.11680960908E+03 -0.97044702981E+01  0.17261110459E+03  0.12500000000E+03 0.  0.
         25    1    1    2    0    0  0.20252162450E+03 -0.37795612237E+02 -0.56344728776E+03  0.61281429714E+03  0.12500000000E+03 0.  0.
         25    1    1    2    0    0 -0.18176272496E+03 -0.79013996847E+02 -0.78064330984E+03  0.81505207016E+03  0.12500000000E+03 0.  0.
</event>
<event>
 5    0  0.5660959E-005  0.3619062E+03  0.7546771E-02  0.1057832E+00
         21   -1    0    0  502  501  0.00000000000E+00  0.00000000000E+00  0.44576454809E+03  0.44576454809E+03  0.00000000000E+00 0. -1.
         21   -1    0    0  501  502 -0.00000000000E+00 -0.00000000000E+00 -0.29382347820E+03  0.29382347820E+03  0.00000000000E+00 0. -1.
         25    1    1    2    0    0 -0.12348347112E+03 -0.86528426326E+02  0.66923675891E+02  0.20697612084E+03  0.12500000000E+03 0.  0.
         25    1    1    2    0    0  0.14231039694E+03  0.25284180674E+03  0.66898653745E+02  0.32292670714E+03  0.12500000000E+03 0.  0.
         25    1    1    2    0    0 -0.18826925815E+02 -0.16631338042E+03  0.18118740252E+02  0.20968519831E+03  0.12500000000E+03 0.  0.
</event>
<event>
 5    0  0.5660959E-005  0.3009864E+03  0.7546771E-02  0.1084749E+00
         21   -1    0    0  502  501  0.00000000000E+00  0.00000000000E+00  0.20109488613E+03  0.20109488613E+03  0.00000000000E+00 0.  1.
         21   -1    0    0  501  502 -0.00000000000E+00 -0.00000000000E+00 -0.45049785254E+03  0.45049785254E+03  0.00000000000E+00 0.  1.
         25    1    1    2    0    0 -0.16038056805E+01 -0.56392627662E+02 -0.83014547450E+02  0.16030943745E+03  0.12500000000E+03 0.  0.
         25    1    1    2    0    0 -0.11285784909E+03 -0.60495938607E+02  0.56694401823E+02  0.18771230084E+03  0.12500000000E+03 0.  0.
         25    1    1    2    0    0  0.11446165477E+03  0.11688856627E+03 -0.22308282079E+03  0.30357100037E+03  0.12500000000E+03 0.  0.
</event>
<event>
 5    0  0.5660959E-005  0.4094279E+03  0.7546771E-02  0.1040563E+00
         21   -1    0    0  502  501  0.00000000000E+00  0.00000000000E+00  0.42424265366E+03  0.42424265366E+03  0.00000000000E+00 0. -1.
         21   -1    0    0  501  502 -0.00000000000E+00 -0.00000000000E+00 -0.39513044562E+03  0.39513044562E+03  0.00000000000E+00 0. -1.
         25    1    1    2    0    0 -0.10442821922E+03 -0.53142185938E+02  0.20924229725E+03  0.27043794825E+03  0.12500000000E+03 0.  0.
         25    1    1    2    0    0  0.96964145306E+02  0.24190561383E+03 -0.71718383505E+02  0.29780681324E+03  0.12500000000E+03 0.  0.
         25    1    1    2    0    0  0.74640739099E+01 -0.18876342789E+03 -0.10841170571E+03  0.25112833779E+03  0.12500000000E+03 0.  0.
</event>
<event>
 5    0  0.5660959E-005  0.5423811E+03  0.7546771E-02  0.1003273E+00
         21   -1    0    0  502  501  0.00000000000E+00  0.00000000000E+00  0.11200116533E+03  0.11200116533E+03  0.00000000000E+00 0.  1.
         21   -1    0    0  501  502 -0.00000000000E+00 -0.00000000000E+00 -0.26265558020E+04  0.26265558020E+04  0.00000000000E+00 0.  1.
         25    1    1    2    0    0  0.15886860330E+03  0.18956167023E+03 -0.50091357459E+03  0.57246158748E+03  0.12500000000E+03 0.  0.
         25    1    1    2    0    0 -0.37681761818E+03 -0.30613146743E+03 -0.15136608145E+04  0.15945225160E+04  0.12500000000E+03 0.  0.
         25    1    1    2    0    0  0.21794901488E+03  0.11656979720E+03 -0.49998024757E+03  0.57157286383E+03  0.12500000000E+03 0.  0.
</event>
<event>
 5    0  0.7352080E-005  0.2771324E+03  0.7546771E-02  0.1097266E+00
         21   -1    0    0  502  501  0.00000000000E+00  0.00000000000E+00  0.92136142694E+03  0.92136142694E+03  0.00000000000E+00 0.  1.
         21   -1    0    0  501  502 -0.00000000000E+00 -0.00000000000E+00 -0.83357481423E+02  0.83357481423E+02  0.00000000000E+00 0.  1.
         25    1    1    2    0    0 -0.54403890453E+02 -0.16895572173E+02  0.10901994150E+03  0.17537272108E+03  0.12500000000E+03 0.  0.
         25    1    1    2    0    0  0.33805178160E+02  0.61256351443E+01  0.68135078169E+03  0.69357350092E+03  0.12500000000E+03 0.  0.
         25    1    1    2    0    0  0.20598712293E+02  0.10769937029E+02  0.47633222333E+02  0.13577268636E+03  0.12500000000E+03 0.  0.
</event>
<event>
 5    0  0.5660959E-005  0.3011087E+03  0.7546771E-02  0.1084688E+00
         21   -1    0    0  502  501  0.00000000000E+00  0.00000000000E+00  0.12510641492E+03  0.12510641492E+03  0.00000000000E+00 0. -1.
         21   -1    0    0  501  502 -0.00000000000E+00 -0.00000000000E+00 -0.72471445571E+03  0.72471445571E+03  0.00000000000E+00 0. -1.
         25    1    1    2    0    0  0.31016878658E+02 -0.20771445230E+03 -0.21767752915E+03  0.32728557431E+03  0.12500000000E+03 0.  0.
         25    1    1    2    0    0  0.37347186730E+02  0.15954139485E+03 -0.22759973272E+03  0.30704219150E+03  0.12500000000E+03 0.  0.
         25    1    1    2    0    0 -0.68364065388E+02  0.48173057448E+02 -0.15433077893E+03  0.21549310482E+03  0.12500000000E+03 0.  0.
</event>
<event>
 5    0  0.5660959E-005  0.3936289E+03  0.7546771E-02  0.1046008E+00
         21   -1    0    0  502  501  0.00000000000E+00  0.00000000000E+00  0.25551516290E+03  0.25551516290E+03  0.00000000000E+00 0.  1.
         21   -1    0    0  501  502 -0.00000000000E+00 -0.00000000000E+00 -0.60639722954E+03  0.60639722954E+03  0.00000000000E+00 0.  1.
         25    1    1    2    0    0  0.17485084712E+03 -0.37260167284E+02 -0.59937700261E+02  0.22622702472E+03  0.12500000000E+03 0.  0.
         25    1    1    2    0    0 -0.64762597495E+02 -0.48873048286E+02  0.11518896701E+03  0.18835144545E+03  0.12500000000E+03 0.  0.
         25    1    1    2    0    0 -0.11008824962E+03  0.86133215570E+02 -0.40613333338E+03  0.44733392227E+03  0.12500000000E+03 0.  0.
</event>
<event>
 5    0  0.5660959E-005  0.2649042E+03  0.7546771E-02  0.1104232E+00
         21   -1    0    0  502  501  0.00000000000E+00  0.00000000000E+00  0.26920304316E+03  0.26920304316E+03  0.00000000000E+00 0. -1.
         21   -1    0    0  501  502 -0.00000000000E+00 -0.00000000000E+00 -0.26067399688E+03  0.26067399688E+03  0.00000000000E+00 0. -1.
         25    1    1    2    0    0 -0.87926710472E+02  0.36635239606E+02  0.30946250862E+02  0.16017464730E+03  0.12500000000E+03 0.  0.
         25    1    1    2    0    0 -0.44868092468E+02 -0.28108098317E+02  0.82773531790E+02  0.15899581277E+03  0.12500000000E+03 0.  0.
         25    1    1    2    0    0  0.13279480294E+03 -0.85271412883E+01 -0.10519073637E+03  0.21070657997E+03  0.12500000000E+03 0.  0.
</event>
<event>
 5    0  0.5660959E-005  0.2912869E+03  0.7546771E-02  0.1089679E+00
         21   -1    0    0  502  501  0.00000000000E+00  0.00000000000E+00  0.32653954370E+03  0.32653954370E+03  0.00000000000E+00 0. -1.
         21   -1    0    0  501  502 -0.00000000000E+00 -0.00000000000E+00 -0.25984011562E+03  0.25984011562E+03  0.00000000000E+00 0. -1.
         25    1    1    2    0    0 -0.16632147960E+03 -0.70254136656E+02  0.57791708462E+01  0.21967447988E+03  0.12500000000E+03 0.  0.
         25    1    1    2    0    0  0.14258039293E+03 -0.38465201029E+02  0.44614081171E+02  0.19855517212E+03  0.12500000000E+03 0.  0.
         25    1    1    2    0    0  0.23741086670E+02  0.10871933768E+03  0.16306176066E+02  0.16815000732E+03  0.12500000000E+03 0.  0.
</event>
<event>
 5    0  0.5660959E-005  0.2626866E+03  0.7546771E-02  0.1105540E+00
         21   -1    0    0  502  501  0.00000000000E+00  0.00000000000E+00  0.39384241793E+02  0.39384241793E+02  0.00000000000E+00 0. -1.
         21   -1    0    0  501  502 -0.00000000000E+00 -0.00000000000E+00 -0.17520772691E+04  0.17520772691E+04  0.00000000000E+00 0. -1.
         25    1    1    2    0    0 -0.15522517948E+03  0.72767220571E+02 -0.60583908855E+03  0.64191582466E+03  0.12500000000E+03 0.  0.
         25    1    1    2    0    0  0.77581856035E+02 -0.51481308882E+02 -0.45522756154E+03  0.48117190518E+03  0.12500000000E+03 0.  0.
         25    1    1    2    0    0  0.77643323446E+02 -0.21285911689E+02 -0.65162637722E+03  0.66837378105E+03  0.12500000000E+03 0.  0.
</event>
<event>
 5    0  0.5800700E-005  0.2778427E+03  0.7546771E-02  0.1096873E+00
         21   -1    0    0  502  501  0.00000000000E+00  0.00000000000E+00  0.29291989594E+03  0.29291989594E+03  0.00000000000E+00 0.  1.
         21   -1    0    0  501  502 -0.00000000000E+00 -0.00000000000E+00 -0.26354162548E+03  0.26354162548E+03  0.00000000000E+00 0.  1.
         25    1    1    2    0    0  0.10865266535E+03  0.11393391842E+03  0.15651756889E+02  0.20163411653E+03  0.12500000000E+03 0.  0.
         25    1    1    2    0    0 -0.74467194441E+02 -0.10887357378E+03  0.91650909234E+02  0.20352814862E+03  0.12500000000E+03 0.  0.
         25    1    1    2    0    0 -0.34185470911E+02 -0.50603446394E+01 -0.77924395656E+02  0.15129925627E+03  0.12500000000E+03 0.  0.
</event>
<event>
 5    0  0.5660959E-005  0.2396060E+03  0.7546771E-02  0.1120056E+00
         21   -1    0    0  502  501  0.00000000000E+00  0.00000000000E+00  0.33109514630E+02  0.33109514630E+02  0.00000000000E+00 0. -1.
         21   -1    0    0  501  502 -0.00000000000E+00 -0.00000000000E+00 -0.17339733599E+04  0.17339733599E+04  0.00000000000E+00 0. -1.
         25    1    1    2    0    0  0.11500008851E+03 -0.89256625817E+01 -0.59418322937E+03  0.61804805467E+03  0.12500000000E+03 0.  0.
         25    1    1    2    0    0 -0.24682362781E+02  0.10691776766E+02 -0.74427412500E+03  0.75517713569E+03  0.12500000000E+03 0.  0.
         25    1    1    2    0    0 -0.90317725730E+02 -0.17661141839E+01 -0.36240649093E+03  0.39385768421E+03  0.12500000000E+03 0.  0.
</event>
<event>
 5    0  0.7245795E-005  0.2635128E+03  0.7546771E-02  0.1105051E+00
         21   -1    0    0  502  501  0.00000000000E+00  0.00000000000E+00  0.22124709727E+03  0.22124709727E+03  0.00000000000E+00 0. -1.
         21   -1    0    0  501  502 -0.00000000000E+00 -0.00000000000E+00 -0.31385269898E+03  0.31385269898E+03  0.00000000000E+00 0. -1.
         25    1    1    2    0    0  0.44877992829E+02 -0.16293539216E+02  0.12475527337E+03  0.18294368503E+03  0.12500000000E+03 0.  0.
         25    1    1    2    0    0 -0.55660753606E+02 -0.33557395454E+02 -0.94759851217E+02  0.16979001056E+03  0.12500000000E+03 0.  0.
         25    1    1    2    0    0  0.10782760777E+02  0.49850934670E+02 -0.12260102387E+03  0.18236610066E+03  0.12500000000E+03 0.  0.
</event>
<event>
 5    0  0.5660959E-005  0.2301611E+03  0.7546771E-02  0.1126526E+00
         21   -1    0    0  502  501  0.00000000000E+00  0.00000000000E+00  0.77944802998E+02  0.77944802998E+02  0.00000000000E+00 0. -1.
         21   -1    0    0  501  502 -0.00000000000E+00 -0.00000000000E+00 -0.67963668153E+03  0.67963668153E+03  0.00000000000E+00 0. -1.
         25    1    1    2    0    0  0.28067585295E+02  0.67714155209E+02 -0.18723050263E+03  0.23675569111E+03  0.12500000000E+03 0.  0.
         25    1    1    2    0    0  0.66685176348E+02 -0.60264978949E+02 -0.16182108506E+03  0.22336034564E+03  0.12500000000E+03 0.  0.
         25    1    1    2    0    0 -0.94752761643E+02 -0.74491762594E+01 -0.25264029084E+03  0.29746544778E+03  0.12500000000E+03 0.  0.
</event>
<event>
 5    0  0.5660959E-005  0.3846603E+03  0.7546771E-02  0.1049225E+00
         21   -1    0    0  502  501  0.00000000000E+00  0.00000000000E+00  0.20962554734E+03  0.20962554734E+03  0.00000000000E+00 0.  1.
         21   -1    0    0  501  502 -0.00000000000E+00 -0.00000000000E+00 -0.70584708131E+03  0.70584708131E+03  0.00000000000E+00 0.  1.
         25    1    1    2    0    0 -0.24537251019E+02 -0.13045078383E+03 -0.31437431828E+03  0.36342220032E+03  0.12500000000E+03 0.  0.
         25    1    1    2    0    0 -0.24983213897E+02  0.26661687488E+03 -0.11328488426E+02  0.29573984107E+03  0.12500000000E+03 0.  0.
         25    1    1    2    0    0  0.49520464916E+02 -0.13616609104E+03 -0.17051872727E+03  0.25631058726E+03  0.12500000000E+03 0.  0.
</event>
<event>
 5    0  0.5660959E-005  0.4351199E+03  0.7546771E-02  0.1032255E+00
         21   -1    0    0  502  501  0.00000000000E+00  0.00000000000E+00  0.76152038754E+03  0.76152038754E+03  0.00000000000E+00 0.  1.
         21   -1    0    0  501  502 -0.00000000000E+00 -0.00000000000E+00 -0.24862016776E+03  0.24862016776E+03  0.00000000000E+00 0.  1.
         25    1    1    2    0    0  0.31189811930E+02  0.28677246211E+03  0.42231272866E+03  0.52648294386E+03  0.12500000000E+03 0.  0.
         25    1    1    2    0    0  0.10282617871E+03 -0.20594344419E+03  0.10643475786E+03  0.28273535844E+03  0.12500000000E+03 0.  0.
         25    1    1    2    0    0 -0.13401599064E+03 -0.80829017918E+02 -0.15847266739E+02  0.20092225299E+03  0.12500000000E+03 0.  0.
</event>
<event>
 5    0  0.5660959E-005  0.3575629E+03  0.7546771E-02  0.1059553E+00
         21   -1    0    0  502  501  0.00000000000E+00  0.00000000000E+00  0.13028445905E+04  0.13028445905E+04  0.00000000000E+00 0.  1.
         21   -1    0    0  501  502 -0.00000000000E+00 -0.00000000000E+00 -0.98132368010E+02  0.98132368010E+02  0.00000000000E+00 0.  1.
         25    1    1    2    0    0  0.52535067670E+02 -0.21815365591E+03  0.33721758057E+03  0.42390051612E+03  0.12500000000E+03 0.  0.
         25    1    1    2    0    0  0.64126022442E+02  0.84852738933E+02  0.64838383378E+03  0.66883385827E+03  0.12500000000E+03 0.  0.
         25    1    1    2    0    0 -0.11666109011E+03  0.13330091698E+03  0.21911080810E+03  0.30824258408E+03  0.12500000000E+03 0.  0.
</event>
<event>
 5    0  0.5660959E-005  0.5689187E+03  0.7546771E-02  0.9972074E-01
         21   -1    0    0  502  501  0.00000000000E+00  0.00000000000E+00  0.13689207625E+04  0.13689207625E+04  0.00000000000E+00 0.  1.
         21   -1    0    0  501  502 -0.00000000000E+00 -0.00000000000E+00 -0.23644064520E+03  0.23644064520E+03  0.00000000000E+00 0.  1.
         25    1    1    2    0    0  0.51469616978E+02  0.47654200374E+03  0.61725950718E+03  0.79143900713E+03  0.12500000000E+03 0.  0.
         25    1    1    2    0    0 -0.80271528217E+02 -0.13815598994E+02  0.10589462782E+03  0.18295644623E+03  0.12500000000E+03 0.  0.
         25    1    1    2    0    0  0.28801911239E+02 -0.46272640475E+03  0.40932598230E+03  0.63096595433E+03  0.12500000000E+03 0.  0.
</event>
<event>
 5    0  0.5660959E-005  0.4136002E+03  0.7546771E-02  0.1039170E+00
         21   -1    0    0  502  501  0.00000000000E+00  0.00000000000E+00  0.66046501702E+03  0.66046501702E+03  0.00000000000E+00 0.  1.
         21   -1    0    0  501  502 -0.00000000000E+00 -0.00000000000E+00 -0.25900704942E+03  0.25900704942E+03  0.00000000000E+00 0.  1.
         25    1    1    2    0    0 -0.13239293467E+03 -0.11135693702E+03  0.68433992512E+02  0.22413493236E+03  0.12500000000E+03 0.  0.
         25    1    1    2    0    0  0.28340116980E+03 -0.96209618489E+02  0.16230281004E+03  0.36268404415E+03  0.12500000000E+03 0.  0.
         25    1    1    2    0    0 -0.15100823514E+03  0.20756655550E+03  0.17072116505E+03  0.33265308993E+03  0.12500000000E+03 0.  0.
</event>
<event>
 5    0  0.5660959E-005  0.3238471E+03  0.7546771E-02  0.1073892E+00
         21   -1    0    0  502  501  0.00000000000E+00  0.00000000000E+00  0.24780798497E+03  0.24780798497E+03  0.00000000000E+00 0.  1.
         21   -1    0    0  501  502 -0.00000000000E+00 -0.00000000000E+00 -0.42321852837E+03  0.42321852837E+03  0.00000000000E+00 0.  1.
         25    1    1    2    0    0 -0.42319941170E+02 -0.18887073773E+03 -0.78900141894E+02  0.24354335422E+03  0.12500000000E+03 0.  0.
         25    1    1    2    0    0 -0.90171290206E+02  0.13884312583E+03  0.15245472591E+02  0.20800408554E+03  0.12500000000E+03 0.  0.
         25    1    1    2    0    0  0.13249123138E+03  0.50027611906E+02 -0.11175587410E+03  0.21947907358E+03  0.12500000000E+03 0.  0.
</event>
<event>
 5    0  0.5660959E-005  0.3220786E+03  0.7546771E-02  0.1074697E+00
         21   -1    0    0  502  501  0.00000000000E+00  0.00000000000E+00  0.13757402816E+03  0.13757402816E+03  0.00000000000E+00 0. -1.
         21   -1    0    0  501  502 -0.00000000000E+00 -0.00000000000E+00 -0.75402744438E+03  0.75402744438E+03  0.00000000000E+00 0. -1.
         25    1    1    2    0    0  0.44724304475E+02 -0.10574355198E+03 -0.16305859248E+03  0.23536156605E+03  0.12500000000E+03 0.  0.
         25    1    1    2    0    0  0.89102598958E+01  0.31441876347E+02 -0.48166387406E+03  0.49869135936E+03  0.12500000000E+03 0.  0.
         25    1    1    2    0    0 -0.53634564371E+02  0.74301675628E+02  0.28269050325E+02  0.15754854713E+03  0.12500000000E+03 0.  0.
</event>
<event>
 5    0  0.6853299E-005  0.3650381E+03  0.7546771E-02  0.1056607E+00
         21   -1    0    0  502  501  0.00000000000E+00  0.00000000000E+00  0.28992821564E+03  0.28992821564E+03  0.00000000000E+00 0.  1.
         21   -1    0    0  501  502 -0.00000000000E+00 -0.00000000000E+00 -0.45960625896E+03  0.45960625896E+03  0.00000000000E+00 0.  1.
         25    1    1    2    0    0 -0.48932806665E+01  0.90433811254E+02  0.13309628759E+03  0.20381815469E+03  0.12500000000E+03 0.  0.
         25    1    1    2    0    0 -0.67031874522E+02 -0.20861524329E+03 -0.24208574398E+03  0.34963423656E+03  0.12500000000E+03 0.  0.
         25    1    1    2    0    0  0.71925155189E+02  0.11818143204E+03 -0.60688586931E+02  0.19608208335E+03  0.12500000000E+03 0.  0.
</event>
<event>
 5    0  0.5660959E-005  0.2031100E+03  0.7546771E-02  0.1147141E+00
         21   -1    0    0  502  501  0.00000000000E+00  0.00000000000E+00  0.40437263583E+03  0.40437263583E+03  0.00000000000E+00 0. -1.
         21   -1    0    0  501  502 -0.00000000000E+00 -0.00000000000E+00 -0.10201890124E+03  0.10201890124E+03  0.00000000000E+00 0. -1.
         25    1    1    2    0    0 -0.24816145915E+02  0.87176442781E+01  0.12968679200E+03  0.18203159736E+03  0.12500000000E+03 0.  0.
         25    1    1    2    0    0 -0.15717233493E+02 -0.48754443440E+02  0.65498136639E+02  0.15013005391E+03  0.12500000000E+03 0.  0.
         25    1    1    2    0    0  0.40533379409E+02  0.40036799162E+02  0.10716880596E+03  0.17422988579E+03  0.12500000000E+03 0.  0.
</event>
<event>
 5    0  0.5660959E-005  0.2882371E+03  0.7546771E-02  0.1091273E+00
         21   -1    0    0  502  501  0.00000000000E+00  0.00000000000E+00  0.30210479573E+03  0.30210479573E+03  0.00000000000E+00 0. -1.
         21   -1    0    0  501  502 -0.00000000000E+00 -0.00000000000E+00 -0.27500598380E+03  0.27500598380E+03  0.00000000000E+00 0. -1.
         25    1    1    2    0    0 -0.10186883312E+03  0.14387443562E+03 -0.20049006839E+02  0.21703473238E+03  0.12500000000E+03 0.  0.
         25    1    1    2    0    0  0.68046532462E+02  0.24280905129E+01 -0.37421129466E+02  0.14717869117E+03  0.12500000000E+03 0.  0.
         25    1    1    2    0    0  0.33822300655E+02 -0.14630252613E+03  0.84568948237E+02  0.21289735597E+03  0.12500000000E+03 0.  0.
</event>
<event>
 5    0  0.5660959E-005  0.4726609E+03  0.7546771E-02  0.1021172E+00
         21   -1    0    0  502  501  0.00000000000E+00  0.00000000000E+00  0.10139661464E+04  0.10139661464E+04  0.00000000000E+00 0.  1.
         21   -1    0    0  501  502 -0.00000000000E+00 -0.00000000000E+00 -0.22033115178E+03  0.22033115178E+03  0.00000000000E+00 0.  1.
         25    1    1    2    0    0 -0.86566546005E+02  0.78129143267E+02  0.47020819750E+03  0.50031857742E+03  0.12500000000E+03 0.  0.
         25    1    1    2    0    0  0.10040301746E+03 -0.33087356461E+03  0.12277328569E+03  0.38762915441E+03  0.12500000000E+03 0.  0.
         25    1    1    2    0    0 -0.13836471457E+02  0.25274442134E+03  0.20065351144E+03  0.34634956636E+03  0.12500000000E+03 0.  0.
</event>
<event>
 5    0  0.5660959E-005  0.2839030E+03  0.7546771E-02  0.1093576E+00
         21   -1    0    0  502  501  0.00000000000E+00  0.00000000000E+00  0.64414635145E+02  0.64414635145E+02  0.00000000000E+00 0.  1.
         21   -1    0    0  501  502 -0.00000000000E+00 -0.00000000000E+00 -0.12512830293E+04  0.12512830293E+04  0.00000000000E+00 0.  1.
         25    1    1    2    0    0  0.16491048750E+03  0.91351855095E+02 -0.56075030506E+03  0.60465406220E+03  0.12500000000E+03 0.  0.
         25    1    1    2    0    0 -0.97445119257E+02 -0.10563591873E+03 -0.30451075792E+03  0.35917447053E+03  0.12500000000E+03 0.  0.
         25    1    1    2    0    0 -0.67465368239E+02  0.14284063633E+02 -0.32160733120E+03  0.35186913174E+03  0.12500000000E+03 0.  0.
</event>
<event>
 5    0  0.5660959E-005  0.4697684E+03  0.7546771E-02  0.1021986E+00
         21   -1    0    0  502  501  0.00000000000E+00  0.00000000000E+00  0.28818429533E+03  0.28818429533E+03  0.00000000000E+00 0. -1.
         21   -1    0    0  501  502 -0.00000000000E+00 -0.00000000000E+00 -0.76576814140E+03  0.76576814140E+03  0.00000000000E+00 0. -1.
         25    1    1    2    0    0  0.33255891715E+03 -0.16664273413E+03 -0.31235445811E+03  0.50155312950E+03  0.12500000000E+03 0.  0.
         25    1    1    2    0    0 -0.31544273878E+03  0.10657351967E+03 -0.28328016401E+02  0.35677655901E+03  0.12500000000E+03 0.  0.
         25    1    1    2    0    0 -0.17116178363E+02  0.60069214461E+02 -0.13690137155E+03  0.19562274822E+03  0.12500000000E+03 0.  0.
</event>
<event>
 5    0  0.5660959E-005  0.2414276E+03  0.7546771E-02  0.1118845E+00
         21   -1    0    0  502  501  0.00000000000E+00  0.00000000000E+00  0.25973371261E+03  0.25973371261E+03  0.00000000000E+00 0. -1.
         21   -1    0    0  501  502 -0.00000000000E+00 -0.00000000000E+00 -0.22441169095E+03  0.22441169095E+03  0.00000000000E+00 0. -1.
         25    1    1    2    0    0  0.76784160556E+00  0.87992273124E+01  0.10121046736E+03  0.16107940491E+03  0.12500000000E+03 0.  0.
         25    1    1    2    0    0  0.53398335902E+01  0.92050445974E+02 -0.26340602945E+02  0.15754563082E+03  0.12500000000E+03 0.  0.
         25    1    1    2    0    0 -0.61076751957E+01 -0.10084967329E+03 -0.39547842765E+02  0.16552036783E+03  0.12500000000E+03 0.  0.
</event>
<event>
 5    0  0.7017398E-005  0.3840879E+03  0.7546771E-02  0.1049433E+00
         21   -1    0    0  502  501  0.00000000000E+00  0.00000000000E+00  0.16066950318E+03  0.16066950318E+03  0.00000000000E+00 0. -1.
         21   -1    0    0  501  502 -0.00000000000E+00 -0.00000000000E+00 -0.91817993101E+03  0.91817993101E+03  0.00000000000E+00 0. -1.
         25    1    1    2    0    0 -0.47817714816E+02  0.17908802801E+03 -0.35958802697E+03  0.42342367054E+03  0.12500000000E+03 0.  0.
         25    1    1    2    0    0  0.17680917454E+02 -0.10919341642E+03 -0.46528338438E+03  0.49431715003E+03  0.12500000000E+03 0.  0.
         25    1    1    2    0    0  0.30136797363E+02 -0.69894611590E+02  0.67360983518E+02  0.16110861363E+03  0.12500000000E+03 0.  0.
</event>
<event>
 5    0  0.5660959E-005  0.2868356E+03  0.7546771E-02  0.1092013E+00
         21   -1    0    0  502  501  0.00000000000E+00  0.00000000000E+00  0.88894762055E+03  0.88894762055E+03  0.00000000000E+00 0.  1.
         21   -1    0    0  501  502 -0.00000000000E+00 -0.00000000000E+00 -0.92552851830E+02  0.92552851830E+02  0.00000000000E+00 0.  1.
         25    1    1    2    0    0 -0.37306852029E+02 -0.46616244964E+02  0.20087178348E+02  0.13997632027E+03  0.12500000000E+03 0.  0.
         25    1    1    2    0    0  0.88154451872E+02 -0.45708279003E+02  0.42622203130E+03  0.45513808248E+03  0.12500000000E+03 0.  0.
         25    1    1    2    0    0 -0.50847599842E+02  0.92324523967E+02  0.35008555907E+03  0.38638606963E+03  0.12500000000E+03 0.  0.
</event>
<event>
 5    0  0.5660959E-005  0.3327126E+03  0.7546771E-02  0.1069943E+00
         21   -1    0    0  502  501  0.00000000000E+00  0.00000000000E+00  0.18366237979E+04  0.18366237979E+04  0.00000000000E+00 0. -1.
         21   -1    0    0  501  502 -0.00000000000E+00 -0.00000000000E+00 -0.60272384053E+02  0.60272384053E+02  0.00000000000E+00 0. -1.
         25    1    1    2    0    0 -0.14570023448E+03 -0.10405366889E+03  0.10589283659E+04  0.10812076620E+04  0.12500000000E+03 0.  0.
         25    1    1    2    0    0  0.65338851929E+01  0.12791163596E+03  0.48134648638E+03  0.51354018170E+03  0.12500000000E+03 0.  0.
         25    1    1    2    0    0  0.13916634929E+03 -0.23857967073E+02  0.23607656157E+03  0.30214833822E+03  0.12500000000E+03 0.  0.
</event>
<event>
 5    0  0.5755922E-005  0.3004481E+03  0.7546771E-02  0.1085017E+00
         21   -1    0    0  502  501  0.00000000000E+00  0.00000000000E+00  0.74754344787E+02  0.74754344787E+02  0.00000000000E+00 0. -1.
         21   -1    0    0  501  502 -0.00000000000E+00 -0.00000000000E+00 -0.12075423497E+04  0.12075423497E+04  0.00000000000E+00 0. -1.
         25    1    1    2    0    0 -0.69198499402E+01 -0.70076311096E+01 -0.27955119337E+02  0.12846587062E+03  0.12500000000E+03 0.  0.
         25    1    1    2    0    0  0.86606472753E+02 -0.67895137851E+02 -0.56241396364E+03  0.58655340538E+03  0.12500000000E+03 0.  0.
         25    1    1    2    0    0 -0.79686622813E+02  0.74902768960E+02 -0.54241892198E+03  0.56727741853E+03  0.12500000000E+03 0.  0.
</event>
<event>
 5    0  0.5660959E-005  0.2920583E+03  0.7546771E-02  0.1089279E+00
         21   -1    0    0  502  501  0.00000000000E+00  0.00000000000E+00  0.62660879089E+02  0.62660879089E+02  0.00000000000E+00 0. -1.
         21   -1    0    0  501  502 -0.00000000000E+00 -0.00000000000E+00 -0.13612645270E+04  0.13612645270E+04  0.00000000000E+00 0. -1.
         25    1    1    2    0    0 -0.15406075243E+03 -0.35263275608E+02 -0.39647211266E+03  0.44473964312E+03  0.12500000000E+03 0.  0.
         25    1    1    2    0    0  0.19387537744E+03  0.55978172884E+02 -0.68157986874E+03  0.72173217698E+03  0.12500000000E+03 0.  0.
         25    1    1    2    0    0 -0.39814625010E+02 -0.20714897277E+02 -0.22055166649E+03  0.25745358596E+03  0.12500000000E+03 0.  0.
</event>
<event>
 5    0  0.5660959E-005  0.2450777E+03  0.7546771E-02  0.1116456E+00
         21   -1    0    0  502  501  0.00000000000E+00  0.00000000000E+00  0.62552190425E+03  0.62552190425E+03  0.00000000000E+00 0.  1.
         21   -1    0    0  501  502 -0.00000000000E+00 -0.00000000000E+00 -0.96020725641E+02  0.96020725641E+02  0.00000000000E+00 0.  1.
         25    1    1    2    0    0 -0.32449316144E+02  0.83924910754E+01  0.18352129404E+03  0.22456281391E+03  0.12500000000E+03 0.  0.
         25    1    1    2    0    0  0.96359141908E+02  0.88080400132E+02  0.22212490400E+03  0.28636989034E+03  0.12500000000E+03 0.  0.
         25    1    1    2    0    0 -0.63909825764E+02 -0.96472891208E+02  0.12385498057E+03  0.21060992564E+03  0.12500000000E+03 0.  0.
</event>
<event>
 5    0  0.5660959E-005  0.4595339E+03  0.7546771E-02  0.1024916E+00
         21   -1    0    0  502  501  0.00000000000E+00  0.00000000000E+00  0.37782341512E+03  0.37782341512E+03  0.00000000000E+00 0.  1.
         21   -1    0    0  501  502 -0.00000000000E+00 -0.00000000000E+00 -0.55891572881E+03  0.55891572881E+03  0.00000000000E+00 0.  1.
         25    1    1    2    0    0 -0.37155370140E+02  0.57552391226E+02  0.22281078237E+03  0.26450414743E+03  0.12500000000E+03 0.  0.
         25    1    1    2    0    0  0.24882053786E+03 -0.20902336383E+02 -0.27640396566E+03  0.39290293962E+03  0.12500000000E+03 0.  0.
         25    1    1    2    0    0 -0.21166516772E+03 -0.36650054843E+02 -0.12749913040E+03  0.27933205688E+03  0.12500000000E+03 0.  0.
</event>
<event>
 5    0  0.5660959E-005  0.5663569E+03  0.7546771E-02  0.9977773E-01
         21   -1    0    0  502  501  0.00000000000E+00  0.00000000000E+00  0.23146508364E+03  0.23146508364E+03  0.00000000000E+00 0.  1.
         21   -1    0    0  501  502 -0.00000000000E+00 -0.00000000000E+00 -0.13857820409E+04  0.13857820409E+04  0.00000000000E+00 0.  1.
         25    1    1    2    0    0  0.14061124957E+03  0.34479835986E+02  0.81857788994E+01  0.19144813807E+03  0.12500000000E+03 0.  0.
         25    1    1    2    0    0 -0.72678329096E+02  0.36786409371E+03 -0.49357057667E+03  0.63233143613E+03  0.12500000000E+03 0.  0.
         25    1    1    2    0    0 -0.67932920473E+02 -0.40234392970E+03 -0.66893215950E+03  0.79346755036E+03  0.12500000000E+03 0.  0.
</event>
<event>
 5    0  0.5660959E-005  0.2416713E+03  0.7546771E-02  0.1118684E+00
         21   -1    0    0  502  501  0.00000000000E+00  0.00000000000E+00  0.11189052750E+03  0.11189052750E+03  0.00000000000E+00 0. -1.
         21   -1    0    0  501  502 -0.00000000000E+00 -0.00000000000E+00 -0.52198373430E+03  0.52198373430E+03  0.00000000000E+00 0. -1.
         25    1    1    2    0    0  0.24068324596E+02 -0.58546288171E+02 -0.23618307902E+03  0.27461682200E+03  0.12500000000E+03 0.  0.
         25    1    1    2    0    0 -0.52286449447E+02  0.47353879597E+01  0.13405840950E+01  0.13558426848E+03  0.12500000000E+03 0.  0.
         25    1    1    2    0    0  0.28218124851E+02  0.53810900212E+02 -0.17525071188E+03  0.22367317132E+03  0.12500000000E+03 0.  0.
</event>
<event>
 5    0  0.5660959E-005  0.2721629E+03  0.7546771E-02  0.1100048E+00
         21   -1    0    0  502  501  0.00000000000E+00  0.00000000000E+00  0.41299787717E+02  0.41299787717E+02  0.00000000000E+00 0. -1.
         21   -1    0    0  501  502 -0.00000000000E+00 -0.00000000000E+00 -0.17935363558E+04  0.17935363558E+04  0.00000000000E+00 0. -1.
         25    1    1    2    0    0  0.46332518054E+02  0.61223215404E+02 -0.45864472970E+03  0.48153397846E+03  0.12500000000E+03 0.  0.
         25    1    1    2    0    0 -0.12723641757E+03 -0.21716155071E+02 -0.10487370049E+04  0.10640183282E+04  0.12500000000E+03 0.  0.
         25    1    1    2    0    0  0.80903899518E+02 -0.39507060334E+02 -0.24485483351E+03  0.28928383686E+03  0.12500000000E+03 0.  0.
</event>
<event>
 5    0  0.5660959E-005  0.4085209E+03  0.7546771E-02  0.1040869E+00
         21   -1    0    0  502  501  0.00000000000E+00  0.00000000000E+00  0.12495302055E+03  0.12495302055E+03  0.00000000000E+00 0.  1.
         21   -1    0    0  501  502 -0.00000000000E+00 -0.00000000000E+00 -0.13356163355E+04  0.13356163355E+04  0.00000000000E+00 0.  1.
         25    1    1    2    0    0 -0.17687374057E+03  0.20426258477E+03 -0.74351884585E+03  0.80090748391E+03  0.12500000000E+03 0.  0.
         25    1    1    2    0    0  0.23179199121E+02 -0.59955790624E+02 -0.99452639276E+01  0.14091089516E+03  0.12500000000E+03 0.  0.
         25    1    1    2    0    0  0.15369454145E+03 -0.14430679415E+03 -0.45719920515E+03  0.51875097696E+03  0.12500000000E+03 0.  0.
</event>
<event>
 5    0  0.5732576E-005  0.4082069E+03  0.7546771E-02  0.1040974E+00
         21   -1    0    0  502  501  0.00000000000E+00  0.00000000000E+00  0.19293309946E+03  0.19293309946E+03  0.00000000000E+00 0.  1.
         21   -1    0    0  501  502 -0.00000000000E+00 -0.00000000000E+00 -0.86368196987E+03  0.86368196987E+03  0.00000000000E+00 0.  1.
         25    1    1    2    0    0 -0.16251829564E+03  0.94737803343E+02 -0.14893685454E+03  0.27054506915E+03  0.12500000000E+03 0.  0.
         25    1    1    2    0    0 -0.15669251924E+02 -0.27227939074E+03 -0.32971622652E+03  0.44577952186E+03  0.12500000000E+03 0.  0.
         25    1    1    2    0    0  0.17818754756E+03  0.17754158739E+03 -0.19209578934E+03  0.34029047833E+03  0.12500000000E+03 0.  0.
</event>
<event>
 5    0  0.5660959E-005  0.2232669E+03  0.7546771E-02  0.1131471E+00
         21   -1    0    0  502  501  0.00000000000E+00  0.00000000000E+00  0.87363779144E+03  0.87363779144E+03  0.00000000000E+00 0. -1.
         21   -1    0    0  501  502 -0.00000000000E+00 -0.00000000000E+00 -0.57058079489E+02  0.57058079489E+02  0.00000000000E+00 0. -1.
         25    1    1    2    0    0 -0.62020293550E+02  0.34945037420E+02  0.23158799000E+03  0.27262734559E+03  0.12500000000E+03 0.  0.
         25    1    1    2    0    0  0.41206979805E+02 -0.71522856612E+02  0.19191743824E+03  0.24345602745E+03  0.12500000000E+03 0.  0.
         25    1    1    2    0    0  0.20813313745E+02  0.36577819192E+02  0.39307428372E+03  0.41461249789E+03  0.12500000000E+03 0.  0.
</event>
<event>
 5    0  0.6253746E-005  0.3032029E+03  0.7546771E-02  0.1083650E+00
         21   -1    0    0  502  501  0.00000000000E+00  0.00000000000E+00  0.37782458464E+03  0.37782458464E+03  0.00000000000E+00 0.  1.
         21   -1    0    0  501  502 -0.00000000000E+00 -0.00000000000E+00 -0.24331931996E+03  0.24331931996E+03  0.00000000000E+00 0.  1.
         25    1    1    2    0    0 -0.12993890686E+03 -0.73340067920E+02  0.64975748375E+02  0.20520656168E+03  0.12500000000E+03 0.  0.
         25    1    1    2    0    0  0.19647178647E+03  0.63724456698E+02  0.11429553833E+03  0.26711503017E+03  0.12500000000E+03 0.  0.
         25    1    1    2    0    0 -0.66532879610E+02  0.96156112220E+01 -0.44766022020E+02  0.14882231276E+03  0.12500000000E+03 0.  0.
</event>
<event>
 5    0  0.5660959E-005  0.3656412E+03  0.7546771E-02  0.1056372E+00
         21   -1    0    0  502  501  0.00000000000E+00  0.00000000000E+00  0.32950320024E+03  0.32950320024E+03  0.00000000000E+00 0. -1.
         21   -1    0    0  501  502 -0.00000000000E+00 -0.00000000000E+00 -0.40574257925E+03  0.40574257925E+03  0.00000000000E+00 0. -1.
         25    1    1    2    0    0 -0.28578842773E+02  0.17025364489E+03 -0.46201968940E+02  0.21808868790E+03  0.12500000000E+03 0.  0.
         25    1    1    2    0    0 -0.13815259337E+03  0.58597237498E+02  0.41080593087E+02  0.19958053619E+03  0.12500000000E+03 0.  0.
         25    1    1    2    0    0  0.16673143614E+03 -0.22885088239E+03 -0.71118003155E+02  0.31757655540E+03  0.12500000000E+03 0.  0.
</event>
<event>
 5    0  0.7634749E-005  0.4104164E+03  0.7546771E-02  0.1040231E+00
         21   -1    0    0  502  501  0.00000000000E+00  0.00000000000E+00  0.17069914882E+03  0.17069914882E+03  0.00000000000E+00 0. -1.
         21   -1    0    0  501  502 -0.00000000000E+00 -0.00000000000E+00 -0.98677481712E+03  0.98677481712E+03  0.00000000000E+00 0. -1.
         25    1    1    2    0    0  0.13471866712E+02  0.15469343427E+03  0.28684945003E+02  0.20139358448E+03  0.12500000000E+03 0.  0.
         25    1    1    2    0    0 -0.46565148727E+02 -0.19158094234E+03 -0.23340835893E+03  0.33011518075E+03  0.12500000000E+03 0.  0.
         25    1    1    2    0    0  0.33093282015E+02  0.36887508074E+02 -0.61135225438E+03  0.62596520071E+03  0.12500000000E+03 0.  0.
</event>
<event>
 5    0  0.5660959E-005  0.5897451E+03  0.7546771E-02  0.9926913E-01
         21   -1    0    0  502  501  0.00000000000E+00  0.00000000000E+00  0.37443743112E+03  0.37443743112E+03  0.00000000000E+00 0. -1.
         21   -1    0    0  501  502 -0.00000000000E+00 -0.00000000000E+00 -0.92885833597E+03  0.92885833597E+03  0.00000000000E+00 0. -1.
         25    1    1    2    0    0 -0.39273070909E+03 -0.58141626063E+02  0.57274908315E+02  0.42014672873E+03  0.12500000000E+03 0.  0.
         25    1    1    2    0    0  0.27180215154E+03 -0.82624643879E+02 -0.57911389653E+03  0.65703968412E+03  0.12500000000E+03 0.  0.
         25    1    1    2    0    0  0.12092855755E+03  0.14076626994E+03 -0.32581916636E+02  0.22610935424E+03  0.12500000000E+03 0.  0.
</event>
<event>
 5    0  0.5660959E-005  0.2941787E+03  0.7546771E-02  0.1088187E+00
         21   -1    0    0  502  501  0.00000000000E+00  0.00000000000E+00  0.63648861467E+03  0.63648861467E+03  0.00000000000E+00 0. -1.
         21   -1    0    0  501  502 -0.00000000000E+00 -0.00000000000E+00 -0.13596651199E+03  0.13596651199E+03  0.00000000000E+00 0. -1.
         25    1    1    2    0    0 -0.15889432108E+03  0.45569596057E+01  0.33599965861E+03  0.39215933208E+03  0.12500000000E+03 0.  0.
         25    1    1    2    0    0  0.70941015403E+02 -0.85635078155E+02  0.10402485891E+03  0.19700803422E+03  0.12500000000E+03 0.  0.
         25    1    1    2    0    0  0.87953305681E+02  0.81078118549E+02  0.60497585157E+02  0.18328776036E+03  0.12500000000E+03 0.  0.
</event>
<event>
 5    0  0.5923010E-005  0.2433230E+03  0.7546771E-02  0.1117599E+00
         21   -1    0    0  502  501  0.00000000000E+00  0.00000000000E+00  0.52027428170E+03  0.52027428170E+03  0.00000000000E+00 0. -1.
         21   -1    0    0  501  502 -0.00000000000E+00 -0.00000000000E+00 -0.11379783362E+03  0.11379783362E+03  0.00000000000E+00 0. -1.
         25    1    1    2    0    0  0.12169721983E+02  0.30632631083E+02  0.16432346082E+03  0.20907811937E+03  0.12500000000E+03 0.  0.
         25    1    1    2    0    0 -0.12435249493E+03 -0.40527678367E+02  0.12058540435E+03  0.21742096369E+03  0.12500000000E+03 0.  0.
         25    1    1    2    0    0  0.11218277295E+03  0.98950472838E+01  0.12156758291E+03  0.20757303226E+03  0.12500000000E+03 0.  0.
</event>
<event>
 5    0  0.5660959E-005  0.2895844E+03  0.7546771E-02  0.1090566E+00
         21   -1    0    0  502  501  0.00000000000E+00  0.00000000000E+00  0.54453406739E+03  0.54453406739E+03  0.00000000000E+00 0. -1.
         21   -1    0    0  501  502 -0.00000000000E+00 -0.00000000000E+00 -0.15400156841E+03  0.15400156841E+03  0.00000000000E+00 0. -1.
         25    1    1    2    0    0 -0.10256585512E+03 -0.49672830768E+01  0.20326918522E+03  0.25978412230E+03  0.12500000000E+03 0.  0.
         25    1    1    2    0    0  0.18688256246E+03 -0.33291102278E+02  0.16665048504E+03  0.28183465686E+03  0.12500000000E+03 0.  0.
         25    1    1    2    0    0 -0.84316707347E+02  0.38258385354E+02  0.20612828715E+02  0.15691685663E+03  0.12500000000E+03 0.  0.
</event>
<event>
 5    0  0.6049222E-005  0.2532838E+03  0.7546771E-02  0.1111247E+00
         21   -1    0    0  502  501  0.00000000000E+00  0.00000000000E+00  0.11247313356E+03  0.11247313356E+03  0.00000000000E+00 0. -1.
         21   -1    0    0  501  502 -0.00000000000E+00 -0.00000000000E+00 -0.57038227688E+03  0.57038227688E+03  0.00000000000E+00 0. -1.
         25    1    1    2    0    0 -0.32264171492E+02  0.23064330504E+02  0.41821450887E+01  0.13120758530E+03  0.12500000000E+03 0.  0.
         25    1    1    2    0    0 -0.37034142911E+02  0.65150522284E+01 -0.11070938346E+03  0.17115940299E+03  0.12500000000E+03 0.  0.
         25    1    1    2    0    0  0.69298314403E+02 -0.29579382733E+02 -0.35138190495E+03  0.38048842215E+03  0.12500000000E+03 0.  0.
</event>
<event>
 5    0  0.5660959E-005  0.2601016E+03  0.7546771E-02  0.1107082E+00
         21   -1    0    0  502  501  0.00000000000E+00  0.00000000000E+00  0.33866463534E+03  0.33866463534E+03  0.00000000000E+00 0.  1.
         21   -1    0    0  501  502 -0.00000000000E+00 -0.00000000000E+00 -0.19976357530E+03  0.19976357530E+03  0.00000000000E+00 0.  1.
         25    1    1    2    0    0  0.76821003475E+02  0.14237928014E+03  0.30455991019E+02  0.20670242712E+03  0.12500000000E+03 0.  0.
         25    1    1    2    0    0  0.20866483298E+01 -0.32123781252E+02  0.45868046715E+02  0.13698601802E+03  0.12500000000E+03 0.  0.
         25    1    1    2    0    0 -0.78907651804E+02 -0.11025549889E+03  0.62577022307E+02  0.19473976551E+03  0.12500000000E+03 0.  0.
</event>
<event>
 5    0  0.5660959E-005  0.2711805E+03  0.7546771E-02  0.1100606E+00
         21   -1    0    0  502  501  0.00000000000E+00  0.00000000000E+00  0.32392439152E+03  0.32392439152E+03  0.00000000000E+00 0.  1.
         21   -1    0    0  501  502 -0.00000000000E+00 -0.00000000000E+00 -0.22702483472E+03  0.22702483472E+03  0.00000000000E+00 0.  1.
         25    1    1    2    0    0 -0.46806373492E+02 -0.13293276277E+02 -0.10716537613E+03  0.17168857165E+03  0.12500000000E+03 0.  0.
         25    1    1    2    0    0  0.10247737549E+02 -0.80817826610E+02  0.51924698502E+02  0.15798009855E+03  0.12500000000E+03 0.  0.
         25    1    1    2    0    0  0.36558635943E+02  0.94111102887E+02  0.15214023443E+03  0.22128055604E+03  0.12500000000E+03 0.  0.
</event>
<event>
 5    0  0.5660959E-005  0.2794366E+03  0.7546771E-02  0.1095997E+00
         21   -1    0    0  502  501  0.00000000000E+00  0.00000000000E+00  0.19085380436E+03  0.19085380436E+03  0.00000000000E+00 0. -1.
         21   -1    0    0  501  502 -0.00000000000E+00 -0.00000000000E+00 -0.40913430967E+03  0.40913430967E+03  0.00000000000E+00 0. -1.
         25    1    1    2    0    0 -0.55456864945E+02 -0.71137040536E+02 -0.10755530043E+03  0.18796032841E+03  0.12500000000E+03 0.  0.
         25    1    1    2    0    0  0.13818027068E+03 -0.26741606987E+02 -0.13461558185E+03  0.23142008476E+03  0.12500000000E+03 0.  0.
         25    1    1    2    0    0 -0.82723405738E+02  0.97878647522E+02  0.23890376982E+02  0.18060770086E+03  0.12500000000E+03 0.  0.
</event>
<event>
 5    0  0.5971661E-005  0.2706326E+03  0.7546771E-02  0.1100918E+00
         21   -1    0    0  502  501  0.00000000000E+00  0.00000000000E+00  0.11827446301E+03  0.11827446301E+03  0.00000000000E+00 0. -1.
         21   -1    0    0  501  502 -0.00000000000E+00 -0.00000000000E+00 -0.61925472180E+03  0.61925472180E+03  0.00000000000E+00 0. -1.
         25    1    1    2    0    0 -0.35453823737E+02 -0.22703992811E+01 -0.25473490100E+03  0.28596677800E+03  0.12500000000E+03 0.  0.
         25    1    1    2    0    0 -0.40418581398E+02  0.45465801373E+02  0.24190486709E+02  0.14110627365E+03  0.12500000000E+03 0.  0.
         25    1    1    2    0    0  0.75872405134E+02 -0.43195402091E+02 -0.27043584450E+03  0.31045613316E+03  0.12500000000E+03 0.  0.
</event>
<event>
 5    0  0.6802169E-005  0.3420441E+03  0.7546771E-02  0.1065929E+00
         21   -1    0    0  502  501  0.00000000000E+00  0.00000000000E+00  0.18633868754E+03  0.18633868754E+03  0.00000000000E+00 0.  1.
         21   -1    0    0  501  502 -0.00000000000E+00 -0.00000000000E+00 -0.62785748640E+03  0.62785748640E+03  0.00000000000E+00 0.  1.
         25    1    1    2    0    0  0.12348634384E+03 -0.21057610964E+02 -0.33332609607E+03  0.37739049593E+03  0.12500000000E+03 0.  0.
         25    1    1    2    0    0 -0.13689949456E+03 -0.32741425090E+02 -0.19799924125E+03  0.27320719622E+03  0.12500000000E+03 0.  0.
         25    1    1    2    0    0  0.13413150721E+02  0.53799036054E+02  0.89806538469E+02  0.16359848179E+03  0.12500000000E+03 0.  0.
</event>
<event>
 5    0  0.5660959E-005  0.2714958E+03  0.7546771E-02  0.1100427E+00
         21   -1    0    0  502  501  0.00000000000E+00  0.00000000000E+00  0.17249820545E+04  0.17249820545E+04  0.00000000000E+00 0. -1.
         21   -1    0    0  501  502 -0.00000000000E+00 -0.00000000000E+00 -0.42730862687E+02  0.42730862687E+02  0.00000000000E+00 0. -1.
         25    1    1    2    0    0 -0.12015095117E+03 -0.47624428432E+02  0.39517108053E+03  0.43415379780E+03  0.12500000000E+03 0.  0.
         25    1    1    2    0    0  0.59016138097E+02  0.63458919809E+02  0.10267009853E+04  0.10379064756E+04  0.12500000000E+03 0.  0.
         25    1    1    2    0    0  0.61134813078E+02 -0.15834491377E+02  0.26037912605E+03  0.29565264378E+03  0.12500000000E+03 0.  0.
</event>
<event>
 5    0  0.5660959E-005  0.3277614E+03  0.7546771E-02  0.1072132E+00
         21   -1    0    0  502  501  0.00000000000E+00  0.00000000000E+00  0.48590375448E+03  0.48590375448E+03  0.00000000000E+00 0.  1.
         21   -1    0    0  501  502 -0.00000000000E+00 -0.00000000000E+00 -0.22108808945E+03  0.22108808945E+03  0.00000000000E+00 0.  1.
         25    1    1    2    0    0 -0.28690495710E+02 -0.18011716606E+03 -0.59268293799E+02  0.22891716560E+03  0.12500000000E+03 0.  0.
         25    1    1    2    0    0 -0.11620475830E+02  0.17704220423E+03  0.23167570253E+03  0.31745489236E+03  0.12500000000E+03 0.  0.
         25    1    1    2    0    0  0.40310971540E+02  0.30749618319E+01  0.92408256297E+02  0.16061978598E+03  0.12500000000E+03 0.  0.
</event>
<event>
 5    0  0.5660959E-005  0.4613361E+03  0.7546771E-02  0.1024394E+00
         21   -1    0    0  502  501  0.00000000000E+00  0.00000000000E+00  0.58725504632E+03  0.58725504632E+03  0.00000000000E+00 0. -1.
         21   -1    0    0  501  502 -0.00000000000E+00 -0.00000000000E+00 -0.36241656202E+03  0.36241656202E+03  0.00000000000E+00 0. -1.
         25    1    1    2    0    0 -0.14283184392E+02  0.13634477282E+03  0.10156627619E+03  0.21150559069E+03  0.12500000000E+03 0.  0.
         25    1    1    2    0    0  0.95658410947E+02  0.23253725822E+03 -0.79147072551E+02  0.29174195300E+03  0.12500000000E+03 0.  0.
         25    1    1    2    0    0 -0.81375226555E+02 -0.36888203104E+03  0.20241928065E+03  0.44642406465E+03  0.12500000000E+03 0.  0.
</event>
<event>
 5    0  0.5660959E-005  0.6286489E+03  0.7546771E-02  0.9847689E-01
         21   -1    0    0  502  501  0.00000000000E+00  0.00000000000E+00  0.13566265105E+04  0.13566265105E+04  0.00000000000E+00 0.  1.
         21   -1    0    0  501  502 -0.00000000000E+00 -0.00000000000E+00 -0.29131042909E+03  0.29131042909E+03  0.00000000000E+00 0.  1.
         25    1    1    2    0    0 -0.40870482307E+03  0.40025707543E+03  0.35308689820E+03  0.68376949077E+03  0.12500000000E+03 0.  0.
         25    1    1    2    0    0  0.35254762048E+03 -0.27658769074E+03  0.51711814957E+03  0.69557656372E+03  0.12500000000E+03 0.  0.
         25    1    1    2    0    0  0.56157202586E+02 -0.12366938470E+03  0.19511103368E+03  0.26859088514E+03  0.12500000000E+03 0.  0.
</event>
<event>
 5    0  0.5660959E-005  0.4759692E+03  0.7546771E-02  0.1020249E+00
         21   -1    0    0  502  501  0.00000000000E+00  0.00000000000E+00  0.38487289450E+03  0.38487289450E+03  0.00000000000E+00 0. -1.
         21   -1    0    0  501  502 -0.00000000000E+00 -0.00000000000E+00 -0.58862716301E+03  0.58862716301E+03  0.00000000000E+00 0. -1.
         25    1    1    2    0    0  0.18085111373E+03  0.26855787480E+03 -0.22223785497E+03  0.41212270216E+03  0.12500000000E+03 0.  0.
         25    1    1    2    0    0 -0.37487281721E+02 -0.15085881892E+03 -0.17520784114E+03  0.26549287586E+03  0.12500000000E+03 0.  0.
         25    1    1    2    0    0 -0.14336383201E+03 -0.11769905588E+03  0.19369142759E+03  0.29588447949E+03  0.12500000000E+03 0.  0.
</event>
<event>
 5    0  0.5660959E-005  0.3623908E+03  0.7546771E-02  0.1057641E+00
         21   -1    0    0  502  501  0.00000000000E+00  0.00000000000E+00  0.18497077511E+03  0.18497077511E+03  0.00000000000E+00 0.  1.
         21   -1    0    0  501  502 -0.00000000000E+00 -0.00000000000E+00 -0.70998827152E+03  0.70998827152E+03  0.00000000000E+00 0.  1.
         25    1    1    2    0    0  0.45743979448E+02 -0.62672441097E+02 -0.68252844121E+02  0.16218445443E+03  0.12500000000E+03 0.  0.
         25    1    1    2    0    0  0.30654355963E+02 -0.20431511354E+03 -0.31486552691E+03  0.39679926310E+03  0.12500000000E+03 0.  0.
         25    1    1    2    0    0 -0.76398335412E+02  0.26698755463E+03 -0.14189912539E+03  0.33597532911E+03  0.12500000000E+03 0.  0.
</event>
<event>
 5    0  0.5660959E-005  0.2891131E+03  0.7546771E-02  0.1090813E+00
         21   -1    0    0  502  501  0.00000000000E+00  0.00000000000E+00  0.78173072694E+03  0.78173072694E+03  0.00000000000E+00 0. -1.
         21   -1    0    0  501  502 -0.00000000000E+00 -0.00000000000E+00 -0.10692481236E+03  0.10692481236E+03  0.00000000000E+00 0. -1.
         25    1    1    2    0    0  0.35841264944E+02  0.15007784451E+03  0.31739717608E+03  0.37439808102E+03  0.12500000000E+03 0.  0.
         25    1    1    2    0    0  0.41030930170E+02  0.32464675578E+02  0.12763243698E+03  0.18615190399E+03  0.12500000000E+03 0.  0.
         25    1    1    2    0    0 -0.76872195114E+02 -0.18254252008E+03  0.22977630151E+03  0.32810555429E+03  0.12500000000E+03 0.  0.
</event>
<event>
 5    0  0.5660959E-005  0.4356174E+03  0.7546771E-02  0.1032100E+00
         21   -1    0    0  502  501  0.00000000000E+00  0.00000000000E+00  0.21606895480E+03  0.21606895480E+03  0.00000000000E+00 0.  1.
         21   -1    0    0  501  502 -0.00000000000E+00 -0.00000000000E+00 -0.87824996704E+03  0.87824996704E+03  0.00000000000E+00 0.  1.
         25    1    1    2    0    0  0.64628075380E+02  0.11767489391E+03 -0.29189400696E+03  0.34474814007E+03  0.12500000000E+03 0.  0.
         25    1    1    2    0    0 -0.25025886669E+03  0.11360703662E+03 -0.28828820885E+03  0.41745796254E+03  0.12500000000E+03 0.  0.
         25    1    1    2    0    0  0.18563079131E+03 -0.23128193054E+03 -0.81998796429E+02  0.33211281922E+03  0.12500000000E+03 0.  0.
</event>
<event>
 5    0  0.5660959E-005  0.3606296E+03  0.7546771E-02  0.1058335E+00
         21   -1    0    0  502  501  0.00000000000E+00  0.00000000000E+00  0.14516945359E+04  0.14516945359E+04  0.00000000000E+00 0. -1.
         21   -1    0    0  501  502 -0.00000000000E+00 -0.00000000000E+00 -0.89587521701E+02  0.89587521701E+02  0.00000000000E+00 0. -1.
         25    1    1    2    0    0 -0.18706642028E+00  0.10762662276E+02  0.10969442562E+03  0.16665454360E+03  0.12500000000E+03 0.  0.
         25    1    1    2    0    0 -0.11037320200E+03 -0.21988211851E+03  0.82943374050E+03  0.87413712862E+03  0.12500000000E+03 0.  0.
         25    1    1    2    0    0  0.11056026842E+03  0.20911945623E+03  0.42297884810E+03  0.50049038539E+03  0.12500000000E+03 0.  0.
</event>
<event>
 5    0  0.5660959E-005  0.2110430E+03  0.7546771E-02  0.1140743E+00
         21   -1    0    0  502  501  0.00000000000E+00  0.00000000000E+00  0.24852977509E+03  0.24852977509E+03  0.00000000000E+00 0.  1.
         21   -1    0    0  501  502 -0.00000000000E+00 -0.00000000000E+00 -0.17921055904E+03  0.17921055904E+03  0.00000000000E+00 0.  1.
         25    1    1    2    0    0  0.40590030732E+02 -0.16940611095E+02  0.90318266624E+02  0.16036497181E+03  0.12500000000E+03 0.  0.
         25    1    1    2    0    0 -0.12653578627E+02  0.32668415884E+02 -0.42403595844E+02  0.13656647974E+03  0.12500000000E+03 0.  0.
         25    1    1    2    0    0 -0.27936452106E+02 -0.15727804789E+02  0.21404545270E+02  0.13080888257E+03  0.12500000000E+03 0.  0.
</event>
<event>
 5    0  0.5660959E-005  0.2452726E+03  0.7546771E-02  0.1116329E+00
         21   -1    0    0  502  501  0.00000000000E+00  0.00000000000E+00  0.14551303150E+03  0.14551303150E+03  0.00000000000E+00 0. -1.
         21   -1    0    0  501  502 -0.00000000000E+00 -0.00000000000E+00 -0.41342444740E+03  0.41342444740E+03  0.00000000000E+00 0. -1.
         25    1    1    2    0    0 -0.94168588050E+02  0.62110920122E+02 -0.66777632004E+02  0.18113459501E+03  0.12500000000E+03 0.  0.
         25    1    1    2    0    0  0.27937991205E+02  0.45364757238E+02 -0.12460157733E+03  0.18436118253E+03  0.12500000000E+03 0.  0.
         25    1    1    2    0    0  0.66230596846E+02 -0.10747567736E+03 -0.76532206564E+02  0.19344170136E+03  0.12500000000E+03 0.  0.
</event>
<event>
 5    0  0.5660959E-005  0.4175187E+03  0.7546771E-02  0.1037877E+00
         21   -1    0    0  502  501  0.00000000000E+00  0.00000000000E+00  0.70658284546E+03  0.70658284546E+03  0.00000000000E+00 0.  1.
         21   -1    0    0  501  502 -0.00000000000E+00 -0.00000000000E+00 -0.24671110091E+03  0.24671110091E+03  0.00000000000E+00 0.  1.
         25    1    1    2    0    0  0.23159386768E+02 -0.15493732919E+03  0.24066528134E+03  0.31318798000E+03  0.12500000000E+03 0.  0.
         25    1    1    2    0    0 -0.15428757966E+03 -0.14834149309E+03  0.80888383275E+02  0.26072550002E+03  0.12500000000E+03 0.  0.
         25    1    1    2    0    0  0.13112819289E+03  0.30327882229E+03  0.13831807994E+03  0.37938046636E+03  0.12500000000E+03 0.  0.
</event>
<event>
 5    0  0.5660959E-005  0.5409198E+03  0.7546771E-02  0.1003618E+00
         21   -1    0    0  502  501  0.00000000000E+00  0.00000000000E+00  0.62885429443E+03  0.62885429443E+03  0.00000000000E+00 0. -1.
         21   -1    0    0  501  502 -0.00000000000E+00 -0.00000000000E+00 -0.46528140147E+03  0.46528140147E+03  0.00000000000E+00 0. -1.
         25    1    1    2    0    0  0.37184554251E+03  0.24473781111E+03 -0.58850596518E+02  0.46610524174E+03  0.12500000000E+03 0.  0.
         25    1    1    2    0    0 -0.38306278644E+03 -0.21008298000E+03  0.19742673315E+03  0.49545360208E+03  0.12500000000E+03 0.  0.
         25    1    1    2    0    0  0.11217243937E+02 -0.34654831101E+02  0.24996756321E+02  0.13257685208E+03  0.12500000000E+03 0.  0.
</event>
<event>
 5    0  0.5660959E-005  0.2504866E+03  0.7546771E-02  0.1112998E+00
         21   -1    0    0  502  501  0.00000000000E+00  0.00000000000E+00  0.12704261091E+04  0.12704261091E+04  0.00000000000E+00 0.  1.
         21   -1    0    0  501  502 -0.00000000000E+00 -0.00000000000E+00 -0.49387770646E+02  0.49387770646E+02  0.00000000000E+00 0.  1.
         25    1    1    2    0    0  0.82398754898E+01  0.23114788904E+02  0.80092086228E+03  0.81098792633E+03  0.12500000000E+03 0.  0.
         25    1    1    2    0    0  0.33233773968E+02 -0.49792889877E+02  0.29171849188E+03  0.32296825559E+03  0.12500000000E+03 0.  0.
         25    1    1    2    0    0 -0.41473649458E+02  0.26678100973E+02  0.12839898426E+03  0.18585769780E+03  0.12500000000E+03 0.  0.
</event>
<event>
 5    0  0.5660959E-005  0.2553486E+03  0.7546771E-02  0.1109971E+00
         21   -1    0    0  502  501  0.00000000000E+00  0.00000000000E+00  0.80040016343E+03  0.80040016343E+03  0.00000000000E+00 0. -1.
         21   -1    0    0  501  502 -0.00000000000E+00 -0.00000000000E+00 -0.81462887412E+02  0.81462887412E+02  0.00000000000E+00 0. -1.
         25    1    1    2    0    0 -0.11822454989E+03 -0.14671241113E+02  0.36532245004E+03  0.40407645566E+03  0.12500000000E+03 0.  0.
         25    1    1    2    0    0  0.78454333824E+02 -0.16564974034E+01  0.66854026912E+02  0.16202557636E+03  0.12500000000E+03 0.  0.
         25    1    1    2    0    0  0.39770216069E+02  0.16327738517E+02  0.28676079907E+03  0.31576101883E+03  0.12500000000E+03 0.  0.
</event>
<event>
 5    0  0.5660959E-005  0.3850722E+03  0.7546771E-02  0.1049075E+00
         21   -1    0    0  502  501  0.00000000000E+00  0.00000000000E+00  0.32945472031E+03  0.32945472031E+03  0.00000000000E+00 0. -1.
         21   -1    0    0  501  502 -0.00000000000E+00 -0.00000000000E+00 -0.45007891543E+03  0.45007891543E+03  0.00000000000E+00 0. -1.
         25    1    1    2    0    0 -0.75683378579E+02 -0.14476140490E+03  0.87600140302E+02  0.22356793760E+03  0.12500000000E+03 0.  0.
         25    1    1    2    0    0  0.18445106756E+03  0.10240945465E+03 -0.27849177338E+03  0.37106948213E+03  0.12500000000E+03 0.  0.
         25    1    1    2    0    0 -0.10876768898E+03  0.42351950250E+02  0.70267437959E+02  0.18489621600E+03  0.12500000000E+03 0.  0.
</event>
<event>
 5    0  0.5660959E-005  0.3241075E+03  0.7546771E-02  0.1073774E+00
         21   -1    0    0  502  501  0.00000000000E+00  0.00000000000E+00  0.19893706416E+04  0.19893706416E+04  0.00000000000E+00 0.  1.
         21   -1    0    0  501  502 -0.00000000000E+00 -0.00000000000E+00 -0.52803473451E+02  0.52803473451E+02  0.00000000000E+00 0.  1.
         25    1    1    2    0    0 -0.53011117285E+02 -0.14482620470E+03  0.11748970354E+04  0.11915506082E+04  0.12500000000E+03 0.  0.
         25    1    1    2    0    0  0.50194088795E+02  0.18344803406E+03  0.60558488577E+03  0.64693947292E+03  0.12500000000E+03 0.  0.
         25    1    1    2    0    0  0.28170284897E+01 -0.38621829359E+02  0.15608524700E+03  0.20368403394E+03  0.12500000000E+03 0.  0.
</event>
<event>
 5    0  0.5660959E-005  0.4310646E+03  0.7546771E-02  0.1033524E+00
         21   -1    0    0  502  501  0.00000000000E+00  0.00000000000E+00  0.40070504317E+03  0.40070504317E+03  0.00000000000E+00 0.  1.
         21   -1    0    0  501  502 -0.00000000000E+00 -0.00000000000E+00 -0.46372434758E+03  0.46372434758E+03  0.00000000000E+00 0.  1.
         25    1    1    2    0    0  0.27013489483E+03 -0.94809103962E+02  0.15731247656E+03  0.34976255214E+03  0.12500000000E+03 0.  0.
         25    1    1    2    0    0 -0.27975571870E+02  0.29785935954E+02  0.34479460963E+02  0.13595465358E+03  0.12500000000E+03 0.  0.
         25    1    1    2    0    0 -0.24215932296E+03  0.65023168007E+02 -0.25481124193E+03  0.37871218503E+03  0.12500000000E+03 0.  0.
</event>
<event>
 5    0  0.6274250E-005  0.2673344E+03  0.7546771E-02  0.1102815E+00
         21   -1    0    0  502  501  0.00000000000E+00  0.00000000000E+00  0.66887042231E+03  0.66887042231E+03  0.00000000000E+00 0. -1.
         21   -1    0    0  501  502 -0.00000000000E+00 -0.00000000000E+00 -0.10684834853E+03  0.10684834853E+03  0.00000000000E+00 0. -1.
         25    1    1    2    0    0 -0.62954136645E+02  0.20722166281E+02  0.83422474536E+02  0.16424658521E+03  0.12500000000E+03 0.  0.
         25    1    1    2    0    0  0.16380193168E+03 -0.98751887796E+01  0.34639862942E+03  0.40316944656E+03  0.12500000000E+03 0.  0.
         25    1    1    2    0    0 -0.10084779503E+03 -0.10846977501E+02  0.13220096982E+03  0.20830273907E+03  0.12500000000E+03 0.  0.
</event>
<event>
 5    0  0.7027271E-005  0.2706907E+03  0.7546771E-02  0.1100885E+00
         21   -1    0    0  502  501  0.00000000000E+00  0.00000000000E+00  0.24485986965E+03  0.24485986965E+03  0.00000000000E+00 0. -1.
         21   -1    0    0  501  502 -0.00000000000E+00 -0.00000000000E+00 -0.29924647568E+03  0.29924647568E+03  0.00000000000E+00 0. -1.
         25    1    1    2    0    0 -0.76356334867E+02 -0.75272873776E+02 -0.12138817690E+02  0.16513220854E+03  0.12500000000E+03 0.  0.
         25    1    1    2    0    0  0.15361292902E+03 -0.13356718579E+02 -0.57596579602E+02  0.20668260661E+03  0.12500000000E+03 0.  0.
         25    1    1    2    0    0 -0.77256594151E+02  0.88629592354E+02  0.15348791265E+02  0.17229153019E+03  0.12500000000E+03 0.  0.
</event>
<event>
 5    0  0.9931145E-005  0.4755322E+03  0.7546771E-02  0.1020370E+00
         21   -1    0    0  502  501  0.00000000000E+00  0.00000000000E+00  0.11196596302E+04  0.11196596302E+04  0.00000000000E+00 0.  1.
         21   -1    0    0  501  502 -0.00000000000E+00 -0.00000000000E+00 -0.20196397784E+03  0.20196397784E+03  0.00000000000E+00 0.  1.
         25    1    1    2    0    0 -0.20427706262E+03 -0.24292931338E+03  0.21475387726E+03  0.40309799975E+03  0.12500000000E+03 0.  0.
         25    1    1    2    0    0  0.13491958607E+03  0.10134514590E+03  0.68506982025E+03  0.71653317573E+03  0.12500000000E+03 0.  0.
         25    1    1    2    0    0  0.69357476549E+02  0.14158416748E+03  0.17871954839E+02  0.20199243254E+03  0.12500000000E+03 0.  0.
</event>
<event>
 5    0  0.5660959E-005  0.3015713E+03  0.7546771E-02  0.1084458E+00
         21   -1    0    0  502  501  0.00000000000E+00  0.00000000000E+00  0.11819145051E+04  0.11819145051E+04  0.00000000000E+00 0.  1.
         21   -1    0    0  501  502 -0.00000000000E+00 -0.00000000000E+00 -0.76947425612E+02  0.76947425612E+02  0.00000000000E+00 0.  1.
         25    1    1    2    0    0 -0.66842475171E+02 -0.66440210389E+02  0.32915866528E+03  0.36448956772E+03  0.12500000000E+03 0.  0.
         25    1    1    2    0    0 -0.73218827779E+02  0.71968955628E+02  0.64630785802E+03  0.66624272953E+03  0.12500000000E+03 0.  0.
         25    1    1    2    0    0  0.14006130295E+03 -0.55287452391E+01  0.12950055617E+03  0.22812963344E+03  0.12500000000E+03 0.  0.
</event>
<event>
 5    0  0.5660959E-005  0.9415568E+03  0.7546771E-02  0.9375074E-01
         21   -1    0    0  502  501  0.00000000000E+00  0.00000000000E+00  0.10780117602E+04  0.10780117602E+04  0.00000000000E+00 0. -1.
         21   -1    0    0  501  502 -0.00000000000E+00 -0.00000000000E+00 -0.82237437235E+03  0.82237437235E+03  0.00000000000E+00 0. -1.
         25    1    1    2    0    0 -0.20376970602E+03  0.14086226942E+03  0.36225535773E+03  0.45630934271E+03  0.12500000000E+03 0.  0.
         25    1    1    2    0    0 -0.33851689425E+03  0.20007445166E+03  0.43236265565E+03  0.59765034921E+03  0.12500000000E+03 0.  0.
         25    1    1    2    0    0  0.54228660028E+03 -0.34093672108E+03 -0.53898062557E+03  0.84642644061E+03  0.12500000000E+03 0.  0.
</event>
<event>
 5    0  0.5660959E-005  0.2744391E+03  0.7546771E-02  0.1098766E+00
         21   -1    0    0  502  501  0.00000000000E+00  0.00000000000E+00  0.52386837796E+02  0.52386837796E+02  0.00000000000E+00 0. -1.
         21   -1    0    0  501  502 -0.00000000000E+00 -0.00000000000E+00 -0.14377047256E+04  0.14377047256E+04  0.00000000000E+00 0. -1.
         25    1    1    2    0    0 -0.67724933554E+02 -0.31568071039E+02 -0.10295181770E+04  0.10397672271E+04  0.12500000000E+03 0.  0.
         25    1    1    2    0    0  0.29352670499E+02 -0.21051970722E+02 -0.21358181979E+03  0.25009389933E+03  0.12500000000E+03 0.  0.
         25    1    1    2    0    0  0.38372263054E+02  0.52620041761E+02 -0.14221789097E+03  0.20023043694E+03  0.12500000000E+03 0.  0.
</event>
<event>
 5    0  0.5660959E-005  0.2475367E+03  0.7546771E-02  0.1114872E+00
         21   -1    0    0  502  501  0.00000000000E+00  0.00000000000E+00  0.69198649870E+02  0.69198649870E+02  0.00000000000E+00 0. -1.
         21   -1    0    0  501  502 -0.00000000000E+00 -0.00000000000E+00 -0.88548548454E+03  0.88548548454E+03  0.00000000000E+00 0. -1.
         25    1    1    2    0    0 -0.14210205262E+02  0.52468510112E+01 -0.12554253718E+03  0.17780716527E+03  0.12500000000E+03 0.  0.
         25    1    1    2    0    0 -0.50882843326E+02  0.77408820535E+02 -0.51013465991E+03  0.53333250462E+03  0.12500000000E+03 0.  0.
         25    1    1    2    0    0  0.65093048588E+02 -0.82655671546E+02 -0.18060963758E+03  0.24354446453E+03  0.12500000000E+03 0.  0.
</event>
<event>
 5    0  0.5660959E-005  0.2856696E+03  0.7546771E-02  0.1092632E+00
         21   -1    0    0  502  501  0.00000000000E+00  0.00000000000E+00  0.82774794265E+02  0.82774794265E+02  0.00000000000E+00 0. -1.
         21   -1    0    0  501  502 -0.00000000000E+00 -0.00000000000E+00 -0.98589343478E+03  0.98589343478E+03  0.00000000000E+00 0. -1.
         25    1    1    2    0    0 -0.15396766387E+03  0.20368346469E+02 -0.60751340973E+03  0.63938912569E+03  0.12500000000E+03 0.  0.
         25    1    1    2    0    0  0.12482191440E+03 -0.30298975500E+02 -0.14068254251E+03  0.22784888852E+03  0.12500000000E+03 0.  0.
         25    1    1    2    0    0  0.29145749469E+02  0.99306290310E+01 -0.15492268828E+03  0.20143021483E+03  0.12500000000E+03 0.  0.
</event>
<event>
 5    0  0.5660959E-005  0.3581264E+03  0.7546771E-02  0.1059328E+00
         21   -1    0    0  502  501  0.00000000000E+00  0.00000000000E+00  0.33329709852E+02  0.33329709852E+02  0.00000000000E+00 0.  1.
         21   -1    0    0  501  502 -0.00000000000E+00 -0.00000000000E+00 -0.38480532325E+04  0.38480532325E+04  0.00000000000E+00 0.  1.
         25    1    1    2    0    0 -0.15048398251E+03 -0.12526160076E+03 -0.23337592062E+04  0.23452916514E+04  0.12500000000E+03 0.  0.
         25    1    1    2    0    0  0.21275674422E+03  0.84003543564E+02 -0.10125284957E+04  0.10455433909E+04  0.12500000000E+03 0.  0.
         25    1    1    2    0    0 -0.62272761711E+02  0.41258057197E+02 -0.46843582077E+03  0.49054790012E+03  0.12500000000E+03 0.  0.
</event>
<event>
 5    0  0.5660959E-005  0.2380324E+03  0.7546771E-02  0.1121111E+00
         21   -1    0    0  502  501  0.00000000000E+00  0.00000000000E+00  0.11463436100E+03  0.11463436100E+03  0.00000000000E+00 0.  1.
         21   -1    0    0  501  502 -0.00000000000E+00 -0.00000000000E+00 -0.49426227730E+03  0.49426227730E+03  0.00000000000E+00 0.  1.
         25    1    1    2    0    0 -0.49379136280E+02  0.22036153435E+02 -0.31622203229E+02  0.13981721959E+03  0.12500000000E+03 0.  0.
         25    1    1    2    0    0 -0.32357933917E+02  0.15910901683E+02 -0.26220487425E+03  0.29270563500E+03  0.12500000000E+03 0.  0.
         25    1    1    2    0    0  0.81737070197E+02 -0.37947055118E+02 -0.85800838819E+02  0.17637378371E+03  0.12500000000E+03 0.  0.
</event>
<event>
 5    0  0.5660959E-005  0.3397903E+03  0.7546771E-02  0.1066885E+00
         21   -1    0    0  502  501  0.00000000000E+00  0.00000000000E+00  0.81635092585E+03  0.81635092585E+03  0.00000000000E+00 0. -1.
         21   -1    0    0  501  502 -0.00000000000E+00 -0.00000000000E+00 -0.14143116134E+03  0.14143116134E+03  0.00000000000E+00 0. -1.
         25    1    1    2    0    0 -0.57614629175E+02  0.10341197249E+03  0.17677418273E+03  0.24675411492E+03  0.12500000000E+03 0.  0.
         25    1    1    2    0    0 -0.63173338705E+02 -0.23543813746E+03  0.36124419669E+03  0.45337000004E+03  0.12500000000E+03 0.  0.
         25    1    1    2    0    0  0.12078796788E+03  0.13202616496E+03  0.13690138509E+03  0.25765797224E+03  0.12500000000E+03 0.  0.
</event>
<event>
 5    0  0.5660959E-005  0.3777945E+03  0.7546771E-02  0.1051752E+00
         21   -1    0    0  502  501  0.00000000000E+00  0.00000000000E+00  0.33785118884E+03  0.33785118884E+03  0.00000000000E+00 0.  1.
         21   -1    0    0  501  502 -0.00000000000E+00 -0.00000000000E+00 -0.42246031223E+03  0.42246031223E+03  0.00000000000E+00 0.  1.
         25    1    1    2    0    0  0.14802401952E+03 -0.88199724173E+02 -0.24983099158E+03  0.32822374389E+03  0.12500000000E+03 0.  0.
         25    1    1    2    0    0  0.24859950965E+02 -0.69826681569E+01  0.15146348735E+03  0.19807312493E+03  0.12500000000E+03 0.  0.
         25    1    1    2    0    0 -0.17288397049E+03  0.95182392330E+02  0.13758380840E+02  0.23401463224E+03  0.12500000000E+03 0.  0.
</event>
<event>
 5    0  0.5660959E-005  0.2790466E+03  0.7546771E-02  0.1096211E+00
         21   -1    0    0  502  501  0.00000000000E+00  0.00000000000E+00  0.32065370584E+03  0.32065370584E+03  0.00000000000E+00 0.  1.
         21   -1    0    0  501  502 -0.00000000000E+00 -0.00000000000E+00 -0.24283832087E+03  0.24283832087E+03  0.00000000000E+00 0.  1.
         25    1    1    2    0    0  0.10414358057E+03  0.44077711628E+02 -0.50434627050E+01  0.16863916079E+03  0.12500000000E+03 0.  0.
         25    1    1    2    0    0  0.31056191725E+02  0.90469371930E+01  0.14427190803E+03  0.19361228670E+03  0.12500000000E+03 0.  0.
         25    1    1    2    0    0 -0.13519977229E+03 -0.53124648821E+02 -0.61413060350E+02  0.20124057921E+03  0.12500000000E+03 0.  0.
</event>
<event>
 5    0  0.5660959E-005  0.3650965E+03  0.7546771E-02  0.1056584E+00
         21   -1    0    0  502  501  0.00000000000E+00  0.00000000000E+00  0.99513176623E+03  0.99513176623E+03  0.00000000000E+00 0.  1.
         21   -1    0    0  501  502 -0.00000000000E+00 -0.00000000000E+00 -0.13394751420E+03  0.13394751420E+03  0.00000000000E+00 0.  1.
         25    1    1    2    0    0  0.11995160254E+02 -0.56582525571E+01  0.94265623052E+02  0.15712067776E+03  0.12500000000E+03 0.  0.
         25    1    1    2    0    0 -0.10305846790E+03 -0.24205224934E+03  0.48693531840E+03  0.56739875179E+03  0.12500000000E+03 0.  0.
         25    1    1    2    0    0  0.91063307647E+02  0.24771050190E+03  0.27998331057E+03  0.40455985089E+03  0.12500000000E+03 0.  0.
</event>
<event>
 5    0  0.5660959E-005  0.4435015E+03  0.7546771E-02  0.1029678E+00
         21   -1    0    0  502  501  0.00000000000E+00  0.00000000000E+00  0.57988535456E+02  0.57988535456E+02  0.00000000000E+00 0.  1.
         21   -1    0    0  501  502 -0.00000000000E+00 -0.00000000000E+00 -0.33919392223E+04  0.33919392223E+04  0.00000000000E+00 0.  1.
         25    1    1    2    0    0 -0.14239184328E+03  0.11111971055E+03 -0.43068883620E+03  0.48346757981E+03  0.12500000000E+03 0.  0.
         25    1    1    2    0    0  0.13412871264E+03 -0.31185142822E+03 -0.20154515741E+04  0.20476600969E+04  0.12500000000E+03 0.  0.
         25    1    1    2    0    0  0.82631306357E+01  0.20073171768E+03 -0.88781027655E+03  0.91880008106E+03  0.12500000000E+03 0.  0.
</event>
<event>
 5    0  0.5660959E-005  0.3213012E+03  0.7546771E-02  0.1075052E+00
         21   -1    0    0  502  501  0.00000000000E+00  0.00000000000E+00  0.27703175906E+03  0.27703175906E+03  0.00000000000E+00 0. -1.
         21   -1    0    0  501  502 -0.00000000000E+00 -0.00000000000E+00 -0.37264482995E+03  0.37264482995E+03  0.00000000000E+00 0. -1.
         25    1    1    2    0    0  0.73486124259E+02  0.93459230872E+02 -0.25545109605E+01  0.17252931293E+03  0.12500000000E+03 0.  0.
         25    1    1    2    0    0 -0.21313726543E+02  0.14518140486E+03 -0.52340541771E+02  0.19974095116E+03  0.12500000000E+03 0.  0.
         25    1    1    2    0    0 -0.52172397716E+02 -0.23864063573E+03 -0.40718018156E+02  0.27740632493E+03  0.12500000000E+03 0.  0.
</event>
<event>
 5    0  0.5660959E-005  0.3698785E+03  0.7546771E-02  0.1054739E+00
         21   -1    0    0  502  501  0.00000000000E+00  0.00000000000E+00  0.84504546625E+03  0.84504546625E+03  0.00000000000E+00 0.  1.
         21   -1    0    0  501  502 -0.00000000000E+00 -0.00000000000E+00 -0.16189676401E+03  0.16189676401E+03  0.00000000000E+00 0.  1.
         25    1    1    2    0    0 -0.12208599327E+03 -0.10112062692E+03  0.23893072019E+03  0.31279907287E+03  0.12500000000E+03 0.  0.
         25    1    1    2    0    0 -0.45064451455E+02  0.22699502686E+03  0.12152409487E+03  0.28974239013E+03  0.12500000000E+03 0.  0.
         25    1    1    2    0    0  0.16715044472E+03 -0.12587439993E+03  0.32269388718E+03  0.40440076725E+03  0.12500000000E+03 0.  0.
</event>
<event>
 5    0  0.5660959E-005  0.2796919E+03  0.7546771E-02  0.1095857E+00
         21   -1    0    0  502  501  0.00000000000E+00  0.00000000000E+00  0.14210744645E+04  0.14210744645E+04  0.00000000000E+00 0.  1.
         21   -1    0    0  501  502 -0.00000000000E+00 -0.00000000000E+00 -0.55048168474E+02  0.55048168474E+02  0.00000000000E+00 0.  1.
         25    1    1    2    0    0  0.23646142118E+02  0.23902873985E+02  0.19671789414E+03  0.23548549275E+03  0.12500000000E+03 0.  0.
         25    1    1    2    0    0  0.45231293126E+02 -0.93169201339E+02  0.98132199048E+03  0.99465784015E+03  0.12500000000E+03 0.  0.
         25    1    1    2    0    0 -0.68877435245E+02  0.69266327355E+02  0.18798641137E+03  0.24597930005E+03  0.12500000000E+03 0.  0.
</event>
<event>
 5    0  0.5927817E-005  0.4555457E+03  0.7546771E-02  0.1026081E+00
         21   -1    0    0  502  501  0.00000000000E+00  0.00000000000E+00  0.45616116987E+03  0.45616116987E+03  0.00000000000E+00 0.  1.
         21   -1    0    0  501  502 -0.00000000000E+00 -0.00000000000E+00 -0.45493096820E+03  0.45493096820E+03  0.00000000000E+00 0.  1.
         25    1    1    2    0    0  0.21235987763E+03 -0.21024796082E+03 -0.91298461424E+02  0.33654320929E+03  0.12500000000E+03 0.  0.
         25    1    1    2    0    0 -0.11022102987E+03  0.29461978777E+02 -0.15401311295E+03  0.22882683972E+03  0.12500000000E+03 0.  0.
         25    1    1    2    0    0 -0.10213884777E+03  0.18078598204E+03  0.24654177604E+03  0.34572208905E+03  0.12500000000E+03 0.  0.
</event>
<event>
 5    0  0.5660959E-005  0.2440271E+03  0.7546771E-02  0.1117139E+00
         21   -1    0    0  502  501  0.00000000000E+00  0.00000000000E+00  0.91016613435E+02  0.91016613435E+02  0.00000000000E+00 0. -1.
         21   -1    0    0  501  502 -0.00000000000E+00 -0.00000000000E+00 -0.65426738314E+03  0.65426738314E+03  0.00000000000E+00 0. -1.
         25    1    1    2    0    0 -0.14385635952E+02 -0.30557876345E+02 -0.14691294889E+03  0.19582937696E+03  0.12500000000E+03 0.  0.
         25    1    1    2    0    0  0.79554509484E+02  0.10175527498E+03 -0.12787549432E+03  0.22059056647E+03  0.12500000000E+03 0.  0.
         25    1    1    2    0    0 -0.65168873533E+02 -0.71197398634E+02 -0.28846232650E+03  0.32886405316E+03  0.12500000000E+03 0.  0.
</event>
<event>
 5    0  0.6175138E-005  0.3459539E+03  0.7546771E-02  0.1064288E+00
         21   -1    0    0  502  501  0.00000000000E+00  0.00000000000E+00  0.29831651287E+03  0.29831651287E+03  0.00000000000E+00 0.  1.
         21   -1    0    0  501  502 -0.00000000000E+00 -0.00000000000E+00 -0.40119838449E+03  0.40119838449E+03  0.00000000000E+00 0.  1.
         25    1    1    2    0    0  0.41119059891E+02 -0.83076031274E+02  0.57596630242E+02  0.16593605959E+03  0.12500000000E+03 0.  0.
         25    1    1    2    0    0 -0.16855769896E+03  0.14433714229E+03 -0.21908640545E+03  0.33595946419E+03  0.12500000000E+03 0.  0.
         25    1    1    2    0    0  0.12743863907E+03 -0.61261111020E+02  0.58607903587E+02  0.19761937358E+03  0.12500000000E+03 0.  0.
</event>
<event>
 5    0  0.5660959E-005  0.2874822E+03  0.7546771E-02  0.1091671E+00
         21   -1    0    0  502  501  0.00000000000E+00  0.00000000000E+00  0.91497663288E+02  0.91497663288E+02  0.00000000000E+00 0.  1.
         21   -1    0    0  501  502 -0.00000000000E+00 -0.00000000000E+00 -0.90325830187E+03  0.90325830187E+03  0.00000000000E+00 0.  1.
         25    1    1    2    0    0 -0.13242276535E+03 -0.86725897063E+01 -0.52483772977E+03  0.55559935671E+03  0.12500000000E+03 0.  0.
         25    1    1    2    0    0  0.13979075805E+03 -0.49910459680E+02 -0.17439838452E+03  0.26090670084E+03  0.12500000000E+03 0.  0.
         25    1    1    2    0    0 -0.73679926962E+01  0.58583049386E+02 -0.11252452430E+03  0.17824990760E+03  0.12500000000E+03 0.  0.
</event>
<event>
 5    0  0.5660959E-005  0.2384677E+03  0.7546771E-02  0.1120818E+00
         21   -1    0    0  502  501  0.00000000000E+00  0.00000000000E+00  0.33668634135E+03  0.33668634135E+03  0.00000000000E+00 0. -1.
         21   -1    0    0  501  502 -0.00000000000E+00 -0.00000000000E+00 -0.16890161401E+03  0.16890161401E+03  0.00000000000E+00 0. -1.
         25    1    1    2    0    0 -0.64604869220E+02 -0.27983407544E+02  0.13065099837E+03  0.19404005669E+03  0.12500000000E+03 0.  0.
         25    1    1    2    0    0  0.65029940636E+02  0.65254941098E+02  0.79437692559E+02  0.17442031853E+03  0.12500000000E+03 0.  0.
         25    1    1    2    0    0 -0.42507141648E+00 -0.37271533554E+02 -0.42303963597E+02  0.13712758014E+03  0.12500000000E+03 0.  0.
</event>
<event>
 5    0  0.5660959E-005  0.3423724E+03  0.7546771E-02  0.1065790E+00
         21   -1    0    0  502  501  0.00000000000E+00  0.00000000000E+00  0.37366205584E+03  0.37366205584E+03  0.00000000000E+00 0. -1.
         21   -1    0    0  501  502 -0.00000000000E+00 -0.00000000000E+00 -0.31370294384E+03  0.31370294384E+03  0.00000000000E+00 0. -1.
         25    1    1    2    0    0  0.67034703150E+02  0.32045953157E+02 -0.19808321410E+03  0.24572861911E+03  0.12500000000E+03 0.  0.
         25    1    1    2    0    0 -0.13594828876E+03 -0.25438137037E+02  0.56916552523E+02  0.19491929095E+03  0.12500000000E+03 0.  0.
         25    1    1    2    0    0  0.68913585612E+02 -0.66078161204E+01  0.20112577357E+03  0.24671708962E+03  0.12500000000E+03 0.  0.
</event>
<event>
 5    0  0.5660959E-005  0.2494544E+03  0.7546771E-02  0.1113650E+00
         21   -1    0    0  502  501  0.00000000000E+00  0.00000000000E+00  0.87576293622E+03  0.87576293622E+03  0.00000000000E+00 0. -1.
         21   -1    0    0  501  502 -0.00000000000E+00 -0.00000000000E+00 -0.71055172891E+02  0.71055172891E+02  0.00000000000E+00 0. -1.
         25    1    1    2    0    0 -0.12379775878E+02 -0.17185360427E+02  0.25360093785E+03  0.28352606784E+03  0.12500000000E+03 0.  0.
         25    1    1    2    0    0  0.41688635822E+02 -0.11807190977E+02  0.44060817161E+02  0.13944069608E+03  0.12500000000E+03 0.  0.
         25    1    1    2    0    0 -0.29308859944E+02  0.28992551405E+02  0.50704600831E+03  0.52385134519E+03  0.12500000000E+03 0.  0.
</event>
<event>
 5    0  0.5660959E-005  0.4653000E+03  0.7546771E-02  0.1023255E+00
         21   -1    0    0  502  501  0.00000000000E+00  0.00000000000E+00  0.46075723794E+03  0.46075723794E+03  0.00000000000E+00 0.  1.
         21   -1    0    0  501  502 -0.00000000000E+00 -0.00000000000E+00 -0.46988758746E+03  0.46988758746E+03  0.00000000000E+00 0.  1.
         25    1    1    2    0    0 -0.35986559770E+03 -0.10965956989E+03 -0.17441953066E+03  0.43310003735E+03  0.12500000000E+03 0.  0.
         25    1    1    2    0    0  0.18840147666E+03  0.54180942820E+02  0.15208759179E+03  0.27782427279E+03  0.12500000000E+03 0.  0.
         25    1    1    2    0    0  0.17146412104E+03  0.55478627066E+02  0.13201589354E+02  0.21972051526E+03  0.12500000000E+03 0.  0.
</event>
<event>
 5    0  0.5660959E-005  0.3960529E+03  0.7546771E-02  0.1045155E+00
         21   -1    0    0  502  501  0.00000000000E+00  0.00000000000E+00  0.45918439263E+03  0.45918439263E+03  0.00000000000E+00 0. -1.
         21   -1    0    0  501  502 -0.00000000000E+00 -0.00000000000E+00 -0.34160109753E+03  0.34160109753E+03  0.00000000000E+00 0. -1.
         25    1    1    2    0    0 -0.14647015647E+01 -0.57422912761E+02 -0.15008651672E+03  0.20359395561E+03  0.12500000000E+03 0.  0.
         25    1    1    2    0    0 -0.72092919591E+02  0.80139298163E+02 -0.10569613823E+03  0.19600094337E+03  0.12500000000E+03 0.  0.
         25    1    1    2    0    0  0.73557621155E+02 -0.22716385402E+02  0.37336595005E+03  0.40119059118E+03  0.12500000000E+03 0.  0.
</event>
<event>
 5    0  0.5660959E-005  0.2502340E+03  0.7546771E-02  0.1113157E+00
         21   -1    0    0  502  501  0.00000000000E+00  0.00000000000E+00  0.90757733696E+03  0.90757733696E+03  0.00000000000E+00 0. -1.
         21   -1    0    0  501  502 -0.00000000000E+00 -0.00000000000E+00 -0.68993640205E+02  0.68993640205E+02  0.00000000000E+00 0. -1.
         25    1    1    2    0    0 -0.87807504312E+02  0.83895907350E+02  0.45145556351E+03  0.48392748105E+03  0.12500000000E+03 0.  0.
         25    1    1    2    0    0  0.10166289217E+03 -0.54280883770E+02  0.26500958158E+03  0.31486002655E+03  0.12500000000E+03 0.  0.
         25    1    1    2    0    0 -0.13855387856E+02 -0.29615023580E+02  0.12211855166E+03  0.17778346958E+03  0.12500000000E+03 0.  0.
</event>
<event>
 5    0  0.5660959E-005  0.2273361E+03  0.7546771E-02  0.1128529E+00
         21   -1    0    0  502  501  0.00000000000E+00  0.00000000000E+00  0.15805187002E+03  0.15805187002E+03  0.00000000000E+00 0.  1.
         21   -1    0    0  501  502 -0.00000000000E+00 -0.00000000000E+00 -0.32699196234E+03  0.32699196234E+03  0.00000000000E+00 0.  1.
         25    1    1    2    0    0  0.29886911947E+02 -0.85303440587E+02 -0.12308106539E+03  0.19734197004E+03  0.12500000000E+03 0.  0.
         25    1    1    2    0    0 -0.26515763084E+02 -0.79564331435E+01 -0.20173752018E+02  0.12960852900E+03  0.12500000000E+03 0.  0.
         25    1    1    2    0    0 -0.33711488625E+01  0.93259873731E+02 -0.25685274916E+02  0.15809333332E+03  0.12500000000E+03 0.  0.
</event>
<event>
 5    0  0.5660959E-005  0.2840692E+03  0.7546771E-02  0.1093487E+00
         21   -1    0    0  502  501  0.00000000000E+00  0.00000000000E+00  0.75318100984E+02  0.75318100984E+02  0.00000000000E+00 0.  1.
         21   -1    0    0  501  502 -0.00000000000E+00 -0.00000000000E+00 -0.10713929528E+04  0.10713929528E+04  0.00000000000E+00 0.  1.
         25    1    1    2    0    0  0.52500235037E+02 -0.18138430689E+03 -0.37374786970E+03  0.43700001323E+03  0.12500000000E+03 0.  0.
         25    1    1    2    0    0 -0.43337963587E+02  0.16977516535E+03 -0.38599888922E+03  0.44195240506E+03  0.12500000000E+03 0.  0.
         25    1    1    2    0    0 -0.91622714501E+01  0.11609141544E+02 -0.23632809287E+03  0.26775863546E+03  0.12500000000E+03 0.  0.
</event>
<event>
 5    0  0.5660959E-005  0.3363491E+03  0.7546771E-02  0.1068362E+00
         21   -1    0    0  502  501  0.00000000000E+00  0.00000000000E+00  0.12604215651E+03  0.12604215651E+03  0.00000000000E+00 0.  1.
         21   -1    0    0  501  502 -0.00000000000E+00 -0.00000000000E+00 -0.89756273778E+03  0.89756273778E+03  0.00000000000E+00 0.  1.
         25    1    1    2    0    0 -0.20572731540E+03  0.80526114192E+02 -0.28267577439E+03  0.37991943461E+03  0.12500000000E+03 0.  0.
         25    1    1    2    0    0  0.19175508304E+03  0.21331877586E+02 -0.16934770868E+03  0.28553232270E+03  0.12500000000E+03 0.  0.
         25    1    1    2    0    0  0.13972232366E+02 -0.10185799178E+03 -0.31949709820E+03  0.35815313698E+03  0.12500000000E+03 0.  0.
</event>
<event>
 5    0  0.5660959E-005  0.2385669E+03  0.7546771E-02  0.1120751E+00
         21   -1    0    0  502  501  0.00000000000E+00  0.00000000000E+00  0.82302668503E+03  0.82302668503E+03  0.00000000000E+00 0. -1.
         21   -1    0    0  501  502 -0.00000000000E+00 -0.00000000000E+00 -0.69152287349E+02  0.69152287349E+02  0.00000000000E+00 0. -1.
         25    1    1    2    0    0 -0.77401187881E+02  0.47006403832E+02  0.21114491857E+03  0.26154870010E+03  0.12500000000E+03 0.  0.
         25    1    1    2    0    0 -0.27107653279E+02  0.35794363586E+02  0.28764484568E+03  0.31682900527E+03  0.12500000000E+03 0.  0.
         25    1    1    2    0    0  0.10450884116E+03 -0.82800767418E+02  0.25508463343E+03  0.31380126701E+03  0.12500000000E+03 0.  0.
</event>
<event>
 5    0  0.5660959E-005  0.3173611E+03  0.7546771E-02  0.1076870E+00
         21   -1    0    0  502  501  0.00000000000E+00  0.00000000000E+00  0.15543519900E+03  0.15543519900E+03  0.00000000000E+00 0.  1.
         21   -1    0    0  501  502 -0.00000000000E+00 -0.00000000000E+00 -0.64797483523E+03  0.64797483523E+03  0.00000000000E+00 0.  1.
         25    1    1    2    0    0 -0.17536921593E+03  0.11299689658E+03 -0.17547823643E+03  0.29990043680E+03  0.12500000000E+03 0.  0.
         25    1    1    2    0    0  0.20846779368E+03 -0.53925944736E+02 -0.20118443500E+03  0.32010467882E+03  0.12500000000E+03 0.  0.
         25    1    1    2    0    0 -0.33098577747E+02 -0.59070951845E+02 -0.11587696480E+03  0.18340491861E+03  0.12500000000E+03 0.  0.
</event>
<event>
 5    0  0.5660959E-005  0.2224122E+03  0.7546771E-02  0.1132097E+00
         21   -1    0    0  502  501  0.00000000000E+00  0.00000000000E+00  0.28582515806E+03  0.28582515806E+03  0.00000000000E+00 0. -1.
         21   -1    0    0  501  502 -0.00000000000E+00 -0.00000000000E+00 -0.17306796143E+03  0.17306796143E+03  0.00000000000E+00 0. -1.
         25    1    1    2    0    0  0.44752051942E+02  0.15394923052E+02 -0.11346524462E+02  0.13413982789E+03  0.12500000000E+03 0.  0.
         25    1    1    2    0    0 -0.34893866161E+02  0.60161249550E+02  0.18480616727E+02  0.14423415351E+03  0.12500000000E+03 0.  0.
         25    1    1    2    0    0 -0.98581857807E+01 -0.75556172602E+02  0.10562310436E+03  0.18051913810E+03  0.12500000000E+03 0.  0.
</event>
<event>
 5    0  0.7075638E-005  0.3181406E+03  0.7546771E-02  0.1076508E+00
         21   -1    0    0  502  501  0.00000000000E+00  0.00000000000E+00  0.24177723507E+03  0.24177723507E+03  0.00000000000E+00 0. -1.
         21   -1    0    0  501  502 -0.00000000000E+00 -0.00000000000E+00 -0.41862261707E+03  0.41862261707E+03  0.00000000000E+00 0. -1.
         25    1    1    2    0    0 -0.11266548304E+03  0.70312961550E+01  0.58084027098E+02  0.17816201727E+03  0.12500000000E+03 0.  0.
         25    1    1    2    0    0  0.69999055760E+02 -0.10414003072E+03  0.20946027736E+02  0.17835007677E+03  0.12500000000E+03 0.  0.
         25    1    1    2    0    0  0.42666427279E+02  0.97108734566E+02 -0.25587543683E+03  0.30388775810E+03  0.12500000000E+03 0.  0.
</event>
<event>
 5    0  0.5660959E-005  0.2244179E+03  0.7546771E-02  0.1130632E+00
         21   -1    0    0  502  501  0.00000000000E+00  0.00000000000E+00  0.83583331599E+03  0.83583331599E+03  0.00000000000E+00 0. -1.
         21   -1    0    0  501  502 -0.00000000000E+00 -0.00000000000E+00 -0.60255282387E+02  0.60255282387E+02  0.00000000000E+00 0. -1.
         25    1    1    2    0    0  0.35998865088E+01  0.64870934480E+02  0.12073547140E+03  0.18553504083E+03  0.12500000000E+03 0.  0.
         25    1    1    2    0    0 -0.35205367471E+01  0.87544063652E+01  0.37410149614E+03  0.39454526131E+03  0.12500000000E+03 0.  0.
         25    1    1    2    0    0 -0.79349761652E-01 -0.73625340845E+02  0.28074106607E+03  0.31600829623E+03  0.12500000000E+03 0.  0.
</event>
<event>
 5    0  0.6113173E-005  0.3496119E+03  0.7546771E-02  0.1062774E+00
         21   -1    0    0  502  501  0.00000000000E+00  0.00000000000E+00  0.47375207036E+03  0.47375207036E+03  0.00000000000E+00 0.  1.
         21   -1    0    0  501  502 -0.00000000000E+00 -0.00000000000E+00 -0.25800089032E+03  0.25800089032E+03  0.00000000000E+00 0.  1.
         25    1    1    2    0    0 -0.63229948047E+02  0.11192902188E+02 -0.81406173733E+02  0.16240465668E+03  0.12500000000E+03 0.  0.
         25    1    1    2    0    0 -0.14093440598E+00 -0.17121102112E+03  0.10309190597E+02  0.21223692664E+03  0.12500000000E+03 0.  0.
         25    1    1    2    0    0  0.63370882453E+02  0.16001811894E+03  0.28684816318E+03  0.35711137737E+03  0.12500000000E+03 0.  0.
</event>
<event>
 5    0  0.5660959E-005  0.3388498E+03  0.7546771E-02  0.1067287E+00
         21   -1    0    0  502  501  0.00000000000E+00  0.00000000000E+00  0.82357019977E+02  0.82357019977E+02  0.00000000000E+00 0.  1.
         21   -1    0    0  501  502 -0.00000000000E+00 -0.00000000000E+00 -0.13941643353E+04  0.13941643353E+04  0.00000000000E+00 0. -1.
         25    1    1    2    0    0  0.13541984248E+03 -0.61245904369E+02 -0.63547476396E+03  0.66448684725E+03  0.12500000000E+03 0.  0.
         25    1    1    2    0    0  0.10385394332E+03 -0.13302285318E+01 -0.17235042758E+03  0.23689044079E+03  0.12500000000E+03 0.  0.
         25    1    1    2    0    0 -0.23927378580E+03  0.62576132900E+02 -0.50398212376E+03  0.57514406722E+03  0.12500000000E+03 0.  0.
</event>
<event>
 5    0  0.5660959E-005  0.4113301E+03  0.7546771E-02  0.1039926E+00
         21   -1    0    0  502  501  0.00000000000E+00  0.00000000000E+00  0.87230033433E+03  0.87230033433E+03  0.00000000000E+00 0.  1.
         21   -1    0    0  501  502 -0.00000000000E+00 -0.00000000000E+00 -0.19396123771E+03  0.19396123771E+03  0.00000000000E+00 0.  1.
         25    1    1    2    0    0  0.14396083086E+03  0.11272381714E+03  0.57629895747E+03  0.61739522849E+03  0.12500000000E+03 0.  0.
         25    1    1    2    0    0  0.75586721521E+02 -0.47652192161E+02 -0.29871182801E+02  0.15652913930E+03  0.12500000000E+03 0.  0.
         25    1    1    2    0    0 -0.21954755238E+03 -0.65071624979E+02  0.13191132195E+03  0.29233720426E+03  0.12500000000E+03 0.  0.
</event>
<event>
 5    0  0.5660959E-005  0.2919813E+03  0.7546771E-02  0.1089319E+00
         21   -1    0    0  502  501  0.00000000000E+00  0.00000000000E+00  0.12692251476E+03  0.12692251476E+03  0.00000000000E+00 0.  1.
         21   -1    0    0  501  502 -0.00000000000E+00 -0.00000000000E+00 -0.67169398637E+03  0.67169398637E+03  0.00000000000E+00 0.  1.
         25    1    1    2    0    0 -0.12673169022E+03 -0.11001611333E+03 -0.14963525477E+03  0.25725507958E+03  0.12500000000E+03 0.  0.
         25    1    1    2    0    0  0.17086618883E+03  0.98246102123E+02 -0.21447215590E+03  0.31697138156E+03  0.12500000000E+03 0.  0.
         25    1    1    2    0    0 -0.44134498609E+02  0.11770011212E+02 -0.18066406095E+03  0.22439003999E+03  0.12500000000E+03 0.  0.
</event>
<event>
 5    0  0.6908816E-005  0.3022672E+03  0.7546771E-02  0.1084113E+00
         21   -1    0    0  502  501  0.00000000000E+00  0.00000000000E+00  0.16117243967E+03  0.16117243967E+03  0.00000000000E+00 0.  1.
         21   -1    0    0  501  502 -0.00000000000E+00 -0.00000000000E+00 -0.56688026328E+03  0.56688026328E+03  0.00000000000E+00 0.  1.
         25    1    1    2    0    0 -0.11016677565E+03 -0.25550886935E+02 -0.12400120011E+03  0.20926266726E+03  0.12500000000E+03 0.  0.
         25    1    1    2    0    0 -0.50081812200E+02  0.11662264008E+03 -0.22864379242E+03  0.28984825668E+03  0.12500000000E+03 0.  0.
         25    1    1    2    0    0  0.16024858785E+03 -0.91071753141E+02 -0.53062831092E+02  0.22894177900E+03  0.12500000000E+03 0.  0.
</event>
<event>
 5    0  0.5660959E-005  0.3438615E+03  0.7546771E-02  0.1065163E+00
         21   -1    0    0  502  501  0.00000000000E+00  0.00000000000E+00  0.11767501171E+04  0.11767501171E+04  0.00000000000E+00 0. -1.
         21   -1    0    0  501  502 -0.00000000000E+00 -0.00000000000E+00 -0.10048076640E+03  0.10048076640E+03  0.00000000000E+00 0. -1.
         25    1    1    2    0    0  0.15433002563E+03 -0.47625831098E+02  0.25960450111E+03  0.33031117691E+03  0.12500000000E+03 0.  0.
         25    1    1    2    0    0 -0.15716878443E+03 -0.13190094332E+03  0.56189559949E+03  0.61110682403E+03  0.12500000000E+03 0.  0.
         25    1    1    2    0    0  0.28387587911E+01  0.17952677441E+03  0.25476925008E+03  0.33581288252E+03  0.12500000000E+03 0.  0.
</event>
<event>
 5    0  0.5660959E-005  0.3556744E+03  0.7546771E-02  0.1060310E+00
         21   -1    0    0  502  501  0.00000000000E+00  0.00000000000E+00  0.52485908466E+02  0.52485908466E+02  0.00000000000E+00 0. -1.
         21   -1    0    0  501  502 -0.00000000000E+00 -0.00000000000E+00 -0.24102523135E+04  0.24102523135E+04  0.00000000000E+00 0. -1.
         25    1    1    2    0    0  0.51852993932E+02  0.18705802968E+03 -0.14961674110E+04  0.15138762701E+04  0.12500000000E+03 0.  0.
         25    1    1    2    0    0  0.21465386672E+02  0.33688672052E+02 -0.33442043280E+03  0.35924603731E+03  0.12500000000E+03 0.  0.
         25    1    1    2    0    0 -0.73318380604E+02 -0.22074670173E+03 -0.52717856119E+03  0.58961591450E+03  0.12500000000E+03 0.  0.
</event>
<event>
 5    0  0.5660959E-005  0.3334730E+03  0.7546771E-02  0.1069610E+00
         21   -1    0    0  502  501  0.00000000000E+00  0.00000000000E+00  0.61574361816E+02  0.61574361816E+02  0.00000000000E+00 0. -1.
         21   -1    0    0  501  502 -0.00000000000E+00 -0.00000000000E+00 -0.18060153266E+04  0.18060153266E+04  0.00000000000E+00 0. -1.
         25    1    1    2    0    0  0.16107553753E+03  0.59033868182E+02 -0.97466319937E+03  0.99750873610E+03  0.12500000000E+03 0.  0.
         25    1    1    2    0    0 -0.10351288987E+03 -0.16337952259E+03 -0.48762407680E+03  0.53926804749E+03  0.12500000000E+03 0.  0.
         25    1    1    2    0    0 -0.57562647660E+02  0.10434565441E+03 -0.28215368861E+03  0.33081290482E+03  0.12500000000E+03 0.  0.
</event>
<event>
 5    0  0.5660959E-005  0.3963448E+03  0.7546771E-02  0.1045053E+00
         21   -1    0    0  502  501  0.00000000000E+00  0.00000000000E+00  0.81301509222E+02  0.81301509222E+02  0.00000000000E+00 0. -1.
         21   -1    0    0  501  502 -0.00000000000E+00 -0.00000000000E+00 -0.19321806842E+04  0.19321806842E+04  0.00000000000E+00 0. -1.
         25    1    1    2    0    0 -0.27753575507E+03  0.15607094304E+03 -0.11205801485E+04  0.11716266913E+04  0.12500000000E+03 0.  0.
         25    1    1    2    0    0  0.20631827501E+03 -0.71514404918E+02 -0.45476880436E+03  0.51973185983E+03  0.12500000000E+03 0.  0.
         25    1    1    2    0    0  0.71217480059E+02 -0.84556538125E+02 -0.27553022214E+03  0.32212364229E+03  0.12500000000E+03 0.  0.
</event>
<event>
 5    0  0.5660959E-005  0.3298696E+03  0.7546771E-02  0.1071195E+00
         21   -1    0    0  502  501  0.00000000000E+00  0.00000000000E+00  0.58151717093E+02  0.58151717093E+02  0.00000000000E+00 0.  1.
         21   -1    0    0  501  502 -0.00000000000E+00 -0.00000000000E+00 -0.18712080953E+04  0.18712080953E+04  0.00000000000E+00 0.  1.
         25    1    1    2    0    0 -0.71505895929E+02 -0.45374910764E+01 -0.10935997960E+04  0.11030499516E+04  0.12500000000E+03 0.  0.
         25    1    1    2    0    0  0.10097184417E+03 -0.25229903970E+01 -0.90704738401E+02  0.18453733596E+03  0.12500000000E+03 0.  0.
         25    1    1    2    0    0 -0.29465948238E+02  0.70604814733E+01 -0.62875184383E+03  0.64177252483E+03  0.12500000000E+03 0.  0.
</event>
<event>
 5    0  0.5660959E-005  0.4046961E+03  0.7546771E-02  0.1042166E+00
         21   -1    0    0  502  501  0.00000000000E+00  0.00000000000E+00  0.14281309384E+03  0.14281309384E+03  0.00000000000E+00 0.  1.
         21   -1    0    0  501  502 -0.00000000000E+00 -0.00000000000E+00 -0.11468061093E+04  0.11468061093E+04  0.00000000000E+00 0.  1.
         25    1    1    2    0    0  0.28928893777E+03 -0.90537237889E+02 -0.41634928401E+03  0.52995925056E+03  0.12500000000E+03 0.  0.
         25    1    1    2    0    0 -0.14003307227E+02 -0.60062749772E+02 -0.21973881183E+03  0.26021870023E+03  0.12500000000E+03 0.  0.
         25    1    1    2    0    0 -0.27528563054E+03  0.15059998766E+03 -0.36790491957E+03  0.49944125231E+03  0.12500000000E+03 0.  0.
</event>
<event>
 5    0  0.6142322E-005  0.3294673E+03  0.7546771E-02  0.1071373E+00
         21   -1    0    0  502  501  0.00000000000E+00  0.00000000000E+00  0.44824968226E+03  0.44824968226E+03  0.00000000000E+00 0. -1.
         21   -1    0    0  501  502 -0.00000000000E+00 -0.00000000000E+00 -0.24216128910E+03  0.24216128910E+03  0.00000000000E+00 0. -1.
         25    1    1    2    0    0 -0.93343753485E+02  0.61298434724E+02 -0.81485552391E+02  0.18637448769E+03  0.12500000000E+03 0.  0.
         25    1    1    2    0    0  0.27460314249E+02 -0.11757200348E+03  0.30490925824E+03  0.35095854544E+03  0.12500000000E+03 0.  0.
         25    1    1    2    0    0  0.65883439236E+02  0.56273568751E+02 -0.17335312684E+02  0.15307793823E+03  0.12500000000E+03 0.  0.
</event>
<event>
 5    0  0.5660959E-005  0.2431304E+03  0.7546771E-02  0.1117725E+00
         21   -1    0    0  502  501  0.00000000000E+00  0.00000000000E+00  0.19511818077E+04  0.19511818077E+04  0.00000000000E+00 0.  1.
         21   -1    0    0  501  502 -0.00000000000E+00 -0.00000000000E+00 -0.30295688248E+02  0.30295688248E+02  0.00000000000E+00 0.  1.
         25    1    1    2    0    0 -0.20350472647E+02 -0.40123709245E+02  0.24794957861E+03  0.28129708018E+03  0.12500000000E+03 0.  0.
         25    1    1    2    0    0  0.22370590660E+02  0.57921053740E+02  0.12767550961E+04  0.12843612682E+04  0.12500000000E+03 0.  0.
         25    1    1    2    0    0 -0.20201180126E+01 -0.17797344495E+02  0.39618144475E+03  0.41581914761E+03  0.12500000000E+03 0.  0.
</event>
<event>
 5    0  0.5660959E-005  0.6888882E+03  0.7546771E-02  0.9736426E-01
         21   -1    0    0  502  501  0.00000000000E+00  0.00000000000E+00  0.17437395425E+04  0.17437395425E+04  0.00000000000E+00 0.  1.
         21   -1    0    0  501  502 -0.00000000000E+00 -0.00000000000E+00 -0.27215472393E+03  0.27215472393E+03  0.00000000000E+00 0.  1.
         25    1    1    2    0    0  0.14361888443E+02 -0.27763223979E+03 -0.56781481571E+02  0.31005654494E+03  0.12500000000E+03 0.  0.
         25    1    1    2    0    0  0.66903605748E+01  0.44572743385E+03  0.62227385705E+03  0.77560779997E+03  0.12500000000E+03 0.  0.
         25    1    1    2    0    0 -0.21052249018E+02 -0.16809519406E+03  0.90609244307E+03  0.93022992150E+03  0.12500000000E+03 0.  0.
</event>
<event>
 5    0  0.5660959E-005  0.3574276E+03  0.7546771E-02  0.1059607E+00
         21   -1    0    0  502  501  0.00000000000E+00  0.00000000000E+00  0.51299964532E+03  0.51299964532E+03  0.00000000000E+00 0.  1.
         21   -1    0    0  501  502 -0.00000000000E+00 -0.00000000000E+00 -0.24903422294E+03  0.24903422294E+03  0.00000000000E+00 0.  1.
         25    1    1    2    0    0 -0.24022282104E+03 -0.12064739779E+03  0.47889638607E+02  0.30030187450E+03  0.12500000000E+03 0.  0.
         25    1    1    2    0    0  0.21399459629E+02  0.71815934405E+02  0.42333321385E+02  0.15176486881E+03  0.12500000000E+03 0.  0.
         25    1    1    2    0    0  0.21882336141E+03  0.48831463381E+02  0.17374246238E+03  0.30996712495E+03  0.12500000000E+03 0.  0.
</event>
<event>
 5    0  0.5660959E-005  0.2421244E+03  0.7546771E-02  0.1118386E+00
         21   -1    0    0  502  501  0.00000000000E+00  0.00000000000E+00  0.20092070511E+02  0.20092070511E+02  0.00000000000E+00 0.  1.
         21   -1    0    0  501  502 -0.00000000000E+00 -0.00000000000E+00 -0.29177795824E+04  0.29177795824E+04  0.00000000000E+00 0.  1.
         25    1    1    2    0    0 -0.99425007730E+02 -0.54409099748E+02 -0.12586840970E+04  0.12699434390E+04  0.12500000000E+03 0.  0.
         25    1    1    2    0    0  0.18037530086E+00  0.88502758687E+01 -0.44021795696E+03  0.45770646658E+03  0.12500000000E+03 0.  0.
         25    1    1    2    0    0  0.99244632429E+02  0.45558823879E+02 -0.11987854580E+04  0.12102217473E+04  0.12500000000E+03 0.  0.
</event>
<event>
 5    0  0.5660959E-005  0.3301508E+03  0.7546771E-02  0.1071070E+00
         21   -1    0    0  502  501  0.00000000000E+00  0.00000000000E+00  0.50985631347E+02  0.50985631347E+02  0.00000000000E+00 0. -1.
         21   -1    0    0  501  502 -0.00000000000E+00 -0.00000000000E+00 -0.21378481417E+04  0.21378481417E+04  0.00000000000E+00 0. -1.
         25    1    1    2    0    0  0.92169222548E+02  0.44355890033E+02 -0.12955313404E+04  0.13055608238E+04  0.12500000000E+03 0.  0.
         25    1    1    2    0    0 -0.18176990520E+03  0.23818309456E+02 -0.49646578521E+03  0.54379305456E+03  0.12500000000E+03 0.  0.
         25    1    1    2    0    0  0.89600682654E+02 -0.68174199488E+02 -0.29486538474E+03  0.33947989473E+03  0.12500000000E+03 0.  0.
</event>
<event>
 5    0  0.5660959E-005  0.3452164E+03  0.7546771E-02  0.1064596E+00
         21   -1    0    0  502  501  0.00000000000E+00  0.00000000000E+00  0.11624482456E+04  0.11624482456E+04  0.00000000000E+00 0.  1.
         21   -1    0    0  501  502 -0.00000000000E+00 -0.00000000000E+00 -0.10252012975E+03  0.10252012975E+03  0.00000000000E+00 0.  1.
         25    1    1    2    0    0 -0.25309131081E+03 -0.36879703764E+02  0.24885172215E+03  0.37811043860E+03  0.12500000000E+03 0.  0.
         25    1    1    2    0    0  0.13208622301E+03  0.25718856427E+02  0.44395360642E+03  0.48044566242E+03  0.12500000000E+03 0.  0.
         25    1    1    2    0    0  0.12100508780E+03  0.11160847338E+02  0.36712278728E+03  0.40641227434E+03  0.12500000000E+03 0.  0.
</event>
<event>
 5    0  0.5660959E-005  0.2865658E+03  0.7546771E-02  0.1092156E+00
         21   -1    0    0  502  501  0.00000000000E+00  0.00000000000E+00  0.84667636871E+02  0.84667636871E+02  0.00000000000E+00 0. -1.
         21   -1    0    0  501  502 -0.00000000000E+00 -0.00000000000E+00 -0.96990956189E+03  0.96990956189E+03  0.00000000000E+00 0. -1.
         25    1    1    2    0    0  0.26647782182E+02 -0.28779128556E+01 -0.26664500222E+03  0.29570753100E+03  0.12500000000E+03 0.  0.
         25    1    1    2    0    0  0.31323706422E+02 -0.92007755144E+02 -0.49811400839E+02  0.16599029262E+03  0.12500000000E+03 0.  0.
         25    1    1    2    0    0 -0.57971488604E+02  0.94885667999E+02 -0.56878552196E+03  0.59287937515E+03  0.12500000000E+03 0.  0.
</event>
<event>
 5    0  0.5660959E-005  0.3074619E+03  0.7546771E-02  0.1081569E+00
         21   -1    0    0  502  501  0.00000000000E+00  0.00000000000E+00  0.61104761892E+03  0.61104761892E+03  0.00000000000E+00 0.  1.
         21   -1    0    0  501  502 -0.00000000000E+00 -0.00000000000E+00 -0.15470614284E+03  0.15470614284E+03  0.00000000000E+00 0.  1.
         25    1    1    2    0    0  0.12119168111E+03  0.15623042385E+03  0.21054217027E+03  0.31471951698E+03  0.12500000000E+03 0.  0.
         25    1    1    2    0    0 -0.12834647313E+03 -0.75838192885E+02  0.23024204774E+03  0.30143100241E+03  0.12500000000E+03 0.  0.
         25    1    1    2    0    0  0.71547920208E+01 -0.80392230966E+02  0.15557258060E+02  0.14960324237E+03  0.12500000000E+03 0.  0.
</event>
<event>
 5    0  0.5660959E-005  0.3232376E+03  0.7546771E-02  0.1074169E+00
         21   -1    0    0  502  501  0.00000000000E+00  0.00000000000E+00  0.11852205332E+04  0.11852205332E+04  0.00000000000E+00 0. -1.
         21   -1    0    0  501  502 -0.00000000000E+00 -0.00000000000E+00 -0.88154492887E+02  0.88154492887E+02  0.00000000000E+00 0. -1.
         25    1    1    2    0    0  0.39120525970E+02 -0.22113197066E+02  0.22794526506E+03  0.26382466317E+03  0.12500000000E+03 0.  0.
         25    1    1    2    0    0 -0.18106278437E+03  0.15281284760E+03  0.58979564214E+03  0.64778036229E+03  0.12500000000E+03 0.  0.
         25    1    1    2    0    0  0.14194225840E+03 -0.13069965054E+03  0.27932513316E+03  0.36177000067E+03  0.12500000000E+03 0.  0.
</event>
<event>
 5    0  0.5660959E-005  0.2520205E+03  0.7546771E-02  0.1112035E+00
         21   -1    0    0  502  501  0.00000000000E+00  0.00000000000E+00  0.29260529435E+03  0.29260529435E+03  0.00000000000E+00 0.  1.
         21   -1    0    0  501  502 -0.00000000000E+00 -0.00000000000E+00 -0.21706483425E+03  0.21706483425E+03  0.00000000000E+00 0.  1.
         25    1    1    2    0    0  0.28637671334E+02  0.13169331912E+03  0.60207473870E+02  0.19342488576E+03  0.12500000000E+03 0.  0.
         25    1    1    2    0    0 -0.69706954223E+02 -0.93910794557E+02  0.43194154367E+02  0.17654753403E+03  0.12500000000E+03 0.  0.
         25    1    1    2    0    0  0.41069282888E+02 -0.37782524561E+02 -0.27861168139E+02  0.13969770882E+03  0.12500000000E+03 0.  0.
</event>
<event>
 5    0  0.5660959E-005  0.2975096E+03  0.7546771E-02  0.1086492E+00
         21   -1    0    0  502  501  0.00000000000E+00  0.00000000000E+00  0.72044863449E+02  0.72044863449E+02  0.00000000000E+00 0. -1.
         21   -1    0    0  501  502 -0.00000000000E+00 -0.00000000000E+00 -0.12285672126E+04  0.12285672126E+04  0.00000000000E+00 0. -1.
         25    1    1    2    0    0  0.24052359549E+02 -0.20054506191E+03 -0.31586483283E+03  0.39521188048E+03  0.12500000000E+03 0.  0.
         25    1    1    2    0    0 -0.52302342550E+02  0.13628801166E+03 -0.45284898512E+03  0.49194223287E+03  0.12500000000E+03 0.  0.
         25    1    1    2    0    0  0.28249983001E+02  0.64257050249E+02 -0.38780853118E+03  0.41345796268E+03  0.12500000000E+03 0.  0.
</event>
<event>
 5    0  0.5660959E-005  0.3323831E+03  0.7546771E-02  0.1070087E+00
         21   -1    0    0  502  501  0.00000000000E+00  0.00000000000E+00  0.24232347050E+03  0.24232347050E+03  0.00000000000E+00 0. -1.
         21   -1    0    0  501  502 -0.00000000000E+00 -0.00000000000E+00 -0.45591354348E+03  0.45591354348E+03  0.00000000000E+00 0. -1.
         25    1    1    2    0    0  0.13042076920E+03  0.14114993526E+03 -0.25733301513E+03  0.34464207802E+03  0.12500000000E+03 0.  0.
         25    1    1    2    0    0 -0.25920508360E+02 -0.13508437458E+03  0.45856841667E+01  0.18591850233E+03  0.12500000000E+03 0.  0.
         25    1    1    2    0    0 -0.10450026084E+03 -0.60655606864E+01  0.39157257990E+02  0.16767643363E+03  0.12500000000E+03 0.  0.
</event>
<event>
 5    0  0.5660959E-005  0.4665748E+03  0.7546771E-02  0.1022891E+00
         21   -1    0    0  502  501  0.00000000000E+00  0.00000000000E+00  0.25150668618E+03  0.25150668618E+03  0.00000000000E+00 0.  1.
         21   -1    0    0  501  502 -0.00000000000E+00 -0.00000000000E+00 -0.86555168485E+03  0.86555168485E+03  0.00000000000E+00 0.  1.
         25    1    1    2    0    0  0.52097084936E+02  0.17009403793E+03 -0.15932797245E+03  0.26954867984E+03  0.12500000000E+03 0.  0.
         25    1    1    2    0    0  0.70433499136E+02  0.23257421213E+03 -0.13804905636E+03  0.30616038919E+03  0.12500000000E+03 0.  0.
         25    1    1    2    0    0 -0.12253058407E+03 -0.40266825006E+03 -0.31666796986E+03  0.54134930200E+03  0.12500000000E+03 0.  0.
</event>
<event>
 5    0  0.5660959E-005  0.3124902E+03  0.7546771E-02  0.1079158E+00
         21   -1    0    0  502  501  0.00000000000E+00  0.00000000000E+00  0.99302215844E+02  0.99302215844E+02  0.00000000000E+00 0.  1.
         21   -1    0    0  501  502 -0.00000000000E+00 -0.00000000000E+00 -0.98336299762E+03  0.98336299762E+03  0.00000000000E+00 0.  1.
         25    1    1    2    0    0 -0.16307494675E+03  0.51070112423E+02 -0.22518438999E+03  0.30908672592E+03  0.12500000000E+03 0.  0.
         25    1    1    2    0    0  0.27466528691E+02  0.98675589783E+02 -0.33469672311E+03  0.37166944813E+03  0.12500000000E+03 0.  0.
         25    1    1    2    0    0  0.13560841806E+03 -0.14974570221E+03 -0.32417966868E+03  0.40190903941E+03  0.12500000000E+03 0.  0.
</event>
<event>
 5    0  0.5660959E-005  0.3203177E+03  0.7546771E-02  0.1075503E+00
         21   -1    0    0  502  501  0.00000000000E+00  0.00000000000E+00  0.19250527354E+03  0.19250527354E+03  0.00000000000E+00 0.  1.
         21   -1    0    0  501  502 -0.00000000000E+00 -0.00000000000E+00 -0.53299027597E+03  0.53299027597E+03  0.00000000000E+00 0.  1.
         25    1    1    2    0    0 -0.57836720404E+02 -0.19987429328E+03 -0.28311998784E+03  0.37292994899E+03  0.12500000000E+03 0.  0.
         25    1    1    2    0    0  0.23426558550E+02  0.54858058576E+02  0.26017233104E+02  0.14092589065E+03  0.12500000000E+03 0.  0.
         25    1    1    2    0    0  0.34410161854E+02  0.14501623470E+03 -0.83382247694E+02  0.21163970988E+03  0.12500000000E+03 0.  0.
</event>
<event>
 5    0  0.5660959E-005  0.5370792E+03  0.7546771E-02  0.1004530E+00
         21   -1    0    0  502  501  0.00000000000E+00  0.00000000000E+00  0.44666119261E+03  0.44666119261E+03  0.00000000000E+00 0. -1.
         21   -1    0    0  501  502 -0.00000000000E+00 -0.00000000000E+00 -0.64580048584E+03  0.64580048584E+03  0.00000000000E+00 0. -1.
         25    1    1    2    0    0 -0.32581219203E+03 -0.20635308785E+03 -0.43358830787E+02  0.40772560571E+03  0.12500000000E+03 0.  0.
         25    1    1    2    0    0  0.29691142540E+03  0.34355924739E+03 -0.15833211399E+03  0.49687363516E+03  0.12500000000E+03 0.  0.
         25    1    1    2    0    0  0.28900766634E+02 -0.13720615954E+03  0.25516515387E+01  0.18786243758E+03  0.12500000000E+03 0.  0.
</event>
<event>
 5    0  0.5660959E-005  0.3245244E+03  0.7546771E-02  0.1073586E+00
         21   -1    0    0  502  501  0.00000000000E+00  0.00000000000E+00  0.58411712377E+03  0.58411712377E+03  0.00000000000E+00 0. -1.
         21   -1    0    0  501  502 -0.00000000000E+00 -0.00000000000E+00 -0.18029961457E+03  0.18029961457E+03  0.00000000000E+00 0. -1.
         25    1    1    2    0    0 -0.10262686051E+03  0.25630049051E+02  0.57428807948E+01  0.16385100730E+03  0.12500000000E+03 0.  0.
         25    1    1    2    0    0 -0.98097686951E+02  0.86954934345E+02  0.11319534579E+03  0.21359424875E+03  0.12500000000E+03 0.  0.
         25    1    1    2    0    0  0.20072454746E+03 -0.11258498340E+03  0.28487928262E+03  0.38697148229E+03  0.12500000000E+03 0.  0.
</event>
<event>
 5    0  0.5660959E-005  0.3135707E+03  0.7546771E-02  0.1078647E+00
         21   -1    0    0  502  501  0.00000000000E+00  0.00000000000E+00  0.80583808127E+02  0.80583808127E+02  0.00000000000E+00 0. -1.
         21   -1    0    0  501  502 -0.00000000000E+00 -0.00000000000E+00 -0.12201783092E+04  0.12201783092E+04  0.00000000000E+00 0. -1.
         25    1    1    2    0    0  0.17826018006E+03 -0.78210969341E+02 -0.65442150515E+03  0.69410817163E+03  0.12500000000E+03 0.  0.
         25    1    1    2    0    0 -0.16555111532E+03  0.10911268707E+03 -0.32632047093E+03  0.40177456367E+03  0.12500000000E+03 0.  0.
         25    1    1    2    0    0 -0.12709064747E+02 -0.30901717728E+02 -0.15885252500E+03  0.20487938204E+03  0.12500000000E+03 0.  0.
</event>
<event>
 5    0  0.5660959E-005  0.2557105E+03  0.7546771E-02  0.1109748E+00
         21   -1    0    0  502  501  0.00000000000E+00  0.00000000000E+00  0.18529507846E+03  0.18529507846E+03  0.00000000000E+00 0.  1.
         21   -1    0    0  501  502 -0.00000000000E+00 -0.00000000000E+00 -0.35288498282E+03  0.35288498282E+03  0.00000000000E+00 0.  1.
         25    1    1    2    0    0 -0.13045723374E+03 -0.67043555469E+02 -0.11515525885E+03  0.22449868999E+03  0.12500000000E+03 0.  0.
         25    1    1    2    0    0  0.14663513995E+02  0.59834418727E+01 -0.29350153912E+01  0.12603346593E+03  0.12500000000E+03 0.  0.
         25    1    1    2    0    0  0.11579371975E+03  0.61060113596E+02 -0.49499630110E+02  0.18764790536E+03  0.12500000000E+03 0.  0.
</event>
<event>
 5    0  0.5660959E-005  0.3449969E+03  0.7546771E-02  0.1064687E+00
         21   -1    0    0  502  501  0.00000000000E+00  0.00000000000E+00  0.78129221881E+03  0.78129221881E+03  0.00000000000E+00 0. -1.
         21   -1    0    0  501  502 -0.00000000000E+00 -0.00000000000E+00 -0.15234106335E+03  0.15234106335E+03  0.00000000000E+00 0. -1.
         25    1    1    2    0    0 -0.13710804248E+03 -0.79793402499E+02  0.11897491140E+03  0.23440484623E+03  0.12500000000E+03 0.  0.
         25    1    1    2    0    0 -0.28253008560E+02  0.15546652828E+03  0.81637590409E+02  0.21738852333E+03  0.12500000000E+03 0.  0.
         25    1    1    2    0    0  0.16536105104E+03 -0.75673125780E+02  0.42833865365E+03  0.48183991260E+03  0.12500000000E+03 0.  0.
</event>
<event>
 5    0  0.5660959E-005  0.3606753E+03  0.7546771E-02  0.1058317E+00
         21   -1    0    0  502  501  0.00000000000E+00  0.00000000000E+00  0.56215365231E+03  0.56215365231E+03  0.00000000000E+00 0. -1.
         21   -1    0    0  501  502 -0.00000000000E+00 -0.00000000000E+00 -0.23140770725E+03  0.23140770725E+03  0.00000000000E+00 0. -1.
         25    1    1    2    0    0 -0.77343563120E+02  0.15653346054E+03  0.19347226883E+03  0.28903506678E+03  0.12500000000E+03 0.  0.
         25    1    1    2    0    0 -0.95450240919E+02 -0.35436854568E+02 -0.77178204952E+02  0.17874001923E+03  0.12500000000E+03 0.  0.
         25    1    1    2    0    0  0.17279380404E+03 -0.12109660597E+03  0.21445188118E+03  0.32578627355E+03  0.12500000000E+03 0.  0.
</event>
<event>
 5    0  0.5660959E-005  0.3951118E+03  0.7546771E-02  0.1045486E+00
         21   -1    0    0  502  501  0.00000000000E+00  0.00000000000E+00  0.11527022058E+04  0.11527022058E+04  0.00000000000E+00 0.  1.
         21   -1    0    0  501  502 -0.00000000000E+00 -0.00000000000E+00 -0.13543251005E+03  0.13543251005E+03  0.00000000000E+00 0.  1.
         25    1    1    2    0    0  0.10684056400E+03 -0.22071638722E+03  0.32305675513E+03  0.42440699422E+03  0.12500000000E+03 0.  0.
         25    1    1    2    0    0  0.33178847990E+02 -0.56417249603E+02  0.37716293565E+03  0.40269172084E+03  0.12500000000E+03 0.  0.
         25    1    1    2    0    0 -0.14001941199E+03  0.27713363682E+03  0.31705000499E+03  0.46103600082E+03  0.12500000000E+03 0.  0.
</event>
<event>
 5    0  0.5660959E-005  0.5009174E+03  0.7546771E-02  0.1013540E+00
         21   -1    0    0  502  501  0.00000000000E+00  0.00000000000E+00  0.11475127440E+04  0.11475127440E+04  0.00000000000E+00 0. -1.
         21   -1    0    0  501  502 -0.00000000000E+00 -0.00000000000E+00 -0.21866271774E+03  0.21866271774E+03  0.00000000000E+00 0. -1.
         25    1    1    2    0    0  0.23443870243E+03  0.15401142615E+02  0.78638925336E+03  0.83019983028E+03  0.12500000000E+03 0.  0.
         25    1    1    2    0    0  0.54118115589E+02 -0.46766136864E+02  0.16516204882E+03  0.21913316582E+03  0.12500000000E+03 0.  0.
         25    1    1    2    0    0 -0.28855681802E+03  0.31364994249E+02 -0.22701275945E+02  0.31684246562E+03  0.12500000000E+03 0.  0.
</event>
<event>
 5    0  0.5660959E-005  0.2770442E+03  0.7546771E-02  0.1097314E+00
         21   -1    0    0  502  501  0.00000000000E+00  0.00000000000E+00  0.19100990127E+03  0.19100990127E+03  0.00000000000E+00 0.  1.
         21   -1    0    0  501  502 -0.00000000000E+00 -0.00000000000E+00 -0.40183001819E+03  0.40183001819E+03  0.00000000000E+00 0.  1.
         25    1    1    2    0    0  0.36869971605E+02  0.12901370169E+03 -0.14981852812E+02  0.18399289645E+03  0.12500000000E+03 0.  0.
         25    1    1    2    0    0  0.14735682361E+02 -0.17461691064E+03 -0.10329826051E+03  0.23875455271E+03  0.12500000000E+03 0.  0.
         25    1    1    2    0    0 -0.51605653967E+02  0.45603208952E+02 -0.92540003603E+02  0.17009247031E+03  0.12500000000E+03 0.  0.
</event>
<event>
 5    0  0.5660959E-005  0.2967798E+03  0.7546771E-02  0.1086862E+00
         21   -1    0    0  502  501  0.00000000000E+00  0.00000000000E+00  0.58411834058E+02  0.58411834058E+02  0.00000000000E+00 0. -1.
         21   -1    0    0  501  502 -0.00000000000E+00 -0.00000000000E+00 -0.15078833691E+04  0.15078833691E+04  0.00000000000E+00 0. -1.
         25    1    1    2    0    0 -0.12333728469E+03  0.11163056550E+03 -0.54843511390E+03  0.58658293796E+03  0.12500000000E+03 0.  0.
         25    1    1    2    0    0 -0.27072394642E+02 -0.13378789187E+03 -0.49540922168E+03  0.52885481135E+03  0.12500000000E+03 0.  0.
         25    1    1    2    0    0  0.15040967933E+03  0.22157326364E+02 -0.40562719946E+03  0.45085745385E+03  0.12500000000E+03 0.  0.
</event>
<event>
 5    0  0.5660959E-005  0.3558914E+03  0.7546771E-02  0.1060223E+00
         21   -1    0    0  502  501  0.00000000000E+00  0.00000000000E+00  0.48625757974E+03  0.48625757974E+03  0.00000000000E+00 0.  1.
         21   -1    0    0  501  502 -0.00000000000E+00 -0.00000000000E+00 -0.26047647820E+03  0.26047647820E+03  0.00000000000E+00 0.  1.
         25    1    1    2    0    0  0.80469474817E+02  0.62640756674E+02 -0.55183374506E+02  0.17049752372E+03  0.12500000000E+03 0.  0.
         25    1    1    2    0    0 -0.23571451644E+03 -0.55370657378E+02  0.25837865616E+03  0.37551534312E+03  0.12500000000E+03 0.  0.
         25    1    1    2    0    0  0.15524504162E+03 -0.72700992955E+01  0.22585819889E+02  0.20072119109E+03  0.12500000000E+03 0.  0.
</event>
<event>
 5    0  0.5660959E-005  0.3219418E+03  0.7546771E-02  0.1074759E+00
         21   -1    0    0  502  501  0.00000000000E+00  0.00000000000E+00  0.94978830073E+03  0.94978830073E+03  0.00000000000E+00 0.  1.
         21   -1    0    0  501  502 -0.00000000000E+00 -0.00000000000E+00 -0.10912593199E+03  0.10912593199E+03  0.00000000000E+00 0.  1.
         25    1    1    2    0    0  0.12069072164E+03  0.54827590871E+02  0.42651716233E+03  0.46380405860E+03  0.12500000000E+03 0.  0.
         25    1    1    2    0    0 -0.78302779752E+02 -0.56285311411E+02 -0.26658787587E+01  0.15789701868E+03  0.12500000000E+03 0.  0.
         25    1    1    2    0    0 -0.42387941892E+02  0.14577205399E+01  0.41681108517E+03  0.43721315544E+03  0.12500000000E+03 0.  0.
</event>
<event>
 5    0  0.5660959E-005  0.2878954E+03  0.7546771E-02  0.1091453E+00
         21   -1    0    0  502  501  0.00000000000E+00  0.00000000000E+00  0.92077034452E+03  0.92077034452E+03  0.00000000000E+00 0. -1.
         21   -1    0    0  501  502 -0.00000000000E+00 -0.00000000000E+00 -0.90015668254E+02  0.90015668254E+02  0.00000000000E+00 0. -1.
         25    1    1    2    0    0  0.11041679868E+03 -0.33423945244E+02  0.59060844878E+03  0.61461562730E+03  0.12500000000E+03 0.  0.
         25    1    1    2    0    0  0.14425609123E+02 -0.25908985160E+02  0.90173610906E+02  0.15695749047E+03  0.12500000000E+03 0.  0.
         25    1    1    2    0    0 -0.12484240780E+03  0.59332930404E+02  0.14997261658E+03  0.23921289501E+03  0.12500000000E+03 0.  0.
</event>
<event>
 5    0  0.5660959E-005  0.2929625E+03  0.7546771E-02  0.1088812E+00
         21   -1    0    0  502  501  0.00000000000E+00  0.00000000000E+00  0.40060498047E+03  0.40060498047E+03  0.00000000000E+00 0. -1.
         21   -1    0    0  501  502 -0.00000000000E+00 -0.00000000000E+00 -0.21424352184E+03  0.21424352184E+03  0.00000000000E+00 0. -1.
         25    1    1    2    0    0 -0.11035723166E+03 -0.81693483556E+02  0.19632158611E+03  0.27022159242E+03  0.12500000000E+03 0.  0.
         25    1    1    2    0    0  0.87861155891E+02  0.27014034623E+02  0.84967358024E+02  0.17690051642E+03  0.12500000000E+03 0.  0.
         25    1    1    2    0    0  0.22496075767E+02  0.54679448933E+02 -0.94927485504E+02  0.16772639346E+03  0.12500000000E+03 0.  0.
</event>
<event>
 5    0  0.5660959E-005  0.2525794E+03  0.7546771E-02  0.1111685E+00
         21   -1    0    0  502  501  0.00000000000E+00  0.00000000000E+00  0.94314061596E+03  0.94314061596E+03  0.00000000000E+00 0.  1.
         21   -1    0    0  501  502 -0.00000000000E+00 -0.00000000000E+00 -0.67642449600E+02  0.67642449600E+02  0.00000000000E+00 0.  1.
         25    1    1    2    0    0  0.39728159090E+02  0.92462002932E+02  0.23993703008E+03  0.28865607047E+03  0.12500000000E+03 0.  0.
         25    1    1    2    0    0 -0.48161890534E+01 -0.35034323669E+02  0.52882692662E+03  0.54454891224E+03  0.12500000000E+03 0.  0.
         25    1    1    2    0    0 -0.34911970037E+02 -0.57427679263E+02  0.10673420966E+03  0.17757808285E+03  0.12500000000E+03 0.  0.
</event>
<event>
 5    0  0.5660959E-005  0.2468872E+03  0.7546771E-02  0.1115288E+00
         21   -1    0    0  502  501  0.00000000000E+00  0.00000000000E+00  0.11480566666E+03  0.11480566666E+03  0.00000000000E+00 0. -1.
         21   -1    0    0  501  502 -0.00000000000E+00 -0.00000000000E+00 -0.53092567502E+03  0.53092567502E+03  0.00000000000E+00 0. -1.
         25    1    1    2    0    0 -0.15526688155E+02 -0.25031021995E+02 -0.25606027433E+03  0.28646028380E+03  0.12500000000E+03 0.  0.
         25    1    1    2    0    0 -0.52750393978E+02 -0.12866811306E+02  0.70320848557E+01  0.13646468083E+03  0.12500000000E+03 0.  0.
         25    1    1    2    0    0  0.68277082133E+02  0.37897833301E+02 -0.16709181888E+03  0.22280637704E+03  0.12500000000E+03 0.  0.
</event>
<event>
 5    0  0.8144427E-005  0.2422301E+03  0.7546771E-02  0.1118316E+00
         21   -1    0    0  502  501  0.00000000000E+00  0.00000000000E+00  0.18956443077E+03  0.18956443077E+03  0.00000000000E+00 0.  1.
         21   -1    0    0  501  502 -0.00000000000E+00 -0.00000000000E+00 -0.30952758508E+03  0.30952758508E+03  0.00000000000E+00 0.  1.
         25    1    1    2    0    0  0.13499557715E+03 -0.38973995655E+02 -0.82729400879E+02  0.20545542572E+03  0.12500000000E+03 0.  0.
         25    1    1    2    0    0 -0.94202419193E+02  0.28950837679E+02 -0.26043203538E+02  0.16129319649E+03  0.12500000000E+03 0.  0.
         25    1    1    2    0    0 -0.40793157959E+02  0.10023157976E+02 -0.11190549891E+02  0.13234339364E+03  0.12500000000E+03 0.  0.
</event>
<event>
 5    0  0.5660959E-005  0.2430937E+03  0.7546771E-02  0.1117749E+00
         21   -1    0    0  502  501  0.00000000000E+00  0.00000000000E+00  0.31512002415E+03  0.31512002415E+03  0.00000000000E+00 0. -1.
         21   -1    0    0  501  502 -0.00000000000E+00 -0.00000000000E+00 -0.18753032842E+03  0.18753032842E+03  0.00000000000E+00 0. -1.
         25    1    1    2    0    0 -0.76033699567E+02  0.96436625063E+02  0.29262523080E+02  0.17765821507E+03  0.12500000000E+03 0.  0.
         25    1    1    2    0    0 -0.16458998352E+02 -0.70098220415E+02  0.83263443765E+02  0.16656068023E+03  0.12500000000E+03 0.  0.
         25    1    1    2    0    0  0.92492697919E+02 -0.26338404648E+02  0.15063728887E+02  0.15843145728E+03  0.12500000000E+03 0.  0.
</event>
<event>
 5    0  0.5660959E-005  0.3178124E+03  0.7546771E-02  0.1076661E+00
         21   -1    0    0  502  501  0.00000000000E+00  0.00000000000E+00  0.36890613415E+03  0.36890613415E+03  0.00000000000E+00 0. -1.
         21   -1    0    0  501  502 -0.00000000000E+00 -0.00000000000E+00 -0.27379518333E+03  0.27379518333E+03  0.00000000000E+00 0. -1.
         25    1    1    2    0    0 -0.71839584794E+02  0.19866920731E+02 -0.78890933667E+02  0.16554274342E+03  0.12500000000E+03 0.  0.
         25    1    1    2    0    0 -0.26288672691E+02  0.67500880089E+02 -0.79937044858E+02  0.16511327707E+03  0.12500000000E+03 0.  0.
         25    1    1    2    0    0  0.98128257485E+02 -0.87367800820E+02  0.25393892935E+03  0.31204529700E+03  0.12500000000E+03 0.  0.
</event>
<event>
 5    0  0.5660959E-005  0.2655316E+03  0.7546771E-02  0.1103865E+00
         21   -1    0    0  502  501  0.00000000000E+00  0.00000000000E+00  0.20018853743E+03  0.20018853743E+03  0.00000000000E+00 0.  1.
         21   -1    0    0  501  502 -0.00000000000E+00 -0.00000000000E+00 -0.35220306423E+03  0.35220306423E+03  0.00000000000E+00 0.  1.
         25    1    1    2    0    0  0.51337754103E+02  0.10276918406E+03 -0.51023099170E+02  0.17727218292E+03  0.12500000000E+03 0.  0.
         25    1    1    2    0    0  0.49279434433E+02 -0.13408468365E+03 -0.93136546984E+02  0.21143930910E+03  0.12500000000E+03 0.  0.
         25    1    1    2    0    0 -0.10061718854E+03  0.31315499585E+02 -0.78548806437E+01  0.16368010964E+03  0.12500000000E+03 0.  0.
</event>
<event>
 5    0  0.5660959E-005  0.3100960E+03  0.7546771E-02  0.1080300E+00
         21   -1    0    0  502  501  0.00000000000E+00  0.00000000000E+00  0.31208037546E+03  0.31208037546E+03  0.00000000000E+00 0. -1.
         21   -1    0    0  501  502 -0.00000000000E+00 -0.00000000000E+00 -0.30812423030E+03  0.30812423030E+03  0.00000000000E+00 0. -1.
         25    1    1    2    0    0  0.76929545886E+01  0.70992943760E+02  0.13057018724E+03  0.19435213765E+03  0.12500000000E+03 0.  0.
         25    1    1    2    0    0  0.15045813604E+03 -0.33548294230E+02 -0.88516312723E+02  0.21730917230E+03  0.12500000000E+03 0.  0.
         25    1    1    2    0    0 -0.15815109063E+03 -0.37444649530E+02 -0.38097729363E+02  0.20854329581E+03  0.12500000000E+03 0.  0.
</event>
<event>
 5    0  0.5848954E-005  0.3157867E+03  0.7546771E-02  0.1077605E+00
         21   -1    0    0  502  501  0.00000000000E+00  0.00000000000E+00  0.25916459215E+03  0.25916459215E+03  0.00000000000E+00 0. -1.
         21   -1    0    0  501  502 -0.00000000000E+00 -0.00000000000E+00 -0.38477963283E+03  0.38477963283E+03  0.00000000000E+00 0. -1.
         25    1    1    2    0    0 -0.13972948180E+03 -0.14369100327E+03  0.24832699791E+01  0.23622573766E+03  0.12500000000E+03 0.  0.
         25    1    1    2    0    0 -0.30085229147E+02  0.88271709260E+02 -0.10602532470E+03  0.18858256851E+03  0.12500000000E+03 0.  0.
         25    1    1    2    0    0  0.16981471095E+03  0.55419294009E+02 -0.22072985948E+02  0.21913591881E+03  0.12500000000E+03 0.  0.
</event>
<event>
 5    0  0.5660959E-005  0.2341101E+03  0.7546771E-02  0.1123780E+00
         21   -1    0    0  502  501  0.00000000000E+00  0.00000000000E+00  0.53080594573E+03  0.53080594573E+03  0.00000000000E+00 0. -1.
         21   -1    0    0  501  502 -0.00000000000E+00 -0.00000000000E+00 -0.10325344415E+03  0.10325344415E+03  0.00000000000E+00 0. -1.
         25    1    1    2    0    0  0.63587561247E+02 -0.46257111251E+02  0.20362485867E+03  0.25153763408E+03  0.12500000000E+03 0.  0.
         25    1    1    2    0    0 -0.27641296250E+02  0.60655087960E+02  0.24157494163E+02  0.14370687345E+03  0.12500000000E+03 0.  0.
         25    1    1    2    0    0 -0.35946264997E+02 -0.14397976709E+02  0.19977014875E+03  0.23881488235E+03  0.12500000000E+03 0.  0.
</event>
<event>
 5    0  0.5660959E-005  0.3493340E+03  0.7546771E-02  0.1062889E+00
         21   -1    0    0  502  501  0.00000000000E+00  0.00000000000E+00  0.10544732105E+03  0.10544732105E+03  0.00000000000E+00 0. -1.
         21   -1    0    0  501  502 -0.00000000000E+00 -0.00000000000E+00 -0.11573003846E+04  0.11573003846E+04  0.00000000000E+00 0. -1.
         25    1    1    2    0    0 -0.18362958930E+03 -0.18476395624E+03 -0.44622770283E+03  0.53160296121E+03  0.12500000000E+03 0.  0.
         25    1    1    2    0    0  0.18165900996E+02  0.65979485847E+02 -0.10699613274E+03  0.17820343693E+03  0.12500000000E+03 0.  0.
         25    1    1    2    0    0  0.16546368831E+03  0.11878447039E+03 -0.49862922793E+03  0.55294130747E+03  0.12500000000E+03 0.  0.
</event>
<event>
 5    0  0.5660959E-005  0.2803747E+03  0.7546771E-02  0.1095484E+00
         21   -1    0    0  502  501  0.00000000000E+00  0.00000000000E+00  0.55040772939E+03  0.55040772939E+03  0.00000000000E+00 0. -1.
         21   -1    0    0  501  502 -0.00000000000E+00 -0.00000000000E+00 -0.14282130629E+03  0.14282130629E+03  0.00000000000E+00 0. -1.
         25    1    1    2    0    0 -0.17825219228E+02  0.10729073744E+02  0.30869323417E+03  0.33369052172E+03  0.12500000000E+03 0.  0.
         25    1    1    2    0    0  0.63333948106E+02 -0.78487202834E+02 -0.28695599297E+02  0.16315596039E+03  0.12500000000E+03 0.  0.
         25    1    1    2    0    0 -0.45508728878E+02  0.67758129091E+02  0.12758878823E+03  0.19638255356E+03  0.12500000000E+03 0.  0.
</event>
<event>
 5    0  0.5660959E-005  0.4143437E+03  0.7546771E-02  0.1038923E+00
         21   -1    0    0  502  501  0.00000000000E+00  0.00000000000E+00  0.80614315953E+03  0.80614315953E+03  0.00000000000E+00 0.  1.
         21   -1    0    0  501  502 -0.00000000000E+00 -0.00000000000E+00 -0.21296549267E+03  0.21296549267E+03  0.00000000000E+00 0.  1.
         25    1    1    2    0    0 -0.32486972460E+03  0.12755105191E+02  0.10405190317E+03  0.36353105675E+03  0.12500000000E+03 0.  0.
         25    1    1    2    0    0  0.25587381435E+03  0.32279783690E+02  0.31187320248E+03  0.42356025277E+03  0.12500000000E+03 0.  0.
         25    1    1    2    0    0  0.68995910254E+02 -0.45034888881E+02  0.17725256121E+03  0.23201734268E+03  0.12500000000E+03 0.  0.
</event>
<event>
 5    0  0.5660959E-005  0.4047799E+03  0.7546771E-02  0.1042137E+00
         21   -1    0    0  502  501  0.00000000000E+00  0.00000000000E+00  0.94407890955E+03  0.94407890955E+03  0.00000000000E+00 0. -1.
         21   -1    0    0  501  502 -0.00000000000E+00 -0.00000000000E+00 -0.17355196228E+03  0.17355196228E+03  0.00000000000E+00 0. -1.
         25    1    1    2    0    0 -0.10389753313E+03  0.14562893072E+03  0.57160848399E+03  0.61185271253E+03  0.12500000000E+03 0.  0.
         25    1    1    2    0    0 -0.28614279283E+02  0.43680601740E+02  0.20178519315E+03  0.24304122309E+03  0.12500000000E+03 0.  0.
         25    1    1    2    0    0  0.13251181241E+03 -0.18930953246E+03 -0.28667298785E+01  0.26273693621E+03  0.12500000000E+03 0.  0.
</event>
<event>
 5    0  0.5660959E-005  0.4751302E+03  0.7546771E-02  0.1020482E+00
         21   -1    0    0  502  501  0.00000000000E+00  0.00000000000E+00  0.20411346568E+03  0.20411346568E+03  0.00000000000E+00 0.  1.
         21   -1    0    0  501  502 -0.00000000000E+00 -0.00000000000E+00 -0.11059960187E+04  0.11059960187E+04  0.00000000000E+00 0.  1.
         25    1    1    2    0    0 -0.64872280479E+02 -0.30074988869E+03 -0.24292180655E+03  0.41145462985E+03  0.12500000000E+03 0.  0.
         25    1    1    2    0    0  0.17124772470E+03  0.31939699803E+03 -0.61997161551E+03  0.72892388464E+03  0.12500000000E+03 0.  0.
         25    1    1    2    0    0 -0.10637544422E+03 -0.18647109336E+02 -0.38989131002E+02  0.16973096994E+03  0.12500000000E+03 0.  0.
</event>
<event>
 5    0  0.5660959E-005  0.3975928E+03  0.7546771E-02  0.1044616E+00
         21   -1    0    0  502  501  0.00000000000E+00  0.00000000000E+00  0.45215476350E+03  0.45215476350E+03  0.00000000000E+00 0.  1.
         21   -1    0    0  501  502 -0.00000000000E+00 -0.00000000000E+00 -0.34961483316E+03  0.34961483316E+03  0.00000000000E+00 0.  1.
         25    1    1    2    0    0 -0.20516854205E+03 -0.36284911902E+02  0.23402132807E+02  0.24409708171E+03  0.12500000000E+03 0.  0.
         25    1    1    2    0    0  0.31780407517E+03  0.87531127534E+02  0.12809805565E+03  0.37509364209E+03  0.12500000000E+03 0.  0.
         25    1    1    2    0    0 -0.11263553311E+03 -0.51246215632E+02 -0.48960258109E+02  0.18257887285E+03  0.12500000000E+03 0.  0.
</event>
<event>
 5    0  0.5855509E-005  0.3014280E+03  0.7546771E-02  0.1084529E+00
         21   -1    0    0  502  501  0.00000000000E+00  0.00000000000E+00  0.68657103746E+03  0.68657103746E+03  0.00000000000E+00 0.  1.
         21   -1    0    0  501  502 -0.00000000000E+00 -0.00000000000E+00 -0.13233715150E+03  0.13233715150E+03  0.00000000000E+00 0.  1.
         25    1    1    2    0    0 -0.17679713937E+03  0.13027190071E+03  0.22910683609E+03  0.34109080748E+03  0.12500000000E+03 0.  0.
         25    1    1    2    0    0  0.10345967998E+03 -0.84664857252E+02  0.24570437909E+03  0.30637833693E+03  0.12500000000E+03 0.  0.
         25    1    1    2    0    0  0.73337459386E+02 -0.45607043459E+02  0.79422670793E+02  0.17143904456E+03  0.12500000000E+03 0.  0.
</event>
<event>
 5    0  0.5660959E-005  0.3143574E+03  0.7546771E-02  0.1078276E+00
         21   -1    0    0  502  501  0.00000000000E+00  0.00000000000E+00  0.13585225974E+03  0.13585225974E+03  0.00000000000E+00 0.  1.
         21   -1    0    0  501  502 -0.00000000000E+00 -0.00000000000E+00 -0.72741200829E+03  0.72741200829E+03  0.00000000000E+00 0.  1.
         25    1    1    2    0    0 -0.13622666376E+03  0.16651359272E+03 -0.25906681101E+03  0.35920063063E+03  0.12500000000E+03 0.  0.
         25    1    1    2    0    0  0.24966166200E+02 -0.99238287056E+02 -0.26722100752E+03  0.31225568679E+03  0.12500000000E+03 0.  0.
         25    1    1    2    0    0  0.11126049756E+03 -0.67275305668E+02 -0.65271930026E+02  0.19180795062E+03  0.12500000000E+03 0.  0.
</event>
<event>
 5    0  0.5660959E-005  0.5815797E+03  0.7546771E-02  0.9944377E-01
         21   -1    0    0  502  501  0.00000000000E+00  0.00000000000E+00  0.44720333625E+03  0.44720333625E+03  0.00000000000E+00 0.  1.
         21   -1    0    0  501  502 -0.00000000000E+00 -0.00000000000E+00 -0.75633367450E+03  0.75633367450E+03  0.00000000000E+00 0.  1.
         25    1    1    2    0    0 -0.69726740602E+02 -0.24016768550E+03 -0.31874469231E+02  0.28139530433E+03  0.12500000000E+03 0.  0.
         25    1    1    2    0    0 -0.13036695022E+03 -0.25748343715E+03 -0.22459528042E+02  0.31531364150E+03  0.12500000000E+03 0.  0.
         25    1    1    2    0    0  0.20009369082E+03  0.49765112265E+03 -0.25479634098E+03  0.60682806491E+03  0.12500000000E+03 0.  0.
</event>
<event>
 5    0  0.5660959E-005  0.2648148E+03  0.7546771E-02  0.1104284E+00
         21   -1    0    0  502  501  0.00000000000E+00  0.00000000000E+00  0.31538302481E+03  0.31538302481E+03  0.00000000000E+00 0.  1.
         21   -1    0    0  501  502 -0.00000000000E+00 -0.00000000000E+00 -0.22235462782E+03  0.22235462782E+03  0.00000000000E+00 0.  1.
         25    1    1    2    0    0 -0.17211240357E+01 -0.57085298151E+02 -0.99915575979E+00  0.13743249923E+03  0.12500000000E+03 0.  0.
         25    1    1    2    0    0 -0.95236404407E+02  0.13128830932E+03  0.94606954918E+02  0.22557054065E+03  0.12500000000E+03 0.  0.
         25    1    1    2    0    0  0.96957528443E+02 -0.74203011169E+02 -0.57940216660E+00  0.17473461276E+03  0.12500000000E+03 0.  0.
</event>
<event>
 5    0  0.5660959E-005  0.2396668E+03  0.7546771E-02  0.1120015E+00
         21   -1    0    0  502  501  0.00000000000E+00  0.00000000000E+00  0.80621478367E+02  0.80621478367E+02  0.00000000000E+00 0.  1.
         21   -1    0    0  501  502 -0.00000000000E+00 -0.00000000000E+00 -0.71246714888E+03  0.71246714888E+03  0.00000000000E+00 0.  1.
         25    1    1    2    0    0  0.29675388758E+02 -0.30566406666E+02 -0.12037000145E+03  0.17868651646E+03  0.12500000000E+03 0.  0.
         25    1    1    2    0    0  0.37414301920E+01  0.11293660565E+03 -0.16661213334E+03  0.23696682927E+03  0.12500000000E+03 0.  0.
         25    1    1    2    0    0 -0.33416818950E+02 -0.82370198982E+02 -0.34486353572E+03  0.37743528152E+03  0.12500000000E+03 0.  0.
</event>
<event>
 5    0  0.5660959E-005  0.3929268E+03  0.7546771E-02  0.1046257E+00
         21   -1    0    0  502  501  0.00000000000E+00  0.00000000000E+00  0.34792083680E+03  0.34792083680E+03  0.00000000000E+00 0.  1.
         21   -1    0    0  501  502 -0.00000000000E+00 -0.00000000000E+00 -0.44375462666E+03  0.44375462666E+03  0.00000000000E+00 0.  1.
         25    1    1    2    0    0 -0.26297410749E+03 -0.13304150431E+03 -0.13062356483E+03  0.34574982107E+03  0.12500000000E+03 0.  0.
         25    1    1    2    0    0  0.34794044295E+02 -0.17133214412E+02 -0.39046533969E+02  0.13657893091E+03  0.12500000000E+03 0.  0.
         25    1    1    2    0    0  0.22818006320E+03  0.15017471872E+03  0.73836308929E+02  0.30934671148E+03  0.12500000000E+03 0.  0.
</event>
<event>
 5    0  0.5660959E-005  0.4920156E+03  0.7546771E-02  0.1015884E+00
         21   -1    0    0  502  501  0.00000000000E+00  0.00000000000E+00  0.35313541552E+03  0.35313541552E+03  0.00000000000E+00 0. -1.
         21   -1    0    0  501  502 -0.00000000000E+00 -0.00000000000E+00 -0.68551414880E+03  0.68551414880E+03  0.00000000000E+00 0. -1.
         25    1    1    2    0    0  0.10077738151E+03 -0.16957541341E+01  0.14609038778E+02  0.16123703117E+03  0.12500000000E+03 0.  0.
         25    1    1    2    0    0  0.31125246758E+03 -0.60126071579E+02 -0.27200000833E+03  0.43600716461E+03  0.12500000000E+03 0.  0.
         25    1    1    2    0    0 -0.41202984909E+03  0.61821825713E+02 -0.74987763728E+02  0.44140536855E+03  0.12500000000E+03 0.  0.
</event>
<event>
 5    0  0.5660959E-005  0.3615919E+03  0.7546771E-02  0.1057955E+00
         21   -1    0    0  502  501  0.00000000000E+00  0.00000000000E+00  0.14843146089E+03  0.14843146089E+03  0.00000000000E+00 0.  1.
         21   -1    0    0  501  502 -0.00000000000E+00 -0.00000000000E+00 -0.88086922733E+03  0.88086922733E+03  0.00000000000E+00 0.  1.
         25    1    1    2    0    0  0.32915864094E+02 -0.14470544203E+02 -0.37542418410E+03  0.39731746597E+03  0.12500000000E+03 0.  0.
         25    1    1    2    0    0  0.13558250455E+03  0.89270362887E+02 -0.35424809496E+03  0.40922918519E+03  0.12500000000E+03 0.  0.
         25    1    1    2    0    0 -0.16849836864E+03 -0.74799818684E+02 -0.27654873829E+01  0.22275403707E+03  0.12500000000E+03 0.  0.
</event>
<event>
 5    0  0.5660959E-005  0.2576739E+03  0.7546771E-02  0.1108549E+00
         21   -1    0    0  502  501  0.00000000000E+00  0.00000000000E+00  0.12252972848E+04  0.12252972848E+04  0.00000000000E+00 0. -1.
         21   -1    0    0  501  502 -0.00000000000E+00 -0.00000000000E+00 -0.54187540296E+02  0.54187540296E+02  0.00000000000E+00 0. -1.
         25    1    1    2    0    0  0.10371835418E+03 -0.20375897626E+02  0.38086577408E+03  0.41455568029E+03  0.12500000000E+03 0.  0.
         25    1    1    2    0    0 -0.19107860646E+02 -0.90655779834E+02  0.26549168707E+03  0.30772457922E+03  0.12500000000E+03 0.  0.
         25    1    1    2    0    0 -0.84610493534E+02  0.11103167746E+03  0.52475228336E+03  0.55720456558E+03  0.12500000000E+03 0.  0.
</event>
<event>
 5    0  0.5660959E-005  0.3434340E+03  0.7546771E-02  0.1065343E+00
         21   -1    0    0  502  501  0.00000000000E+00  0.00000000000E+00  0.23398889468E+03  0.23398889468E+03  0.00000000000E+00 0.  1.
         21   -1    0    0  501  502 -0.00000000000E+00 -0.00000000000E+00 -0.50407047640E+03  0.50407047640E+03  0.00000000000E+00 0.  1.
         25    1    1    2    0    0 -0.75486599934E+02  0.18975713764E+03 -0.14486434832E+03  0.27985117021E+03  0.12500000000E+03 0.  0.
         25    1    1    2    0    0  0.15410018849E+03 -0.45927719743E+02  0.22066941568E+02  0.20486135175E+03  0.12500000000E+03 0.  0.
         25    1    1    2    0    0 -0.78613588552E+02 -0.14382941790E+03 -0.14728417497E+03  0.25334684911E+03  0.12500000000E+03 0.  0.
</event>
<event>
 5    0  0.5660959E-005  0.3063835E+03  0.7546771E-02  0.1082092E+00
         21   -1    0    0  502  501  0.00000000000E+00  0.00000000000E+00  0.17218745706E+03  0.17218745706E+03  0.00000000000E+00 0. -1.
         21   -1    0    0  501  502 -0.00000000000E+00 -0.00000000000E+00 -0.54516659327E+03  0.54516659327E+03  0.00000000000E+00 0. -1.
         25    1    1    2    0    0 -0.21736823298E+03  0.29788720656E+02 -0.19925441211E+03  0.32165763994E+03  0.12500000000E+03 0.  0.
         25    1    1    2    0    0  0.16565475986E+03  0.92228494745E+01 -0.64516150253E+02  0.21751757184E+03  0.12500000000E+03 0.  0.
         25    1    1    2    0    0  0.51713473115E+02 -0.39011570131E+02 -0.10920857384E+03  0.17817883855E+03  0.12500000000E+03 0.  0.
</event>
<event>
 5    0  0.5660959E-005  0.5262633E+03  0.7546771E-02  0.1007142E+00
         21   -1    0    0  502  501  0.00000000000E+00  0.00000000000E+00  0.71050464257E+03  0.71050464257E+03  0.00000000000E+00 0.  1.
         21   -1    0    0  501  502 -0.00000000000E+00 -0.00000000000E+00 -0.38979773937E+03  0.38979773937E+03  0.00000000000E+00 0.  1.
         25    1    1    2    0    0 -0.44559717839E+03  0.53252136536E+01  0.35884066049E+03  0.58564223115E+03  0.12500000000E+03 0.  0.
         25    1    1    2    0    0  0.19842155208E+03 -0.97507215548E+01  0.21564071048E+01  0.23472502848E+03  0.12500000000E+03 0.  0.
         25    1    1    2    0    0  0.24717562631E+03  0.44255079012E+01 -0.40290164395E+02  0.27993512232E+03  0.12500000000E+03 0.  0.
</event>
<event>
 5    0  0.5660959E-005  0.2284430E+03  0.7546771E-02  0.1127740E+00
         21   -1    0    0  502  501  0.00000000000E+00  0.00000000000E+00  0.91803455195E+02  0.91803455195E+02  0.00000000000E+00 0.  1.
         21   -1    0    0  501  502 -0.00000000000E+00 -0.00000000000E+00 -0.56845570303E+03  0.56845570303E+03  0.00000000000E+00 0.  1.
         25    1    1    2    0    0  0.11156067137E+03  0.30582447757E+02 -0.15967879930E+03  0.23345960776E+03  0.12500000000E+03 0.  0.
         25    1    1    2    0    0 -0.51289571690E+02  0.15957532747E+02 -0.18556748571E+03  0.23009901080E+03  0.12500000000E+03 0.  0.
         25    1    1    2    0    0 -0.60271099682E+02 -0.46539980504E+02 -0.13140596282E+03  0.19670053967E+03  0.12500000000E+03 0.  0.
</event>
<event>
 5    0  0.5660959E-005  0.3124170E+03  0.7546771E-02  0.1079193E+00
         21   -1    0    0  502  501  0.00000000000E+00  0.00000000000E+00  0.30408095434E+03  0.30408095434E+03  0.00000000000E+00 0.  1.
         21   -1    0    0  501  502 -0.00000000000E+00 -0.00000000000E+00 -0.32098151459E+03  0.32098151459E+03  0.00000000000E+00 0.  1.
         25    1    1    2    0    0  0.16093829619E+03 -0.11788212251E+02  0.93528200632E+02  0.22452755163E+03  0.12500000000E+03 0.  0.
         25    1    1    2    0    0 -0.13523626867E+03  0.53420490363E+02  0.43167751079E+02  0.19654783613E+03  0.12500000000E+03 0.  0.
         25    1    1    2    0    0 -0.25702027514E+02 -0.41632278112E+02 -0.15359651196E+03  0.20398708118E+03  0.12500000000E+03 0.  0.
</event>
<event>
 5    0  0.5660959E-005  0.2551034E+03  0.7546771E-02  0.1110121E+00
         21   -1    0    0  502  501  0.00000000000E+00  0.00000000000E+00  0.51551859940E+03  0.51551859940E+03  0.00000000000E+00 0.  1.
         21   -1    0    0  501  502 -0.00000000000E+00 -0.00000000000E+00 -0.12623739899E+03  0.12623739899E+03  0.00000000000E+00 0.  1.
         25    1    1    2    0    0  0.73523693397E+02 -0.70498771267E+02  0.48452324933E+02  0.16836994397E+03  0.12500000000E+03 0.  0.
         25    1    1    2    0    0  0.22965220733E+01  0.93558897464E+02  0.84893666995E+02  0.17773709800E+03  0.12500000000E+03 0.  0.
         25    1    1    2    0    0 -0.75820215470E+02 -0.23060126198E+02  0.25593520848E+03  0.29564895643E+03  0.12500000000E+03 0.  0.
</event>
<event>
 5    0  0.6027653E-005  0.3077485E+03  0.7546771E-02  0.1081430E+00
         21   -1    0    0  502  501  0.00000000000E+00  0.00000000000E+00  0.68325789214E+03  0.68325789214E+03  0.00000000000E+00 0. -1.
         21   -1    0    0  501  502 -0.00000000000E+00 -0.00000000000E+00 -0.13861408633E+03  0.13861408633E+03  0.00000000000E+00 0. -1.
         25    1    1    2    0    0  0.69203960166E+02 -0.30164559750E+02  0.24626007088E+03  0.28630073573E+03  0.12500000000E+03 0.  0.
         25    1    1    2    0    0 -0.18637550732E+03  0.16432778564E+02  0.45122295057E+02  0.22949267407E+03  0.12500000000E+03 0.  0.
         25    1    1    2    0    0  0.11717154716E+03  0.13731781186E+02  0.25326143987E+03  0.30607856868E+03  0.12500000000E+03 0.  0.
</event>
<event>
 5    0  0.5660959E-005  0.2589402E+03  0.7546771E-02  0.1107782E+00
         21   -1    0    0  502  501  0.00000000000E+00  0.00000000000E+00  0.59696404153E+02  0.59696404153E+02  0.00000000000E+00 0. -1.
         21   -1    0    0  501  502 -0.00000000000E+00 -0.00000000000E+00 -0.11231837702E+04  0.11231837702E+04  0.00000000000E+00 0. -1.
         25    1    1    2    0    0 -0.13211329988E+02  0.94996902145E+02 -0.45511898360E+03  0.48161939318E+03  0.12500000000E+03 0.  0.
         25    1    1    2    0    0 -0.32199505735E+02 -0.42579258896E+02 -0.50983321464E+03  0.52764069992E+03  0.12500000000E+03 0.  0.
         25    1    1    2    0    0  0.45410835723E+02 -0.52417643248E+02 -0.98535167841E+02  0.17362008129E+03  0.12500000000E+03 0.  0.
</event>
<event>
 5    0  0.6092092E-005  0.3541386E+03  0.7546771E-02  0.1060929E+00
         21   -1    0    0  502  501  0.00000000000E+00  0.00000000000E+00  0.67576069598E+03  0.67576069598E+03  0.00000000000E+00 0. -1.
         21   -1    0    0  501  502 -0.00000000000E+00 -0.00000000000E+00 -0.18558962130E+03  0.18558962130E+03  0.00000000000E+00 0. -1.
         25    1    1    2    0    0 -0.56418544055E+02 -0.65867341710E+02  0.40401379008E+03  0.43171020533E+03  0.12500000000E+03 0.  0.
         25    1    1    2    0    0 -0.12073621273E+03  0.61050527294E+02 -0.25093974170E+02  0.18590080012E+03  0.12500000000E+03 0.  0.
         25    1    1    2    0    0  0.17715475678E+03  0.48168144160E+01  0.11125125877E+03  0.24373931183E+03  0.12500000000E+03 0.  0.
</event>
<event>
 5    0  0.6271488E-005  0.3605578E+03  0.7546771E-02  0.1058363E+00
         21   -1    0    0  502  501  0.00000000000E+00  0.00000000000E+00  0.17087261674E+03  0.17087261674E+03  0.00000000000E+00 0.  1.
         21   -1    0    0  501  502 -0.00000000000E+00 -0.00000000000E+00 -0.76081185564E+03  0.76081185564E+03  0.00000000000E+00 0.  1.
         25    1    1    2    0    0 -0.10381761172E+03 -0.89469865658E+02 -0.41025222759E+03  0.45023865184E+03  0.12500000000E+03 0.  0.
         25    1    1    2    0    0 -0.45582361242E+02  0.18179177368E+03 -0.53076007775E+02  0.23144775487E+03  0.12500000000E+03 0.  0.
         25    1    1    2    0    0  0.14939997297E+03 -0.92321908022E+02 -0.12661100353E+03  0.24999806567E+03  0.12500000000E+03 0.  0.
</event>
<event>
 5    0  0.5660959E-005  0.3170608E+03  0.7546771E-02  0.1077010E+00
         21   -1    0    0  502  501  0.00000000000E+00  0.00000000000E+00  0.47235387719E+03  0.47235387719E+03  0.00000000000E+00 0.  1.
         21   -1    0    0  501  502 -0.00000000000E+00 -0.00000000000E+00 -0.21282248383E+03  0.21282248383E+03  0.00000000000E+00 0.  1.
         25    1    1    2    0    0  0.19117113917E+03 -0.10285041378E+03  0.17467000311E+03  0.30538372918E+03  0.12500000000E+03 0.  0.
         25    1    1    2    0    0 -0.10442015723E+03  0.13548837487E+03  0.71513284836E+02  0.22360639273E+03  0.12500000000E+03 0.  0.
         25    1    1    2    0    0 -0.86750981933E+02 -0.32637961084E+02  0.13348105413E+02  0.15618623911E+03  0.12500000000E+03 0.  0.
</event>
<event>
 5    0  0.5660959E-005  0.2699099E+03  0.7546771E-02  0.1101331E+00
         21   -1    0    0  502  501  0.00000000000E+00  0.00000000000E+00  0.34815378009E+03  0.34815378009E+03  0.00000000000E+00 0.  1.
         21   -1    0    0  501  502 -0.00000000000E+00 -0.00000000000E+00 -0.20925052191E+03  0.20925052191E+03  0.00000000000E+00 0.  1.
         25    1    1    2    0    0 -0.10151256357E+03  0.10382391670E+02 -0.96811952121E+02  0.18817584514E+03  0.12500000000E+03 0.  0.
         25    1    1    2    0    0  0.33592137760E+01 -0.26499094167E+01  0.10480976304E+03  0.16318208470E+03  0.12500000000E+03 0.  0.
         25    1    1    2    0    0  0.98153349798E+02 -0.77324822529E+01  0.13090544726E+03  0.20604637216E+03  0.12500000000E+03 0.  0.
</event>
<event>
 5    0  0.5660959E-005  0.2965780E+03  0.7546771E-02  0.1086964E+00
         21   -1    0    0  502  501  0.00000000000E+00  0.00000000000E+00  0.13375274584E+03  0.13375274584E+03  0.00000000000E+00 0.  1.
         21   -1    0    0  501  502 -0.00000000000E+00 -0.00000000000E+00 -0.65762041372E+03  0.65762041372E+03  0.00000000000E+00 0.  1.
         25    1    1    2    0    0  0.38251952188E+02  0.66034095302E+02 -0.50654030439E+03  0.52728720216E+03  0.12500000000E+03 0.  0.
         25    1    1    2    0    0 -0.92602313811E+01 -0.35480102438E+02  0.47086322276E+01  0.13035244828E+03  0.12500000000E+03 0.  0.
         25    1    1    2    0    0 -0.28991720806E+02 -0.30553992864E+02 -0.22035995720E+02  0.13373350912E+03  0.12500000000E+03 0.  0.
</event>
<event>
 5    0  0.6812024E-005  0.2896215E+03  0.7546771E-02  0.1090547E+00
         21   -1    0    0  502  501  0.00000000000E+00  0.00000000000E+00  0.93617038880E+03  0.93617038880E+03  0.00000000000E+00 0.  1.
         21   -1    0    0  501  502 -0.00000000000E+00 -0.00000000000E+00 -0.89599745663E+02  0.89599745663E+02  0.00000000000E+00 0.  1.
         25    1    1    2    0    0 -0.31887827943E+02 -0.98365733427E+02  0.12987261517E+03  0.20780892006E+03  0.12500000000E+03 0.  0.
         25    1    1    2    0    0  0.10836951091E+02  0.18716572024E+03  0.52690054519E+03  0.57305988419E+03  0.12500000000E+03 0.  0.
         25    1    1    2    0    0  0.21050876852E+02 -0.88799986817E+02  0.18979748278E+03  0.24490133022E+03  0.12500000000E+03 0.  0.
</event>
<event>
 5    0  0.5853183E-005  0.2702693E+03  0.7546771E-02  0.1101126E+00
         21   -1    0    0  502  501  0.00000000000E+00  0.00000000000E+00  0.20882114098E+03  0.20882114098E+03  0.00000000000E+00 0. -1.
         21   -1    0    0  501  502 -0.00000000000E+00 -0.00000000000E+00 -0.34979927242E+03  0.34979927242E+03  0.00000000000E+00 0. -1.
         25    1    1    2    0    0 -0.34400352790E+02 -0.35953475865E+02 -0.80617172771E+01  0.13478140816E+03  0.12500000000E+03 0.  0.
         25    1    1    2    0    0  0.29729451538E+02  0.13972755596E+03 -0.17257164739E+03  0.25654162171E+03  0.12500000000E+03 0.  0.
         25    1    1    2    0    0  0.46709012526E+01 -0.10377408010E+03  0.39655233229E+02  0.16729738355E+03  0.12500000000E+03 0.  0.
</event>
<event>
 5    0  0.5660959E-005  0.3052527E+03  0.7546771E-02  0.1082644E+00
         21   -1    0    0  502  501  0.00000000000E+00  0.00000000000E+00  0.50945270063E+03  0.50945270063E+03  0.00000000000E+00 0.  1.
         21   -1    0    0  501  502 -0.00000000000E+00 -0.00000000000E+00 -0.18290062003E+03  0.18290062003E+03  0.00000000000E+00 0.  1.
         25    1    1    2    0    0 -0.39179523113E+02  0.15325638091E+03  0.12885811532E+03  0.23927383309E+03  0.12500000000E+03 0.  0.
         25    1    1    2    0    0  0.15363350588E+02  0.42140931359E+02 -0.19728822352E+02  0.13426137594E+03  0.12500000000E+03 0.  0.
         25    1    1    2    0    0  0.23816172525E+02 -0.19539731227E+03  0.21742278764E+03  0.31881811162E+03  0.12500000000E+03 0.  0.
</event>
<event>
 5    0  0.5993280E-005  0.2630389E+03  0.7546771E-02  0.1105331E+00
         21   -1    0    0  502  501  0.00000000000E+00  0.00000000000E+00  0.25322752607E+03  0.25322752607E+03  0.00000000000E+00 0. -1.
         21   -1    0    0  501  502 -0.00000000000E+00 -0.00000000000E+00 -0.27323034209E+03  0.27323034209E+03  0.00000000000E+00 0. -1.
         25    1    1    2    0    0 -0.11330897304E+03  0.43146030166E+02  0.11812087720E+02  0.17454234073E+03  0.12500000000E+03 0.  0.
         25    1    1    2    0    0 -0.47411582788E+02  0.30397948542E+01 -0.49024344196E+02  0.14242712122E+03  0.12500000000E+03 0.  0.
         25    1    1    2    0    0  0.16072055582E+03 -0.46185825020E+02  0.17209440461E+02  0.20948840621E+03  0.12500000000E+03 0.  0.
</event>
<event>
 5    0  0.5660959E-005  0.2340933E+03  0.7546771E-02  0.1123791E+00
         21   -1    0    0  502  501  0.00000000000E+00  0.00000000000E+00  0.16311923892E+03  0.16311923892E+03  0.00000000000E+00 0. -1.
         21   -1    0    0  501  502 -0.00000000000E+00 -0.00000000000E+00 -0.33594855148E+03  0.33594855148E+03  0.00000000000E+00 0. -1.
         25    1    1    2    0    0  0.27811451972E+02 -0.92578405807E+00 -0.15665346346E+02  0.12901448373E+03  0.12500000000E+03 0.  0.
         25    1    1    2    0    0 -0.94895488017E+02  0.56498533172E+02 -0.25604401907E+02  0.16875373564E+03  0.12500000000E+03 0.  0.
         25    1    1    2    0    0  0.67084036045E+02 -0.55572749114E+02 -0.13155956430E+03  0.20129957103E+03  0.12500000000E+03 0.  0.
</event>
<event>
 5    0  0.5660959E-005  0.2159763E+03  0.7546771E-02  0.1136919E+00
         21   -1    0    0  502  501  0.00000000000E+00  0.00000000000E+00  0.32474984055E+03  0.32474984055E+03  0.00000000000E+00 0.  1.
         21   -1    0    0  501  502 -0.00000000000E+00 -0.00000000000E+00 -0.14363592385E+03  0.14363592385E+03  0.00000000000E+00 0.  1.
         25    1    1    2    0    0  0.58427972224E+02  0.21136149187E+02  0.10646024581E+03  0.17555440376E+03  0.12500000000E+03 0.  0.
         25    1    1    2    0    0  0.30107938568E+02 -0.97108428368E+01  0.24508871600E+02  0.13124965989E+03  0.12500000000E+03 0.  0.
         25    1    1    2    0    0 -0.88535910792E+02 -0.11425306350E+02  0.50144799286E+02  0.16158170076E+03  0.12500000000E+03 0.  0.
</event>
<event>
 5    0  0.5660959E-005  0.3955249E+03  0.7546771E-02  0.1045340E+00
         21   -1    0    0  502  501  0.00000000000E+00  0.00000000000E+00  0.36827431946E+03  0.36827431946E+03  0.00000000000E+00 0. -1.
         21   -1    0    0  501  502 -0.00000000000E+00 -0.00000000000E+00 -0.42479195957E+03  0.42479195957E+03  0.00000000000E+00 0. -1.
         25    1    1    2    0    0  0.16482351841E+03  0.63095484494E+02 -0.16345592495E+01  0.21627645311E+03  0.12500000000E+03 0.  0.
         25    1    1    2    0    0  0.11377978965E+03 -0.92432887798E+02  0.11675687378E+03  0.22527060806E+03  0.12500000000E+03 0.  0.
         25    1    1    2    0    0 -0.27860330806E+03  0.29337403304E+02 -0.17163995465E+03  0.35151921786E+03  0.12500000000E+03 0.  0.
</event>
<event>
 5    0  0.5660959E-005  0.2892010E+03  0.7546771E-02  0.1090767E+00
         21   -1    0    0  502  501  0.00000000000E+00  0.00000000000E+00  0.93285768999E+02  0.93285768999E+02  0.00000000000E+00 0. -1.
         21   -1    0    0  501  502 -0.00000000000E+00 -0.00000000000E+00 -0.89656991599E+03  0.89656991599E+03  0.00000000000E+00 0. -1.
         25    1    1    2    0    0  0.20503829886E+03  0.16538152809E+02 -0.30286098474E+03  0.38686430512E+03  0.12500000000E+03 0.  0.
         25    1    1    2    0    0 -0.82141325928E+02 -0.35881897335E+02 -0.17609429244E+03  0.23381383153E+03  0.12500000000E+03 0.  0.
         25    1    1    2    0    0 -0.12289697293E+03  0.19343744525E+02 -0.32432886981E+03  0.36917754834E+03  0.12500000000E+03 0.  0.
</event>
<event>
 5    0  0.5660959E-005  0.4230646E+03  0.7546771E-02  0.1036073E+00
         21   -1    0    0  502  501  0.00000000000E+00  0.00000000000E+00  0.14123338983E+03  0.14123338983E+03  0.00000000000E+00 0. -1.
         21   -1    0    0  501  502 -0.00000000000E+00 -0.00000000000E+00 -0.12672901467E+04  0.12672901467E+04  0.00000000000E+00 0. -1.
         25    1    1    2    0    0  0.87131722272E+02 -0.53514221289E+02  0.41154023103E+02  0.16665642059E+03  0.12500000000E+03 0.  0.
         25    1    1    2    0    0  0.11147087710E+03  0.83358162071E+02 -0.54411553253E+03  0.57537905103E+03  0.12500000000E+03 0.  0.
         25    1    1    2    0    0 -0.19860259937E+03 -0.29843940783E+02 -0.62309524744E+03  0.66648806490E+03  0.12500000000E+03 0.  0.
</event>
<event>
 5    0  0.5660959E-005  0.4532895E+03  0.7546771E-02  0.1026746E+00
         21   -1    0    0  502  501  0.00000000000E+00  0.00000000000E+00  0.34241092873E+03  0.34241092873E+03  0.00000000000E+00 0.  1.
         21   -1    0    0  501  502 -0.00000000000E+00 -0.00000000000E+00 -0.60007249584E+03  0.60007249584E+03  0.00000000000E+00 0.  1.
         25    1    1    2    0    0 -0.95850975027E+02 -0.34269788317E+02 -0.49601015521E+03  0.52154856138E+03  0.12500000000E+03 0.  0.
         25    1    1    2    0    0  0.14422793126E+03  0.10423569303E+01  0.20249140749E+03  0.27826345928E+03  0.12500000000E+03 0.  0.
         25    1    1    2    0    0 -0.48376956236E+02  0.33227431387E+02  0.35857180609E+02  0.14267140391E+03  0.12500000000E+03 0.  0.
</event>
<event>
 5    0  0.5660959E-005  0.2501124E+03  0.7546771E-02  0.1113234E+00
         21   -1    0    0  502  501  0.00000000000E+00  0.00000000000E+00  0.11139342709E+03  0.11139342709E+03  0.00000000000E+00 0. -1.
         21   -1    0    0  501  502 -0.00000000000E+00 -0.00000000000E+00 -0.56157921764E+03  0.56157921764E+03  0.00000000000E+00 0. -1.
         25    1    1    2    0    0 -0.97297797541E+02 -0.31521859650E+02 -0.63193037569E+02  0.17343254896E+03  0.12500000000E+03 0.  0.
         25    1    1    2    0    0  0.36350267852E+01 -0.55188321359E+02 -0.18222366553E+03  0.22779251198E+03  0.12500000000E+03 0.  0.
         25    1    1    2    0    0  0.93662770756E+02  0.86710181009E+02 -0.20476908745E+03  0.27174758378E+03  0.12500000000E+03 0.  0.
</event>
<event>
 5    0  0.7174247E-005  0.2815991E+03  0.7546771E-02  0.1094819E+00
         21   -1    0    0  502  501  0.00000000000E+00  0.00000000000E+00  0.26956443648E+03  0.26956443648E+03  0.00000000000E+00 0.  1.
         21   -1    0    0  501  502 -0.00000000000E+00 -0.00000000000E+00 -0.29417102725E+03  0.29417102725E+03  0.00000000000E+00 0.  1.
         25    1    1    2    0    0 -0.44130224931E+02 -0.40008485193E+02 -0.12356448986E+03  0.18558377837E+03  0.12500000000E+03 0.  0.
         25    1    1    2    0    0 -0.18949001352E+02 -0.30927265986E+02  0.16303584180E+03  0.20861746366E+03  0.12500000000E+03 0.  0.
         25    1    1    2    0    0  0.63079226284E+02  0.70935751179E+02 -0.64077942711E+02  0.16953422170E+03  0.12500000000E+03 0.  0.
</event>
<event>
 5    0  0.5660959E-005  0.3069873E+03  0.7546771E-02  0.1081799E+00
         21   -1    0    0  502  501  0.00000000000E+00  0.00000000000E+00  0.12055770029E+03  0.12055770029E+03  0.00000000000E+00 0. -1.
         21   -1    0    0  501  502 -0.00000000000E+00 -0.00000000000E+00 -0.78171030580E+03  0.78171030580E+03  0.00000000000E+00 0. -1.
         25    1    1    2    0    0 -0.98182754948E+02 -0.14459830878E+02 -0.18272823908E+03  0.24261811440E+03  0.12500000000E+03 0.  0.
         25    1    1    2    0    0 -0.52005239818E+02  0.10353097775E+03 -0.45519881534E+02  0.17640937599E+03  0.12500000000E+03 0.  0.
         25    1    1    2    0    0  0.15018799477E+03 -0.89071146868E+02 -0.43290448490E+03  0.48324051571E+03  0.12500000000E+03 0.  0.
</event>
<event>
 5    0  0.5660959E-005  0.3641699E+03  0.7546771E-02  0.1056945E+00
         21   -1    0    0  502  501  0.00000000000E+00  0.00000000000E+00  0.71387225732E+02  0.71387225732E+02  0.00000000000E+00 0.  1.
         21   -1    0    0  501  502 -0.00000000000E+00 -0.00000000000E+00 -0.18577515217E+04  0.18577515217E+04  0.00000000000E+00 0. -1.
         25    1    1    2    0    0 -0.19823793098E+03 -0.65730465127E+02 -0.94694744150E+03  0.97772860666E+03  0.12500000000E+03 0.  0.
         25    1    1    2    0    0  0.23713303523E+03  0.13355618621E+03 -0.53339080881E+03  0.61171896014E+03  0.12500000000E+03 0.  0.
         25    1    1    2    0    0 -0.38895104248E+02 -0.67825721088E+02 -0.30602604567E+03  0.33969118064E+03  0.12500000000E+03 0.  0.
</event>
<event>
 5    0  0.5660959E-005  0.2479663E+03  0.7546771E-02  0.1114597E+00
         21   -1    0    0  502  501  0.00000000000E+00  0.00000000000E+00  0.34129648543E+03  0.34129648543E+03  0.00000000000E+00 0.  1.
         21   -1    0    0  501  502 -0.00000000000E+00 -0.00000000000E+00 -0.18015796101E+03  0.18015796101E+03  0.00000000000E+00 0.  1.
         25    1    1    2    0    0  0.52350625399E+02  0.17380691484E+02  0.11478514635E+03  0.17844692835E+03  0.12500000000E+03 0.  0.
         25    1    1    2    0    0 -0.79518317070E+01  0.78389161424E+02  0.90849308666E+02  0.17345515023E+03  0.12500000000E+03 0.  0.
         25    1    1    2    0    0 -0.44398793692E+02 -0.95769852909E+02 -0.44495930589E+02  0.16955236786E+03  0.12500000000E+03 0.  0.
</event>
<event>
 5    0  0.5660959E-005  0.2368155E+03  0.7546771E-02  0.1121933E+00
         21   -1    0    0  502  501  0.00000000000E+00  0.00000000000E+00  0.56237612220E+02  0.56237612220E+02  0.00000000000E+00 0.  1.
         21   -1    0    0  501  502 -0.00000000000E+00 -0.00000000000E+00 -0.99722528157E+03  0.99722528157E+03  0.00000000000E+00 0.  1.
         25    1    1    2    0    0 -0.49485070717E+02  0.67156520257E+02 -0.55579388865E+03  0.57575221849E+03  0.12500000000E+03 0.  0.
         25    1    1    2    0    0  0.24286469115E+02 -0.79200989275E+02 -0.16490715201E+03  0.22289458959E+03  0.12500000000E+03 0.  0.
         25    1    1    2    0    0  0.25198601601E+02  0.12044469018E+02 -0.22028662870E+03  0.25481608572E+03  0.12500000000E+03 0.  0.
</event>
<event>
 5    0  0.5660959E-005  0.2521305E+03  0.7546771E-02  0.1111966E+00
         21   -1    0    0  502  501  0.00000000000E+00  0.00000000000E+00  0.51663718373E+02  0.51663718373E+02  0.00000000000E+00 0. -1.
         21   -1    0    0  501  502 -0.00000000000E+00 -0.00000000000E+00 -0.12304530897E+04  0.12304530897E+04  0.00000000000E+00 0. -1.
         25    1    1    2    0    0 -0.13133679155E+02 -0.37719053780E+02 -0.43749996678E+03  0.45675643562E+03  0.12500000000E+03 0.  0.
         25    1    1    2    0    0  0.86766287930E+02  0.11917387779E+03 -0.45293888013E+03  0.49245246573E+03  0.12500000000E+03 0.  0.
         25    1    1    2    0    0 -0.73632608775E+02 -0.81454824011E+02 -0.28835052443E+03  0.33290790674E+03  0.12500000000E+03 0.  0.
</event>
<event>
 5    0  0.5660959E-005  0.5377592E+03  0.7546771E-02  0.1004368E+00
         21   -1    0    0  502  501  0.00000000000E+00  0.00000000000E+00  0.24938546109E+04  0.24938546109E+04  0.00000000000E+00 0.  1.
         21   -1    0    0  501  502 -0.00000000000E+00 -0.00000000000E+00 -0.11595904722E+03  0.11595904722E+03  0.00000000000E+00 0.  1.
         25    1    1    2    0    0 -0.38090340841E+02  0.32050339462E+03  0.15700091149E+04  0.16077085933E+04  0.12500000000E+03 0.  0.
         25    1    1    2    0    0 -0.13428117438E+03 -0.67667936636E+02  0.54732985242E+03  0.58121024663E+03  0.12500000000E+03 0.  0.
         25    1    1    2    0    0  0.17237151522E+03 -0.25283545799E+03  0.26055659629E+03  0.42089481815E+03  0.12500000000E+03 0.  0.
</event>
<event>
 5    0  0.5660959E-005  0.3959319E+03  0.7546771E-02  0.1045197E+00
         21   -1    0    0  502  501  0.00000000000E+00  0.00000000000E+00  0.30386121190E+04  0.30386121190E+04  0.00000000000E+00 0.  1.
         21   -1    0    0  501  502 -0.00000000000E+00 -0.00000000000E+00 -0.51590013009E+02  0.51590013009E+02  0.00000000000E+00 0.  1.
         25    1    1    2    0    0  0.43086228234E+02  0.39319006146E+02  0.18439097429E+04  0.18490620723E+04  0.12500000000E+03 0.  0.
         25    1    1    2    0    0  0.60235784999E+02  0.13280633660E+03  0.81098617454E+03  0.83342033100E+03  0.12500000000E+03 0.  0.
         25    1    1    2    0    0 -0.10332201323E+03 -0.17212534275E+03  0.33212618851E+03  0.40771972865E+03  0.12500000000E+03 0.  0.
</event>
<event>
 5    0  0.5660959E-005  0.3258288E+03  0.7546771E-02  0.1072998E+00
         21   -1    0    0  502  501  0.00000000000E+00  0.00000000000E+00  0.34355723836E+03  0.34355723836E+03  0.00000000000E+00 0.  1.
         21   -1    0    0  501  502 -0.00000000000E+00 -0.00000000000E+00 -0.30901525510E+03  0.30901525510E+03  0.00000000000E+00 0.  1.
         25    1    1    2    0    0  0.85796699463E+02  0.20074949743E+03  0.25834951420E+02  0.25289104190E+03  0.12500000000E+03 0.  0.
         25    1    1    2    0    0  0.50677990624E+02 -0.13163280723E+03 -0.47355355904E+02  0.19432700380E+03  0.12500000000E+03 0.  0.
         25    1    1    2    0    0 -0.13647469009E+03 -0.69116690201E+02  0.56062387745E+02  0.20535444777E+03  0.12500000000E+03 0.  0.
</event>
<event>
 5    0  0.6330973E-005  0.3176401E+03  0.7546771E-02  0.1076741E+00
         21   -1    0    0  502  501  0.00000000000E+00  0.00000000000E+00  0.69305531348E+03  0.69305531348E+03  0.00000000000E+00 0.  1.
         21   -1    0    0  501  502 -0.00000000000E+00 -0.00000000000E+00 -0.14558033489E+03  0.14558033489E+03  0.00000000000E+00 0.  1.
         25    1    1    2    0    0  0.16653592985E+02  0.90573955793E+02 -0.17185634531E+02  0.15620924960E+03  0.12500000000E+03 0.  0.
         25    1    1    2    0    0  0.80511670110E+02  0.23227311166E+02  0.39947927288E+03  0.42688444158E+03  0.12500000000E+03 0.  0.
         25    1    1    2    0    0 -0.97165263096E+02 -0.11380126696E+03  0.16518134024E+03  0.25554195718E+03  0.12500000000E+03 0.  0.
</event>
<event>
 5    0  0.5660959E-005  0.3633165E+03  0.7546771E-02  0.1057278E+00
         21   -1    0    0  502  501  0.00000000000E+00  0.00000000000E+00  0.49890836023E+02  0.49890836023E+02  0.00000000000E+00 0.  1.
         21   -1    0    0  501  502 -0.00000000000E+00 -0.00000000000E+00 -0.26457534893E+04  0.26457534893E+04  0.00000000000E+00 0.  1.
         25    1    1    2    0    0  0.45442364763E+02  0.13083514708E+03 -0.14518236335E+04  0.14637621757E+04  0.12500000000E+03 0.  0.
         25    1    1    2    0    0 -0.85225692655E+02  0.25325037049E+02 -0.90391139195E+03  0.91683454380E+03  0.12500000000E+03 0.  0.
         25    1    1    2    0    0  0.39783327892E+02 -0.15616018412E+03 -0.24012762776E+03  0.31504760576E+03  0.12500000000E+03 0.  0.
</event>
<event>
 5    0  0.5660959E-005  0.2281037E+03  0.7546771E-02  0.1127982E+00
         21   -1    0    0  502  501  0.00000000000E+00  0.00000000000E+00  0.35857403063E+03  0.35857403063E+03  0.00000000000E+00 0. -1.
         21   -1    0    0  501  502 -0.00000000000E+00 -0.00000000000E+00 -0.14510612412E+03  0.14510612412E+03  0.00000000000E+00 0. -1.
         25    1    1    2    0    0  0.11516058621E+02  0.66253622585E+02  0.44639337340E+02  0.14879459852E+03  0.12500000000E+03 0.  0.
         25    1    1    2    0    0 -0.47964567213E+02 -0.92473264009E+02  0.14893102389E+03  0.22058412033E+03  0.12500000000E+03 0.  0.
         25    1    1    2    0    0  0.36448508592E+02  0.26219641424E+02  0.19897545284E+02  0.13430143589E+03  0.12500000000E+03 0.  0.
</event>
<event>
 5    0  0.5660959E-005  0.3772449E+03  0.7546771E-02  0.1051957E+00
         21   -1    0    0  502  501  0.00000000000E+00  0.00000000000E+00  0.18331756235E+04  0.18331756235E+04  0.00000000000E+00 0. -1.
         21   -1    0    0  501  502 -0.00000000000E+00 -0.00000000000E+00 -0.77632336650E+02  0.77632336650E+02  0.00000000000E+00 0. -1.
         25    1    1    2    0    0  0.29431514934E+03 -0.32895782680E+02  0.57460671761E+03  0.65840824689E+03  0.12500000000E+03 0.  0.
         25    1    1    2    0    0 -0.22919989840E+03 -0.87300726978E+01  0.87208862407E+03  0.91036936231E+03  0.12500000000E+03 0.  0.
         25    1    1    2    0    0 -0.65115250938E+02  0.41625855378E+02  0.30884794520E+03  0.34203035099E+03  0.12500000000E+03 0.  0.
</event>
<event>
 5    0  0.5660959E-005  0.2954874E+03  0.7546771E-02  0.1087518E+00
         21   -1    0    0  502  501  0.00000000000E+00  0.00000000000E+00  0.16669110029E+03  0.16669110029E+03  0.00000000000E+00 0. -1.
         21   -1    0    0  501  502 -0.00000000000E+00 -0.00000000000E+00 -0.52380005835E+03  0.52380005835E+03  0.00000000000E+00 0. -1.
         25    1    1    2    0    0  0.13453851848E+03 -0.94643267724E+02 -0.73979073540E+02  0.21944444491E+03  0.12500000000E+03 0.  0.
         25    1    1    2    0    0  0.27211769949E+01  0.54774555663E+02 -0.24034919713E+03  0.27640621070E+03  0.12500000000E+03 0.  0.
         25    1    1    2    0    0 -0.13725969548E+03  0.39868712061E+02 -0.42780687395E+02  0.19464050302E+03  0.12500000000E+03 0.  0.
</event>
<event>
 5    0  0.5660959E-005  0.2041316E+03  0.7546771E-02  0.1146299E+00
         21   -1    0    0  502  501  0.00000000000E+00  0.00000000000E+00  0.48636817397E+02  0.48636817397E+02  0.00000000000E+00 0.  1.
         21   -1    0    0  501  502 -0.00000000000E+00 -0.00000000000E+00 -0.85675277813E+03  0.85675277813E+03  0.00000000000E+00 0.  1.
         25    1    1    2    0    0  0.49137427328E+02 -0.28622276941E+02 -0.31176408211E+03  0.34066928890E+03  0.12500000000E+03 0.  0.
         25    1    1    2    0    0 -0.59279899117E+01  0.48611165120E+02 -0.27664801974E+03  0.30750172888E+03  0.12500000000E+03 0.  0.
         25    1    1    2    0    0 -0.43209437417E+02 -0.19988888180E+02 -0.21970385889E+03  0.25721857776E+03  0.12500000000E+03 0.  0.
</event>
<event>
 5    0  0.5660959E-005  0.2433125E+03  0.7546771E-02  0.1117606E+00
         21   -1    0    0  502  501  0.00000000000E+00  0.00000000000E+00  0.27730853435E+03  0.27730853435E+03  0.00000000000E+00 0.  1.
         21   -1    0    0  501  502 -0.00000000000E+00 -0.00000000000E+00 -0.21348413216E+03  0.21348413216E+03  0.00000000000E+00 0.  1.
         25    1    1    2    0    0  0.65977667243E+02 -0.51268237337E+02 -0.61299122226E+02  0.16237015465E+03  0.12500000000E+03 0.  0.
         25    1    1    2    0    0 -0.42202601909E+02  0.65096011240E+02 -0.32397285416E+01  0.14715313836E+03  0.12500000000E+03 0.  0.
         25    1    1    2    0    0 -0.23775065334E+02 -0.13827773902E+02  0.12836325296E+03  0.18126937351E+03  0.12500000000E+03 0.  0.
</event>
<event>
 5    0  0.5660959E-005  0.3070398E+03  0.7546771E-02  0.1081773E+00
         21   -1    0    0  502  501  0.00000000000E+00  0.00000000000E+00  0.22370265845E+03  0.22370265845E+03  0.00000000000E+00 0.  1.
         21   -1    0    0  501  502 -0.00000000000E+00 -0.00000000000E+00 -0.42142306502E+03  0.42142306502E+03  0.00000000000E+00 0.  1.
         25    1    1    2    0    0 -0.10216387136E+03 -0.38527784215E+02 -0.18921040520E+03  0.25168914201E+03  0.12500000000E+03 0.  0.
         25    1    1    2    0    0  0.10511788494E+03 -0.75576912607E+01 -0.13323846232E+03  0.21091319606E+03  0.12500000000E+03 0.  0.
         25    1    1    2    0    0 -0.29540135734E+01  0.46085475476E+02  0.12472846096E+03  0.18252338540E+03  0.12500000000E+03 0.  0.
</event>
<event>
 5    0  0.5660959E-005  0.3441446E+03  0.7546771E-02  0.1065044E+00
         21   -1    0    0  502  501  0.00000000000E+00  0.00000000000E+00  0.24397316955E+03  0.24397316955E+03  0.00000000000E+00 0. -1.
         21   -1    0    0  501  502 -0.00000000000E+00 -0.00000000000E+00 -0.48544488297E+03  0.48544488297E+03  0.00000000000E+00 0. -1.
         25    1    1    2    0    0  0.27150172023E+02  0.14086326171E+02 -0.11782620153E+03  0.17448085910E+03  0.12500000000E+03 0.  0.
         25    1    1    2    0    0  0.27354494883E+02  0.19612692540E+03  0.62986515253E+02  0.24250018631E+03  0.12500000000E+03 0.  0.
         25    1    1    2    0    0 -0.54504666906E+02 -0.21021325157E+03 -0.18663202714E+03  0.31243700710E+03  0.12500000000E+03 0.  0.
</event>
<event>
 5    0  0.5660959E-005  0.2911131E+03  0.7546771E-02  0.1089769E+00
         21   -1    0    0  502  501  0.00000000000E+00  0.00000000000E+00  0.11590442868E+04  0.11590442868E+04  0.00000000000E+00 0.  1.
         21   -1    0    0  501  502 -0.00000000000E+00 -0.00000000000E+00 -0.73117841012E+02  0.73117841012E+02  0.00000000000E+00 0.  1.
         25    1    1    2    0    0 -0.19520700004E+03  0.81412954302E+02  0.50944302174E+03  0.56558910385E+03  0.12500000000E+03 0.  0.
         25    1    1    2    0    0  0.74061097414E+02 -0.34934657332E+02  0.31954166577E+03  0.35275678958E+03  0.12500000000E+03 0.  0.
         25    1    1    2    0    0  0.12114590263E+03 -0.46478296970E+02  0.25694175828E+03  0.31381623438E+03  0.12500000000E+03 0.  0.
</event>
<event>
 5    0  0.5660959E-005  0.2529909E+03  0.7546771E-02  0.1111429E+00
         21   -1    0    0  502  501  0.00000000000E+00  0.00000000000E+00  0.63673464826E+03  0.63673464826E+03  0.00000000000E+00 0.  1.
         21   -1    0    0  501  502 -0.00000000000E+00 -0.00000000000E+00 -0.10051974431E+03  0.10051974431E+03  0.00000000000E+00 0.  1.
         25    1    1    2    0    0  0.62847443901E+02 -0.60474232611E+02  0.40019008756E+03  0.42823362805E+03  0.12500000000E+03 0.  0.
         25    1    1    2    0    0 -0.19787342123E+02  0.52083346713E+02  0.10620748777E+03  0.17323176490E+03  0.12500000000E+03 0.  0.
         25    1    1    2    0    0 -0.43060101779E+02  0.83908858980E+01  0.29817328616E+02  0.13578899962E+03  0.12500000000E+03 0.  0.
</event>
<event>
 5    0  0.5660959E-005  0.3370477E+03  0.7546771E-02  0.1068060E+00
         21   -1    0    0  502  501  0.00000000000E+00  0.00000000000E+00  0.29378659191E+03  0.29378659191E+03  0.00000000000E+00 0.  1.
         21   -1    0    0  501  502 -0.00000000000E+00 -0.00000000000E+00 -0.38667924678E+03  0.38667924678E+03  0.00000000000E+00 0.  1.
         25    1    1    2    0    0 -0.13248419453E+03 -0.18121683494E+03 -0.16923388273E+03  0.30766330644E+03  0.12500000000E+03 0.  0.
         25    1    1    2    0    0  0.39442816809E+02  0.15379901013E+03  0.72010744427E+02  0.21452370179E+03  0.12500000000E+03 0.  0.
         25    1    1    2    0    0  0.93041377719E+02  0.27417824809E+02  0.43304834341E+01  0.15827883046E+03  0.12500000000E+03 0.  0.
</event>
<event>
 5    0  0.5660959E-005  0.4441107E+03  0.7546771E-02  0.1029493E+00
         21   -1    0    0  502  501  0.00000000000E+00  0.00000000000E+00  0.18912570610E+04  0.18912570610E+04  0.00000000000E+00 0. -1.
         21   -1    0    0  501  502 -0.00000000000E+00 -0.00000000000E+00 -0.10428741104E+03  0.10428741104E+03  0.00000000000E+00 0. -1.
         25    1    1    2    0    0  0.67227357400E+02  0.30791565057E+03  0.84803704986E+03  0.91330356584E+03  0.12500000000E+03 0.  0.
         25    1    1    2    0    0 -0.69879147031E+02 -0.20237272697E+03  0.18128473856E+03  0.30712696437E+03  0.12500000000E+03 0.  0.
         25    1    1    2    0    0  0.26517896309E+01 -0.10554292360E+03  0.75764786150E+03  0.77511394179E+03  0.12500000000E+03 0.  0.
</event>
<event>
 5    0  0.5660959E-005  0.3341354E+03  0.7546771E-02  0.1069322E+00
         21   -1    0    0  502  501  0.00000000000E+00  0.00000000000E+00  0.16778573986E+03  0.16778573986E+03  0.00000000000E+00 0.  1.
         21   -1    0    0  501  502 -0.00000000000E+00 -0.00000000000E+00 -0.66541093263E+03  0.66541093263E+03  0.00000000000E+00 0.  1.
         25    1    1    2    0    0  0.19798802129E+03 -0.50245152824E+02 -0.21719086066E+02  0.24045904153E+03  0.12500000000E+03 0.  0.
         25    1    1    2    0    0 -0.15269633614E+03  0.53042177436E+02 -0.37024229874E+03  0.42288769600E+03  0.12500000000E+03 0.  0.
         25    1    1    2    0    0 -0.45291685153E+02 -0.27970246122E+01 -0.10566380797E+03  0.16984993496E+03  0.12500000000E+03 0.  0.
</event>
<event>
 5    0  0.5660959E-005  0.4198277E+03  0.7546771E-02  0.1037122E+00
         21   -1    0    0  502  501  0.00000000000E+00  0.00000000000E+00  0.90735740767E+03  0.90735740767E+03  0.00000000000E+00 0.  1.
         21   -1    0    0  501  502 -0.00000000000E+00 -0.00000000000E+00 -0.19425124994E+03  0.19425124994E+03  0.00000000000E+00 0.  1.
         25    1    1    2    0    0  0.25768425527E+03  0.16851239514E+03  0.34126953128E+03  0.47632708900E+03  0.12500000000E+03 0.  0.
         25    1    1    2    0    0  0.27460184574E+02 -0.11327536505E+03  0.20782275187E+03  0.26907371900E+03  0.12500000000E+03 0.  0.
         25    1    1    2    0    0 -0.28514443985E+03 -0.55237030085E+02  0.16401387458E+03  0.35620784961E+03  0.12500000000E+03 0.  0.
</event>
<event>
 5    0  0.5660959E-005  0.4488506E+03  0.7546771E-02  0.1028065E+00
         21   -1    0    0  502  501  0.00000000000E+00  0.00000000000E+00  0.59898410070E+03  0.59898410070E+03  0.00000000000E+00 0. -1.
         21   -1    0    0  501  502 -0.00000000000E+00 -0.00000000000E+00 -0.33634757581E+03  0.33634757581E+03  0.00000000000E+00 0. -1.
         25    1    1    2    0    0 -0.88824117179E+02  0.20273303503E+03 -0.21544924528E+03  0.33321732335E+03  0.12500000000E+03 0.  0.
         25    1    1    2    0    0  0.40670755090E+02 -0.17899810458E+03  0.23352752457E+03  0.32226469942E+03  0.12500000000E+03 0.  0.
         25    1    1    2    0    0  0.48153362089E+02 -0.23734930453E+02  0.24455824560E+03  0.27984965374E+03  0.12500000000E+03 0.  0.
</event>
<event>
 5    0  0.5660959E-005  0.3725675E+03  0.7546771E-02  0.1053716E+00
         21   -1    0    0  502  501  0.00000000000E+00  0.00000000000E+00  0.13964756945E+03  0.13964756945E+03  0.00000000000E+00 0.  1.
         21   -1    0    0  501  502 -0.00000000000E+00 -0.00000000000E+00 -0.99397753029E+03  0.99397753029E+03  0.00000000000E+00 0.  1.
         25    1    1    2    0    0  0.62255931432E+02  0.18368879797E+03 -0.52455891336E+02  0.23663050529E+03  0.12500000000E+03 0.  0.
         25    1    1    2    0    0  0.30085154513E+02  0.31043636627E+02 -0.20576087891E+03  0.24460450361E+03  0.12500000000E+03 0.  0.
         25    1    1    2    0    0 -0.92341085945E+02 -0.21473243460E+03 -0.59611319060E+03  0.65239009084E+03  0.12500000000E+03 0.  0.
</event>
<event>
 5    0  0.5660959E-005  0.2729298E+03  0.7546771E-02  0.1099614E+00
         21   -1    0    0  502  501  0.00000000000E+00  0.00000000000E+00  0.26978468466E+03  0.26978468466E+03  0.00000000000E+00 0.  1.
         21   -1    0    0  501  502 -0.00000000000E+00 -0.00000000000E+00 -0.27611151195E+03  0.27611151195E+03  0.00000000000E+00 0.  1.
         25    1    1    2    0    0  0.69013518487E+02  0.58923051950E+02 -0.10960164208E+03  0.18939987258E+03  0.12500000000E+03 0.  0.
         25    1    1    2    0    0  0.30683264800E+02 -0.21284585732E+02  0.13660175553E+03  0.18889027487E+03  0.12500000000E+03 0.  0.
         25    1    1    2    0    0 -0.99696783287E+02 -0.37638466218E+02 -0.33326940736E+02  0.16760604916E+03  0.12500000000E+03 0.  0.
</event>
<event>
 5    0  0.5660959E-005  0.5320618E+03  0.7546771E-02  0.1005733E+00
         21   -1    0    0  502  501  0.00000000000E+00  0.00000000000E+00  0.35590127042E+03  0.35590127042E+03  0.00000000000E+00 0. -1.
         21   -1    0    0  501  502 -0.00000000000E+00 -0.00000000000E+00 -0.79541646397E+03  0.79541646397E+03  0.00000000000E+00 0. -1.
         25    1    1    2    0    0 -0.71257083269E+02  0.36250183949E+03  0.75704186351E+02  0.39729243559E+03  0.12500000000E+03 0.  0.
         25    1    1    2    0    0  0.84528956907E+02 -0.38879002485E+03 -0.43492617446E+03  0.60256834069E+03  0.12500000000E+03 0.  0.
         25    1    1    2    0    0 -0.13271873638E+02  0.26288185361E+02 -0.80293205445E+02  0.15145695811E+03  0.12500000000E+03 0.  0.
</event>
<event>
 5    0  0.5660959E-005  0.3250695E+03  0.7546771E-02  0.1073340E+00
         21   -1    0    0  502  501  0.00000000000E+00  0.00000000000E+00  0.34066651716E+03  0.34066651716E+03  0.00000000000E+00 0. -1.
         21   -1    0    0  501  502 -0.00000000000E+00 -0.00000000000E+00 -0.31018664453E+03  0.31018664453E+03  0.00000000000E+00 0. -1.
         25    1    1    2    0    0  0.50303003892E+02  0.39490476053E+02 -0.86721369333E+02  0.16503177209E+03  0.12500000000E+03 0.  0.
         25    1    1    2    0    0 -0.71676481628E+02  0.15398978540E+03 -0.27923342197E+02  0.21273242599E+03  0.12500000000E+03 0.  0.
         25    1    1    2    0    0  0.21373477737E+02 -0.19348026145E+03  0.14512458416E+03  0.27308896362E+03  0.12500000000E+03 0.  0.
</event>
<event>
 5    0  0.5668013E-005  0.2966852E+03  0.7546771E-02  0.1086909E+00
         21   -1    0    0  502  501  0.00000000000E+00  0.00000000000E+00  0.18631748729E+03  0.18631748729E+03  0.00000000000E+00 0.  1.
         21   -1    0    0  501  502 -0.00000000000E+00 -0.00000000000E+00 -0.47243085049E+03  0.47243085049E+03  0.00000000000E+00 0.  1.
         25    1    1    2    0    0 -0.43046180134E+02  0.15068485027E+03 -0.16285458303E+03  0.25827410427E+03  0.12500000000E+03 0.  0.
         25    1    1    2    0    0  0.72219020124E+02 -0.10803683278E+03  0.43768669855E+02  0.18554848575E+03  0.12500000000E+03 0.  0.
         25    1    1    2    0    0 -0.29172839990E+02 -0.42648017488E+02 -0.16702745002E+03  0.21492574776E+03  0.12500000000E+03 0.  0.
</event>
<event>
 5    0  0.5660959E-005  0.5682793E+03  0.7546771E-02  0.9973493E-01
         21   -1    0    0  502  501  0.00000000000E+00  0.00000000000E+00  0.12836509977E+04  0.12836509977E+04  0.00000000000E+00 0.  1.
         21   -1    0    0  501  502 -0.00000000000E+00 -0.00000000000E+00 -0.25158038280E+03  0.25158038280E+03  0.00000000000E+00 0.  1.
         25    1    1    2    0    0  0.59860365366E+02 -0.27643597527E+03  0.66519711729E+03  0.73356139254E+03  0.12500000000E+03 0.  0.
         25    1    1    2    0    0  0.10453731485E+03  0.42711744864E+03  0.23601367127E+03  0.51447528430E+03  0.12500000000E+03 0.  0.
         25    1    1    2    0    0 -0.16439768021E+03 -0.15068147337E+03  0.13085982637E+03  0.28719470370E+03  0.12500000000E+03 0.  0.
</event>
<event>
 5    0  0.5660959E-005  0.2708891E+03  0.7546771E-02  0.1100772E+00
         21   -1    0    0  502  501  0.00000000000E+00  0.00000000000E+00  0.25029007601E+03  0.25029007601E+03  0.00000000000E+00 0. -1.
         21   -1    0    0  501  502 -0.00000000000E+00 -0.00000000000E+00 -0.29318342209E+03  0.29318342209E+03  0.00000000000E+00 0. -1.
         25    1    1    2    0    0  0.10272439149E+03 -0.42421198433E+02  0.27277421716E+02  0.16947246508E+03  0.12500000000E+03 0.  0.
         25    1    1    2    0    0 -0.55115516742E+02  0.12718201643E+03  0.26424745852E+02  0.18851061689E+03  0.12500000000E+03 0.  0.
         25    1    1    2    0    0 -0.47608874752E+02 -0.84760817994E+02 -0.96595513648E+02  0.18549041614E+03  0.12500000000E+03 0.  0.
</event>
<event>
 5    0  0.5660959E-005  0.2748255E+03  0.7546771E-02  0.1098549E+00
         21   -1    0    0  502  501  0.00000000000E+00  0.00000000000E+00  0.18886647719E+03  0.18886647719E+03  0.00000000000E+00 0. -1.
         21   -1    0    0  501  502 -0.00000000000E+00 -0.00000000000E+00 -0.39990709685E+03  0.39990709685E+03  0.00000000000E+00 0. -1.
         25    1    1    2    0    0  0.70880784738E+02  0.10125545890E+03 -0.55390146897E+02  0.18430903932E+03  0.12500000000E+03 0.  0.
         25    1    1    2    0    0 -0.28816677098E+02 -0.35066777209E+02  0.57774378546E+02  0.14499296038E+03  0.12500000000E+03 0.  0.
         25    1    1    2    0    0 -0.42064107639E+02 -0.66188681686E+02 -0.21342485130E+03  0.25947157434E+03  0.12500000000E+03 0.  0.
</event>
<event>
 5    0  0.5665358E-005  0.3029875E+03  0.7546771E-02  0.1083757E+00
         21   -1    0    0  502  501  0.00000000000E+00  0.00000000000E+00  0.64321383019E+03  0.64321383019E+03  0.00000000000E+00 0.  1.
         21   -1    0    0  501  502 -0.00000000000E+00 -0.00000000000E+00 -0.14272303934E+03  0.14272303934E+03  0.00000000000E+00 0.  1.
         25    1    1    2    0    0  0.67871663257E+02 -0.11258078595E+03  0.44657157108E+03  0.48200846894E+03  0.12500000000E+03 0.  0.
         25    1    1    2    0    0 -0.42115791996E+02  0.50861049138E+01  0.17757604552E+02  0.13319136953E+03  0.12500000000E+03 0.  0.
         25    1    1    2    0    0 -0.25755871261E+02  0.10749468104E+03  0.36161615219E+02  0.17073703105E+03  0.12500000000E+03 0.  0.
</event>
<event>
 5    0  0.5660959E-005  0.3079152E+03  0.7546771E-02  0.1081350E+00
         21   -1    0    0  502  501  0.00000000000E+00  0.00000000000E+00  0.57271275537E+03  0.57271275537E+03  0.00000000000E+00 0. -1.
         21   -1    0    0  501  502 -0.00000000000E+00 -0.00000000000E+00 -0.16554851776E+03  0.16554851776E+03  0.00000000000E+00 0. -1.
         25    1    1    2    0    0  0.97921404765E+02  0.14699854606E+02  0.26131381473E+03  0.30612839954E+03  0.12500000000E+03 0.  0.
         25    1    1    2    0    0 -0.72296359073E+02 -0.35295281857E+02 -0.82300339520E+02  0.16991429116E+03  0.12500000000E+03 0.  0.
         25    1    1    2    0    0 -0.25625045692E+02  0.20595427251E+02  0.22815076239E+03  0.26221858243E+03  0.12500000000E+03 0.  0.
</event>
<event>
 5    0  0.5660959E-005  0.4002117E+03  0.7546771E-02  0.1043706E+00
         21   -1    0    0  502  501  0.00000000000E+00  0.00000000000E+00  0.18972935473E+04  0.18972935473E+04  0.00000000000E+00 0. -1.
         21   -1    0    0  501  502 -0.00000000000E+00 -0.00000000000E+00 -0.84419934014E+02  0.84419934014E+02  0.00000000000E+00 0. -1.
         25    1    1    2    0    0 -0.55152204101E+02  0.11926386446E+03  0.16446881384E+03  0.24482774701E+03  0.12500000000E+03 0.  0.
         25    1    1    2    0    0 -0.59943781057E+02 -0.22822962131E+03  0.46358043238E+03  0.53498956459E+03  0.12500000000E+03 0.  0.
         25    1    1    2    0    0  0.11509598516E+03  0.10896575685E+03  0.11848243670E+04  0.12018961697E+04  0.12500000000E+03 0.  0.
</event>
<event>
 5    0  0.5692134E-005  0.4310600E+03  0.7546771E-02  0.1033526E+00
         21   -1    0    0  502  501  0.00000000000E+00  0.00000000000E+00  0.18820667120E+03  0.18820667120E+03  0.00000000000E+00 0. -1.
         21   -1    0    0  501  502 -0.00000000000E+00 -0.00000000000E+00 -0.98728019201E+03  0.98728019201E+03  0.00000000000E+00 0. -1.
         25    1    1    2    0    0  0.17259742075E+03  0.74146104127E+02 -0.44764529878E+02  0.23003560059E+03  0.12500000000E+03 0.  0.
         25    1    1    2    0    0 -0.14784271455E+03  0.34334690040E+02 -0.26205822745E+02  0.19836351563E+03  0.12500000000E+03 0.  0.
         25    1    1    2    0    0 -0.24754706194E+02 -0.10848079417E+03 -0.72810316818E+03  0.74708774699E+03  0.12500000000E+03 0.  0.
</event>
<event>
 5    0  0.5660959E-005  0.4594288E+03  0.7546771E-02  0.1024947E+00
         21   -1    0    0  502  501  0.00000000000E+00  0.00000000000E+00  0.12552016066E+04  0.12552016066E+04  0.00000000000E+00 0. -1.
         21   -1    0    0  501  502 -0.00000000000E+00 -0.00000000000E+00 -0.16816011894E+03  0.16816011894E+03  0.00000000000E+00 0. -1.
         25    1    1    2    0    0 -0.19353040020E+03  0.29066637848E+03  0.37946731579E+03  0.53062359836E+03  0.12500000000E+03 0.  0.
         25    1    1    2    0    0  0.18854921895E+03 -0.16397987967E+03  0.17142132656E+03  0.32779640038E+03  0.12500000000E+03 0.  0.
         25    1    1    2    0    0  0.49811812561E+01 -0.12668649881E+03  0.53615284531E+03  0.56494172680E+03  0.12500000000E+03 0.  0.
</event>
<event>
 5    0  0.5660959E-005  0.2698188E+03  0.7546771E-02  0.1101383E+00
         21   -1    0    0  502  501  0.00000000000E+00  0.00000000000E+00  0.92551251293E+03  0.92551251293E+03  0.00000000000E+00 0. -1.
         21   -1    0    0  501  502 -0.00000000000E+00 -0.00000000000E+00 -0.78661457777E+02  0.78661457777E+02  0.00000000000E+00 0. -1.
         25    1    1    2    0    0  0.34299434467E+02 -0.32915471593E+02  0.48023016256E+03  0.49850364944E+03  0.12500000000E+03 0.  0.
         25    1    1    2    0    0 -0.12174132997E+03  0.17595790516E+02  0.11085184154E+03  0.20746974247E+03  0.12500000000E+03 0.  0.
         25    1    1    2    0    0  0.87441895506E+02  0.15319681077E+02  0.25576905105E+03  0.29820057880E+03  0.12500000000E+03 0.  0.
</event>
<event>
 5    0  0.5660959E-005  0.3222387E+03  0.7546771E-02  0.1074624E+00
         21   -1    0    0  502  501  0.00000000000E+00  0.00000000000E+00  0.44010796362E+03  0.44010796362E+03  0.00000000000E+00 0. -1.
         21   -1    0    0  501  502 -0.00000000000E+00 -0.00000000000E+00 -0.23593701448E+03  0.23593701448E+03  0.00000000000E+00 0. -1.
         25    1    1    2    0    0  0.53555349652E+02  0.58555396534E+02 -0.12880001135E+03  0.19624309635E+03  0.12500000000E+03 0.  0.
         25    1    1    2    0    0 -0.67091814396E+02  0.35974716322E+02  0.47521306412E+02  0.15387906400E+03  0.12500000000E+03 0.  0.
         25    1    1    2    0    0  0.13536464744E+02 -0.94530112856E+02  0.28544965409E+03  0.32592281775E+03  0.12500000000E+03 0.  0.
</event>
<event>
 5    0  0.5660959E-005  0.3436713E+03  0.7546771E-02  0.1065243E+00
         21   -1    0    0  502  501  0.00000000000E+00  0.00000000000E+00  0.18159537856E+03  0.18159537856E+03  0.00000000000E+00 0. -1.
         21   -1    0    0  501  502 -0.00000000000E+00 -0.00000000000E+00 -0.65040171529E+03  0.65040171529E+03  0.00000000000E+00 0. -1.
         25    1    1    2    0    0  0.62412460928E+02 -0.96564251966E+02 -0.12052748215E+03  0.20825907901E+03  0.12500000000E+03 0.  0.
         25    1    1    2    0    0 -0.14544245587E+03  0.24124992687E+03 -0.22471065672E+03  0.38141173871E+03  0.12500000000E+03 0.  0.
         25    1    1    2    0    0  0.83029994938E+02 -0.14468567490E+03 -0.12356819787E+03  0.24232627614E+03  0.12500000000E+03 0.  0.
</event>
<event>
 5    0  0.5660959E-005  0.3356844E+03  0.7546771E-02  0.1068649E+00
         21   -1    0    0  502  501  0.00000000000E+00  0.00000000000E+00  0.89239658500E+02  0.89239658500E+02  0.00000000000E+00 0. -1.
         21   -1    0    0  501  502 -0.00000000000E+00 -0.00000000000E+00 -0.12627126622E+04  0.12627126622E+04  0.00000000000E+00 0. -1.
         25    1    1    2    0    0  0.18909297480E+03 -0.72994145893E+01 -0.15508701451E+03  0.27474791472E+03  0.12500000000E+03 0.  0.
         25    1    1    2    0    0 -0.88977586259E+02 -0.75208242652E+02 -0.50514362710E+03  0.53326201310E+03  0.12500000000E+03 0.  0.
         25    1    1    2    0    0 -0.10011538854E+03  0.82507657241E+02 -0.51324236207E+03  0.54394239286E+03  0.12500000000E+03 0.  0.
</event>
<event>
 5    0  0.5716652E-005  0.3557765E+03  0.7546771E-02  0.1060269E+00
         21   -1    0    0  502  501  0.00000000000E+00  0.00000000000E+00  0.48688830690E+03  0.48688830690E+03  0.00000000000E+00 0.  1.
         21   -1    0    0  501  502 -0.00000000000E+00 -0.00000000000E+00 -0.25997113781E+03  0.25997113781E+03  0.00000000000E+00 0.  1.
         25    1    1    2    0    0  0.18756167432E+02  0.11109763997E+03  0.27261909583E+03  0.32037579627E+03  0.12500000000E+03 0.  0.
         25    1    1    2    0    0 -0.86347714837E+02  0.90636733578E+02 -0.27773164666E+02  0.17907343188E+03  0.12500000000E+03 0.  0.
         25    1    1    2    0    0  0.67591547406E+02 -0.20173437354E+03 -0.17928762068E+02  0.24741021656E+03  0.12500000000E+03 0.  0.
</event>
<event>
 5    0  0.5660959E-005  0.3592141E+03  0.7546771E-02  0.1058895E+00
         21   -1    0    0  502  501  0.00000000000E+00  0.00000000000E+00  0.47413439300E+03  0.47413439300E+03  0.00000000000E+00 0. -1.
         21   -1    0    0  501  502 -0.00000000000E+00 -0.00000000000E+00 -0.27214815258E+03  0.27214815258E+03  0.00000000000E+00 0. -1.
         25    1    1    2    0    0  0.13268106463E+03  0.14105843815E+03  0.48460970482E+02  0.23553176759E+03  0.12500000000E+03 0.  0.
         25    1    1    2    0    0 -0.22245766744E+03 -0.14572525456E+03  0.19329740714E+03  0.35172738197E+03  0.12500000000E+03 0.  0.
         25    1    1    2    0    0  0.89776602810E+02  0.46668164064E+01 -0.39772137202E+02  0.15902339603E+03  0.12500000000E+03 0.  0.
</event>
<event>
 5    0  0.5660959E-005  0.3095694E+03  0.7546771E-02  0.1080552E+00
         21   -1    0    0  502  501  0.00000000000E+00  0.00000000000E+00  0.57762058734E+03  0.57762058734E+03  0.00000000000E+00 0.  1.
         21   -1    0    0  501  502 -0.00000000000E+00 -0.00000000000E+00 -0.16591036390E+03  0.16591036390E+03  0.00000000000E+00 0.  1.
         25    1    1    2    0    0  0.70552109588E+02 -0.16516205629E+03  0.79839496587E+02  0.23292799364E+03  0.12500000000E+03 0.  0.
         25    1    1    2    0    0 -0.63214906666E+00  0.10765715133E+03  0.31469034606E+03  0.35531039353E+03  0.12500000000E+03 0.  0.
         25    1    1    2    0    0 -0.69919960521E+02  0.57504904959E+02  0.17180380789E+02  0.15529256408E+03  0.12500000000E+03 0.  0.
</event>
<event>
 5    0  0.5660959E-005  0.3237375E+03  0.7546771E-02  0.1073942E+00
         21   -1    0    0  502  501  0.00000000000E+00  0.00000000000E+00  0.81867059942E+03  0.81867059942E+03  0.00000000000E+00 0. -1.
         21   -1    0    0  501  502 -0.00000000000E+00 -0.00000000000E+00 -0.12801967037E+03  0.12801967037E+03  0.00000000000E+00 0. -1.
         25    1    1    2    0    0 -0.21538605000E+03 -0.92829336442E+02  0.34720167637E+03  0.43724414268E+03  0.12500000000E+03 0.  0.
         25    1    1    2    0    0  0.60212143642E+02 -0.28970517594E+02  0.14788219366E+03  0.20483880573E+03  0.12500000000E+03 0.  0.
         25    1    1    2    0    0  0.15517390636E+03  0.12179985404E+03  0.19556705902E+03  0.30460732137E+03  0.12500000000E+03 0.  0.
</event>
<event>
 5    0  0.5762573E-005  0.2470133E+03  0.7546771E-02  0.1115207E+00
         21   -1    0    0  502  501  0.00000000000E+00  0.00000000000E+00  0.41310218073E+03  0.41310218073E+03  0.00000000000E+00 0. -1.
         21   -1    0    0  501  502 -0.00000000000E+00 -0.00000000000E+00 -0.14770086734E+03  0.14770086734E+03  0.00000000000E+00 0. -1.
         25    1    1    2    0    0 -0.42611107004E+02 -0.65133275339E+02  0.23298763998E+03  0.27561982944E+03  0.12500000000E+03 0.  0.
         25    1    1    2    0    0  0.56890254921E+02  0.15271685516E+02 -0.20845794221E+02  0.13974717393E+03  0.12500000000E+03 0.  0.
         25    1    1    2    0    0 -0.14279147917E+02  0.49861589822E+02  0.53259467632E+02  0.14543604470E+03  0.12500000000E+03 0.  0.
</event>
<event>
 5    0  0.5660959E-005  0.3084420E+03  0.7546771E-02  0.1081095E+00
         21   -1    0    0  502  501  0.00000000000E+00  0.00000000000E+00  0.41434651768E+03  0.41434651768E+03  0.00000000000E+00 0. -1.
         21   -1    0    0  501  502 -0.00000000000E+00 -0.00000000000E+00 -0.22960598787E+03  0.22960598787E+03  0.00000000000E+00 0. -1.
         25    1    1    2    0    0  0.22093948737E+02 -0.16567646806E+03 -0.44513383911E+02  0.21340870644E+03  0.12500000000E+03 0.  0.
         25    1    1    2    0    0 -0.35178482071E+02  0.19085010242E+03  0.18191018193E+03  0.29390066602E+03  0.12500000000E+03 0.  0.
         25    1    1    2    0    0  0.13084533334E+02 -0.25173634363E+02  0.47343731786E+02  0.13664313308E+03  0.12500000000E+03 0.  0.
</event>
<event>
 5    0  0.5660959E-005  0.3218729E+03  0.7546771E-02  0.1074791E+00
         21   -1    0    0  502  501  0.00000000000E+00  0.00000000000E+00  0.12745110287E+04  0.12745110287E+04  0.00000000000E+00 0. -1.
         21   -1    0    0  501  502 -0.00000000000E+00 -0.00000000000E+00 -0.81287787910E+02  0.81287787910E+02  0.00000000000E+00 0. -1.
         25    1    1    2    0    0 -0.16240622004E+03  0.60995617942E+02  0.36774479640E+03  0.42539097428E+03  0.12500000000E+03 0.  0.
         25    1    1    2    0    0  0.84974475358E+02  0.88252742724E+02  0.58906222000E+03  0.61451485506E+03  0.12500000000E+03 0.  0.
         25    1    1    2    0    0  0.77431744683E+02 -0.14924836067E+03  0.23641622434E+03  0.31589298723E+03  0.12500000000E+03 0.  0.
</event>
<event>
 5    0  0.5660959E-005  0.2893551E+03  0.7546771E-02  0.1090686E+00
         21   -1    0    0  502  501  0.00000000000E+00  0.00000000000E+00  0.11710584230E+03  0.11710584230E+03  0.00000000000E+00 0. -1.
         21   -1    0    0  501  502 -0.00000000000E+00 -0.00000000000E+00 -0.71496322211E+03  0.71496322211E+03  0.00000000000E+00 0. -1.
         25    1    1    2    0    0  0.72101700660E+02  0.23292071955E+02 -0.30881255299E+03  0.34165972654E+03  0.12500000000E+03 0.  0.
         25    1    1    2    0    0 -0.43216508897E+02 -0.16073138643E+03 -0.15357872688E+03  0.25867676853E+03  0.12500000000E+03 0.  0.
         25    1    1    2    0    0 -0.28885191763E+02  0.13743931447E+03 -0.13546609994E+03  0.23173256935E+03  0.12500000000E+03 0.  0.
</event>
<event>
 5    0  0.5902088E-005  0.3756284E+03  0.7546771E-02  0.1052561E+00
         21   -1    0    0  502  501  0.00000000000E+00  0.00000000000E+00  0.24384699134E+03  0.24384699134E+03  0.00000000000E+00 0.  1.
         21   -1    0    0  501  502 -0.00000000000E+00 -0.00000000000E+00 -0.57862792015E+03  0.57862792015E+03  0.00000000000E+00 0.  1.
         25    1    1    2    0    0 -0.29099984996E+02  0.60571586292E+00 -0.22258738681E+03  0.25693835990E+03  0.12500000000E+03 0.  0.
         25    1    1    2    0    0 -0.13249338548E+03  0.19066547655E+03  0.88998443995E+00  0.26369226992E+03  0.12500000000E+03 0.  0.
         25    1    1    2    0    0  0.16159337048E+03 -0.19127119241E+03 -0.11308352643E+03  0.30184428167E+03  0.12500000000E+03 0.  0.
</event>
<event>
 5    0  0.5660959E-005  0.3960717E+03  0.7546771E-02  0.1045148E+00
         21   -1    0    0  502  501  0.00000000000E+00  0.00000000000E+00  0.69201676032E+03  0.69201676032E+03  0.00000000000E+00 0.  1.
         21   -1    0    0  501  502 -0.00000000000E+00 -0.00000000000E+00 -0.22668926405E+03  0.22668926405E+03  0.00000000000E+00 0.  1.
         25    1    1    2    0    0  0.52860139436E+02  0.43728517288E+02  0.13899852286E+03  0.19912801642E+03  0.12500000000E+03 0.  0.
         25    1    1    2    0    0  0.24381266663E+03 -0.25766364931E+02  0.21784201958E+02  0.27605809791E+03  0.12500000000E+03 0.  0.
         25    1    1    2    0    0 -0.29667280606E+03 -0.17962152357E+02  0.30454477146E+03  0.44351991004E+03  0.12500000000E+03 0.  0.
</event>
<event>
 5    0  0.5660959E-005  0.4538699E+03  0.7546771E-02  0.1026574E+00
         21   -1    0    0  502  501  0.00000000000E+00  0.00000000000E+00  0.19617811339E+03  0.19617811339E+03  0.00000000000E+00 0. -1.
         21   -1    0    0  501  502 -0.00000000000E+00 -0.00000000000E+00 -0.10500554349E+04  0.10500554349E+04  0.00000000000E+00 0. -1.
         25    1    1    2    0    0 -0.35870462512E+02  0.85221681222E+02 -0.75187316695E+03  0.76778101319E+03  0.12500000000E+03 0.  0.
         25    1    1    2    0    0  0.18401055392E+02 -0.14397237110E+03 -0.22302022592E+03  0.29398922369E+03  0.12500000000E+03 0.  0.
         25    1    1    2    0    0  0.17469407120E+02  0.58750689881E+02  0.12101607133E+03  0.18446331144E+03  0.12500000000E+03 0.  0.
</event>
<event>
 5    0  0.5660959E-005  0.5392222E+03  0.7546771E-02  0.1004020E+00
         21   -1    0    0  502  501  0.00000000000E+00  0.00000000000E+00  0.83807765261E+03  0.83807765261E+03  0.00000000000E+00 0.  1.
         21   -1    0    0  501  502 -0.00000000000E+00 -0.00000000000E+00 -0.34693757231E+03  0.34693757231E+03  0.00000000000E+00 0.  1.
         25    1    1    2    0    0  0.74988989036E+02 -0.15173658500E+03  0.44430881126E+03  0.49161230606E+03  0.12500000000E+03 0.  0.
         25    1    1    2    0    0  0.23004457403E+03 -0.27252005475E+02  0.15182869963E+03  0.30387519128E+03  0.12500000000E+03 0.  0.
         25    1    1    2    0    0 -0.30503356307E+03  0.17898859048E+03 -0.10499743059E+03  0.38952772758E+03  0.12500000000E+03 0.  0.
</event>
<event>
 5    0  0.5660959E-005  0.3074133E+03  0.7546771E-02  0.1081592E+00
         21   -1    0    0  502  501  0.00000000000E+00  0.00000000000E+00  0.16201861936E+04  0.16201861936E+04  0.00000000000E+00 0.  1.
         21   -1    0    0  501  502 -0.00000000000E+00 -0.00000000000E+00 -0.58328443439E+02  0.58328443439E+02  0.00000000000E+00 0.  1.
         25    1    1    2    0    0  0.11966995998E+03  0.15917078866E+03  0.53060154658E+03  0.58036130171E+03  0.12500000000E+03 0.  0.
         25    1    1    2    0    0 -0.13534124401E+03 -0.46586379515E+02  0.37375737775E+03  0.41929359703E+03  0.12500000000E+03 0.  0.
         25    1    1    2    0    0  0.15671284020E+02 -0.11258440914E+03  0.65749882583E+03  0.67885973831E+03  0.12500000000E+03 0.  0.
</event>
<event>
 5    0  0.5660959E-005  0.5532613E+03  0.7546771E-02  0.1000742E+00
         21   -1    0    0  502  501  0.00000000000E+00  0.00000000000E+00  0.71970057913E+03  0.71970057913E+03  0.00000000000E+00 0.  1.
         21   -1    0    0  501  502 -0.00000000000E+00 -0.00000000000E+00 -0.42531314044E+03  0.42531314044E+03  0.00000000000E+00 0.  1.
         25    1    1    2    0    0 -0.24834924894E+03 -0.32083797688E+03  0.96208450686E+02  0.43531071988E+03  0.12500000000E+03 0.  0.
         25    1    1    2    0    0  0.14676468498E+01 -0.10461253420E+03  0.10443405478E+03  0.19359082648E+03  0.12500000000E+03 0.  0.
         25    1    1    2    0    0  0.24688160209E+03  0.42545051108E+03  0.93744933221E+02  0.51611217321E+03  0.12500000000E+03 0.  0.
</event>
<event>
 5    0  0.5660959E-005  0.3267806E+03  0.7546771E-02  0.1072570E+00
         21   -1    0    0  502  501  0.00000000000E+00  0.00000000000E+00  0.25723733956E+03  0.25723733956E+03  0.00000000000E+00 0. -1.
         21   -1    0    0  501  502 -0.00000000000E+00 -0.00000000000E+00 -0.41512455670E+03  0.41512455670E+03  0.00000000000E+00 0. -1.
         25    1    1    2    0    0  0.16170149463E+03  0.70813941813E+02  0.11759203648E+03  0.24620088294E+03  0.12500000000E+03 0.  0.
         25    1    1    2    0    0 -0.51656451422E+02 -0.33081782470E+02 -0.61020878163E+02  0.15202414570E+03  0.12500000000E+03 0.  0.
         25    1    1    2    0    0 -0.11004504320E+03 -0.37732159343E+02 -0.21445837545E+03  0.27413686761E+03  0.12500000000E+03 0.  0.
</event>
<event>
 5    0  0.5660959E-005  0.3446422E+03  0.7546771E-02  0.1064836E+00
         21   -1    0    0  502  501  0.00000000000E+00  0.00000000000E+00  0.29730796158E+03  0.29730796158E+03  0.00000000000E+00 0. -1.
         21   -1    0    0  501  502 -0.00000000000E+00 -0.00000000000E+00 -0.39951253949E+03  0.39951253949E+03  0.00000000000E+00 0. -1.
         25    1    1    2    0    0  0.11847939201E+03 -0.24699936841E+03 -0.75592439634E+02  0.31045977397E+03  0.12500000000E+03 0.  0.
         25    1    1    2    0    0 -0.27830135663E+02  0.11219235982E+03 -0.56133399442E+02  0.17926963097E+03  0.12500000000E+03 0.  0.
         25    1    1    2    0    0 -0.90649256346E+02  0.13480700859E+03  0.29521261166E+02  0.20709109614E+03  0.12500000000E+03 0.  0.
</event>
<event>
 5    0  0.5660959E-005  0.2928799E+03  0.7546771E-02  0.1088855E+00
         21   -1    0    0  502  501  0.00000000000E+00  0.00000000000E+00  0.64154783108E+02  0.64154783108E+02  0.00000000000E+00 0. -1.
         21   -1    0    0  501  502 -0.00000000000E+00 -0.00000000000E+00 -0.13370573798E+04  0.13370573798E+04  0.00000000000E+00 0. -1.
         25    1    1    2    0    0  0.94422229649E+02 -0.47160000133E+01 -0.45646933278E+03  0.48262516498E+03  0.12500000000E+03 0.  0.
         25    1    1    2    0    0 -0.15291794987E+03  0.12842705878E+03 -0.44878528188E+03  0.50686353000E+03  0.12500000000E+03 0.  0.
         25    1    1    2    0    0  0.58495720222E+02 -0.12371105876E+03 -0.36764798209E+03  0.41172346797E+03  0.12500000000E+03 0.  0.
</event>
<event>
 5    0  0.5660959E-005  0.2756230E+03  0.7546771E-02  0.1098104E+00
         21   -1    0    0  502  501  0.00000000000E+00  0.00000000000E+00  0.30224558729E+03  0.30224558729E+03  0.00000000000E+00 0. -1.
         21   -1    0    0  501  502 -0.00000000000E+00 -0.00000000000E+00 -0.25134547828E+03  0.25134547828E+03  0.00000000000E+00 0. -1.
         25    1    1    2    0    0 -0.14177150911E+03 -0.11159125525E+03  0.36264259961E+02  0.22246767315E+03  0.12500000000E+03 0.  0.
         25    1    1    2    0    0  0.39493028372E+02  0.25099850472E+02  0.53568669788E+02  0.14382038856E+03  0.12500000000E+03 0.  0.
         25    1    1    2    0    0  0.10227848074E+03  0.86491404777E+02 -0.38932820742E+02  0.18730300386E+03  0.12500000000E+03 0.  0.
</event>
<event>
 5    0  0.5660959E-005  0.2926589E+03  0.7546771E-02  0.1088969E+00
         21   -1    0    0  502  501  0.00000000000E+00  0.00000000000E+00  0.62314083792E+02  0.62314083792E+02  0.00000000000E+00 0. -1.
         21   -1    0    0  501  502 -0.00000000000E+00 -0.00000000000E+00 -0.13744765496E+04  0.13744765496E+04  0.00000000000E+00 0. -1.
         25    1    1    2    0    0 -0.56110263563E+02  0.16935366203E+03 -0.37784774729E+03  0.43614555444E+03  0.12500000000E+03 0.  0.
         25    1    1    2    0    0  0.88909678799E+02 -0.45111893474E+02 -0.60417107718E+03  0.62497016283E+03  0.12500000000E+03 0.  0.
         25    1    1    2    0    0 -0.32799415235E+02 -0.12424176856E+03 -0.33014364130E+03  0.37567491610E+03  0.12500000000E+03 0.  0.
</event>
<event>
 5    0  0.5660959E-005  0.2994752E+03  0.7546771E-02  0.1085503E+00
         21   -1    0    0  502  501  0.00000000000E+00  0.00000000000E+00  0.10442249100E+04  0.10442249100E+04  0.00000000000E+00 0. -1.
         21   -1    0    0  501  502 -0.00000000000E+00 -0.00000000000E+00 -0.85887056537E+02  0.85887056537E+02  0.00000000000E+00 0. -1.
         25    1    1    2    0    0 -0.94305844647E+02  0.75173895226E+02  0.20834666256E+03  0.27125272101E+03  0.12500000000E+03 0.  0.
         25    1    1    2    0    0  0.10614930645E+03  0.10098165329E+03  0.26290936569E+03  0.32590075809E+03  0.12500000000E+03 0.  0.
         25    1    1    2    0    0 -0.11843461802E+02 -0.17615554852E+03  0.48708182519E+03  0.53295848740E+03  0.12500000000E+03 0.  0.
</event>
<event>
 5    0  0.5660959E-005  0.3680477E+03  0.7546771E-02  0.1055442E+00
         21   -1    0    0  502  501  0.00000000000E+00  0.00000000000E+00  0.33206089118E+03  0.33206089118E+03  0.00000000000E+00 0. -1.
         21   -1    0    0  501  502 -0.00000000000E+00 -0.00000000000E+00 -0.40793445096E+03  0.40793445096E+03  0.00000000000E+00 0. -1.
         25    1    1    2    0    0 -0.82592460529E+02 -0.78895329512E+02 -0.27698975324E+03  0.32464489978E+03  0.12500000000E+03 0.  0.
         25    1    1    2    0    0  0.16937706622E+02 -0.83899746253E+01  0.21432362235E+03  0.24883105248E+03  0.12500000000E+03 0.  0.
         25    1    1    2    0    0  0.65654753907E+02  0.87285304137E+02 -0.13207428886E+02  0.16651938988E+03  0.12500000000E+03 0.  0.
</event>
<event>
 5    0  0.5660959E-005  0.2763706E+03  0.7546771E-02  0.1097688E+00
         21   -1    0    0  502  501  0.00000000000E+00  0.00000000000E+00  0.11092204636E+03  0.11092204636E+03  0.00000000000E+00 0. -1.
         21   -1    0    0  501  502 -0.00000000000E+00 -0.00000000000E+00 -0.68859809147E+03  0.68859809147E+03  0.00000000000E+00 0. -1.
         25    1    1    2    0    0  0.37923152028E+02  0.54607430132E+01 -0.22954925273E+02  0.13274002323E+03  0.12500000000E+03 0.  0.
         25    1    1    2    0    0 -0.35337167960E+02  0.13127465258E+03 -0.27983831172E+03  0.33528529726E+03  0.12500000000E+03 0.  0.
         25    1    1    2    0    0 -0.25859840682E+01 -0.13673539560E+03 -0.27488280812E+03  0.33149481734E+03  0.12500000000E+03 0.  0.
</event>
<event>
 5    0  0.5660959E-005  0.2525992E+03  0.7546771E-02  0.1111673E+00
         21   -1    0    0  502  501  0.00000000000E+00  0.00000000000E+00  0.42699212509E+02  0.42699212509E+02  0.00000000000E+00 0.  1.
         21   -1    0    0  501  502 -0.00000000000E+00 -0.00000000000E+00 -0.14943216107E+04  0.14943216107E+04  0.00000000000E+00 0.  1.
         25    1    1    2    0    0 -0.13578371438E+03  0.25323090132E+02 -0.63560425633E+03  0.66234148794E+03  0.12500000000E+03 0.  0.
         25    1    1    2    0    0  0.13371044082E+03  0.14121112541E+02 -0.45877096982E+03  0.49413934326E+03  0.12500000000E+03 0.  0.
         25    1    1    2    0    0  0.20732735531E+01 -0.39444202673E+02 -0.35724717202E+03  0.38053999199E+03  0.12500000000E+03 0.  0.
</event>
<event>
 5    0  0.5660959E-005  0.4404122E+03  0.7546771E-02  0.1030620E+00
         21   -1    0    0  502  501  0.00000000000E+00  0.00000000000E+00  0.86182479162E+02  0.86182479162E+02  0.00000000000E+00 0.  1.
         21   -1    0    0  501  502 -0.00000000000E+00 -0.00000000000E+00 -0.22506072806E+04  0.22506072806E+04  0.00000000000E+00 0.  1.
         25    1    1    2    0    0  0.11471036809E+03 -0.11259178983E+03 -0.19324887485E+03  0.28072318628E+03  0.12500000000E+03 0.  0.
         25    1    1    2    0    0  0.82844530322E+01  0.49845001217E+02 -0.82152661393E+02  0.15788355229E+03  0.12500000000E+03 0.  0.
         25    1    1    2    0    0 -0.12299482113E+03  0.62746788612E+02 -0.18890232652E+04  0.18981830212E+04  0.12500000000E+03 0.  0.
</event>
<event>
 5    0  0.5660959E-005  0.2910563E+03  0.7546771E-02  0.1089799E+00
         21   -1    0    0  502  501  0.00000000000E+00  0.00000000000E+00  0.26971885454E+04  0.26971885454E+04  0.00000000000E+00 0.  1.
         21   -1    0    0  501  502 -0.00000000000E+00 -0.00000000000E+00 -0.31408168366E+02  0.31408168366E+02  0.00000000000E+00 0.  1.
         25    1    1    2    0    0 -0.18103566694E+03  0.10171685300E+03  0.11515329918E+04  0.11767639789E+04  0.12500000000E+03 0.  0.
         25    1    1    2    0    0  0.90547618563E+02  0.49710131720E+00  0.67967543099E+03  0.69698121197E+03  0.12500000000E+03 0.  0.
         25    1    1    2    0    0  0.90488048379E+02 -0.10221395432E+03  0.83457195427E+03  0.85485152291E+03  0.12500000000E+03 0.  0.
</event>
<event>
 5    0  0.5660959E-005  0.2467752E+03  0.7546771E-02  0.1115360E+00
         21   -1    0    0  502  501  0.00000000000E+00  0.00000000000E+00  0.47039338353E+03  0.47039338353E+03  0.00000000000E+00 0.  1.
         21   -1    0    0  501  502 -0.00000000000E+00 -0.00000000000E+00 -0.12946187637E+03  0.12946187637E+03  0.00000000000E+00 0.  1.
         25    1    1    2    0    0  0.68635520631E+02  0.43360934146E+02  0.25418117896E+03  0.29465925582E+03  0.12500000000E+03 0.  0.
         25    1    1    2    0    0 -0.96414022640E+02 -0.91552143210E+01  0.64618078440E+02  0.17082147925E+03  0.12500000000E+03 0.  0.
         25    1    1    2    0    0  0.27778502009E+02 -0.34205719825E+02  0.22132249758E+02  0.13437452483E+03  0.12500000000E+03 0.  0.
</event>
<event>
 5    0  0.5660959E-005  0.2811315E+03  0.7546771E-02  0.1095073E+00
         21   -1    0    0  502  501  0.00000000000E+00  0.00000000000E+00  0.24986386524E+03  0.24986386524E+03  0.00000000000E+00 0.  1.
         21   -1    0    0  501  502 -0.00000000000E+00 -0.00000000000E+00 -0.31631203436E+03  0.31631203436E+03  0.00000000000E+00 0.  1.
         25    1    1    2    0    0 -0.19138438917E+02  0.78174748896E+02 -0.15069429177E+03  0.21168689327E+03  0.12500000000E+03 0.  0.
         25    1    1    2    0    0 -0.91963689031E+02 -0.44128315841E+02 -0.59610782187E+01  0.16144708982E+03  0.12500000000E+03 0.  0.
         25    1    1    2    0    0  0.11110212795E+03 -0.34046433055E+02  0.90207200875E+02  0.19304191651E+03  0.12500000000E+03 0.  0.
</event>
<event>
 5    0  0.5660959E-005  0.4425715E+03  0.7546771E-02  0.1029961E+00
         21   -1    0    0  502  501  0.00000000000E+00  0.00000000000E+00  0.12236333373E+03  0.12236333373E+03  0.00000000000E+00 0. -1.
         21   -1    0    0  501  502 -0.00000000000E+00 -0.00000000000E+00 -0.16007209838E+04  0.16007209838E+04  0.00000000000E+00 0. -1.
         25    1    1    2    0    0  0.15990678223E+02 -0.26391819848E+03 -0.64862194306E+03  0.71150821661E+03  0.12500000000E+03 0.  0.
         25    1    1    2    0    0  0.21010338788E+03  0.17730768647E+03 -0.37544250518E+03  0.48183350234E+03  0.12500000000E+03 0.  0.
         25    1    1    2    0    0 -0.22609406610E+03  0.86610512012E+02 -0.45429320184E+03  0.52974259858E+03  0.12500000000E+03 0.  0.
</event>
<event>
 5    0  0.5660959E-005  0.3586241E+03  0.7546771E-02  0.1059130E+00
         21   -1    0    0  502  501  0.00000000000E+00  0.00000000000E+00  0.22972991961E+03  0.22972991961E+03  0.00000000000E+00 0.  1.
         21   -1    0    0  501  502 -0.00000000000E+00 -0.00000000000E+00 -0.55983677532E+03  0.55983677532E+03  0.00000000000E+00 0.  1.
         25    1    1    2    0    0  0.74867061323E+02 -0.58004757153E+02 -0.15470981358E+03  0.22029470067E+03  0.12500000000E+03 0.  0.
         25    1    1    2    0    0 -0.18465959894E+03  0.57830560498E+02  0.97105586629E+02  0.24999607230E+03  0.12500000000E+03 0.  0.
         25    1    1    2    0    0  0.10979253762E+03  0.17419665480E+00 -0.27250262876E+03  0.31927592196E+03  0.12500000000E+03 0.  0.
</event>
<event>
 5    0  0.5660959E-005  0.2827986E+03  0.7546771E-02  0.1094170E+00
         21   -1    0    0  502  501  0.00000000000E+00  0.00000000000E+00  0.40218288716E+03  0.40218288716E+03  0.00000000000E+00 0.  1.
         21   -1    0    0  501  502 -0.00000000000E+00 -0.00000000000E+00 -0.19885249865E+03  0.19885249865E+03  0.00000000000E+00 0.  1.
         25    1    1    2    0    0  0.54414973287E+02  0.34198373083E+02  0.31383716396E+02  0.14401547033E+03  0.12500000000E+03 0.  0.
         25    1    1    2    0    0  0.19285196049E+02 -0.13751759429E+03  0.20333758696E+03  0.27614159737E+03  0.12500000000E+03 0.  0.
         25    1    1    2    0    0 -0.73700169336E+02  0.10331922121E+03 -0.31390914844E+02  0.18087831812E+03  0.12500000000E+03 0.  0.
</event>
<event>
 5    0  0.5660959E-005  0.3062183E+03  0.7546771E-02  0.1082173E+00
         21   -1    0    0  502  501  0.00000000000E+00  0.00000000000E+00  0.44938613203E+03  0.44938613203E+03  0.00000000000E+00 0.  1.
         21   -1    0    0  501  502 -0.00000000000E+00 -0.00000000000E+00 -0.20866160254E+03  0.20866160254E+03  0.00000000000E+00 0.  1.
         25    1    1    2    0    0 -0.16963447485E+02  0.12824238494E+03  0.16407207716E+03  0.24347179374E+03  0.12500000000E+03 0.  0.
         25    1    1    2    0    0  0.96998005285E+02 -0.48849824431E+02 -0.80653740481E+02  0.18418725317E+03  0.12500000000E+03 0.  0.
         25    1    1    2    0    0 -0.80034557800E+02 -0.79392560507E+02  0.15730619281E+03  0.23038868766E+03  0.12500000000E+03 0.  0.
</event>
<event>
 5    0  0.5660959E-005  0.2844965E+03  0.7546771E-02  0.1093258E+00
         21   -1    0    0  502  501  0.00000000000E+00  0.00000000000E+00  0.10033428393E+03  0.10033428393E+03  0.00000000000E+00 0.  1.
         21   -1    0    0  501  502 -0.00000000000E+00 -0.00000000000E+00 -0.80668602313E+03  0.80668602313E+03  0.00000000000E+00 0.  1.
         25    1    1    2    0    0 -0.25812318329E+02  0.13462248146E+03 -0.23848078645E+03  0.30213833553E+03  0.12500000000E+03 0.  0.
         25    1    1    2    0    0  0.12829441562E+03 -0.12472003858E+03 -0.22962580815E+03  0.31680839141E+03  0.12500000000E+03 0.  0.
         25    1    1    2    0    0 -0.10248209729E+03 -0.99024428873E+01 -0.23824514459E+03  0.28807358012E+03  0.12500000000E+03 0.  0.
</event>
<event>
 5    0  0.5660959E-005  0.3424246E+03  0.7546771E-02  0.1065768E+00
         21   -1    0    0  502  501  0.00000000000E+00  0.00000000000E+00  0.10825939641E+03  0.10825939641E+03  0.00000000000E+00 0. -1.
         21   -1    0    0  501  502 -0.00000000000E+00 -0.00000000000E+00 -0.10830892750E+04  0.10830892750E+04  0.00000000000E+00 0. -1.
         25    1    1    2    0    0 -0.28470101040E+02 -0.11616294072E+03 -0.69264676587E+03  0.71392500847E+03  0.12500000000E+03 0.  0.
         25    1    1    2    0    0 -0.83821359216E+02 -0.24187122495E+02 -0.55358269901E+02  0.16217452082E+03  0.12500000000E+03 0.  0.
         25    1    1    2    0    0  0.11229146026E+03  0.14035006322E+03 -0.22682484283E+03  0.31524914214E+03  0.12500000000E+03 0.  0.
</event>
<event>
 5    0  0.5660959E-005  0.3785508E+03  0.7546771E-02  0.1051471E+00
         21   -1    0    0  502  501  0.00000000000E+00  0.00000000000E+00  0.30242092946E+03  0.30242092946E+03  0.00000000000E+00 0.  1.
         21   -1    0    0  501  502 -0.00000000000E+00 -0.00000000000E+00 -0.47384509763E+03  0.47384509763E+03  0.00000000000E+00 0.  1.
         25    1    1    2    0    0  0.14288239263E+03  0.92949469304E+02  0.48770000070E+02  0.21692970031E+03  0.12500000000E+03 0.  0.
         25    1    1    2    0    0 -0.18234899770E+03 -0.49187322807E+02 -0.31772925104E+03  0.39018896275E+03  0.12500000000E+03 0.  0.
         25    1    1    2    0    0  0.39466605065E+02 -0.43762146497E+02  0.97535082800E+02  0.16914736403E+03  0.12500000000E+03 0.  0.
</event>
<event>
 5    0  0.5660959E-005  0.2951864E+03  0.7546771E-02  0.1087672E+00
         21   -1    0    0  502  501  0.00000000000E+00  0.00000000000E+00  0.13716664894E+04  0.13716664894E+04  0.00000000000E+00 0. -1.
         21   -1    0    0  501  502 -0.00000000000E+00 -0.00000000000E+00 -0.63524921627E+02  0.63524921627E+02  0.00000000000E+00 0. -1.
         25    1    1    2    0    0  0.13370762346E+02  0.45529569738E+02  0.10789143295E+04  0.10871673512E+04  0.12500000000E+03 0.  0.
         25    1    1    2    0    0  0.17504513379E+02 -0.38447271993E+02  0.10093577260E+03  0.16612534696E+03  0.12500000000E+03 0.  0.
         25    1    1    2    0    0 -0.30875275724E+02 -0.70822977452E+01  0.12829146563E+03  0.18189871288E+03  0.12500000000E+03 0.  0.
</event>
<event>
 5    0  0.5660959E-005  0.2561984E+03  0.7546771E-02  0.1109449E+00
         21   -1    0    0  502  501  0.00000000000E+00  0.00000000000E+00  0.12901986233E+03  0.12901986233E+03  0.00000000000E+00 0. -1.
         21   -1    0    0  501  502 -0.00000000000E+00 -0.00000000000E+00 -0.50874049599E+03  0.50874049599E+03  0.00000000000E+00 0. -1.
         25    1    1    2    0    0  0.20308591573E+02  0.14114939462E+03 -0.14910887751E+03  0.24123442508E+03  0.12500000000E+03 0.  0.
         25    1    1    2    0    0  0.78409846857E+01 -0.86179149133E+02 -0.20426829145E+03  0.25463476133E+03  0.12500000000E+03 0.  0.
         25    1    1    2    0    0 -0.28149576258E+02 -0.54970245482E+02 -0.26343464702E+02  0.14189117190E+03  0.12500000000E+03 0.  0.
</event>
<event>
 5    0  0.5660959E-005  0.2585162E+03  0.7546771E-02  0.1108038E+00
         21   -1    0    0  502  501  0.00000000000E+00  0.00000000000E+00  0.16595828915E+03  0.16595828915E+03  0.00000000000E+00 0.  1.
         21   -1    0    0  501  502 -0.00000000000E+00 -0.00000000000E+00 -0.40269538856E+03  0.40269538856E+03  0.00000000000E+00 0.  1.
         25    1    1    2    0    0  0.60187603982E+02  0.56564905754E+02 -0.30182338146E+02  0.15283360158E+03  0.12500000000E+03 0.  0.
         25    1    1    2    0    0  0.25026720309E+02 -0.13891619834E+03 -0.11284531292E+03  0.21973418382E+03  0.12500000000E+03 0.  0.
         25    1    1    2    0    0 -0.85214324291E+02  0.82351292586E+02 -0.93709448345E+02  0.19608589231E+03  0.12500000000E+03 0.  0.
</event>
<event>
 5    0  0.5660959E-005  0.2496506E+03  0.7546771E-02  0.1113526E+00
         21   -1    0    0  502  501  0.00000000000E+00  0.00000000000E+00  0.51228900576E+03  0.51228900576E+03  0.00000000000E+00 0. -1.
         21   -1    0    0  501  502 -0.00000000000E+00 -0.00000000000E+00 -0.12166066663E+03  0.12166066663E+03  0.00000000000E+00 0. -1.
         25    1    1    2    0    0  0.75598037195E+01  0.84295942337E+02  0.91737721392E+02  0.17664587754E+03  0.12500000000E+03 0.  0.
         25    1    1    2    0    0  0.46204702811E+02  0.57762072537E+02  0.16239671665E+03  0.21787387444E+03  0.12500000000E+03 0.  0.
         25    1    1    2    0    0 -0.53764506531E+02 -0.14205801487E+03  0.13649390109E+03  0.23942992041E+03  0.12500000000E+03 0.  0.
</event>
<event>
 5    0  0.5660959E-005  0.3994324E+03  0.7546771E-02  0.1043976E+00
         21   -1    0    0  502  501  0.00000000000E+00  0.00000000000E+00  0.95382710558E+03  0.95382710558E+03  0.00000000000E+00 0. -1.
         21   -1    0    0  501  502 -0.00000000000E+00 -0.00000000000E+00 -0.16726959727E+03  0.16726959727E+03  0.00000000000E+00 0. -1.
         25    1    1    2    0    0  0.96342890131E+02 -0.87752987661E+02  0.63721625517E+03  0.66230815726E+03  0.12500000000E+03 0.  0.
         25    1    1    2    0    0 -0.18431771848E+03  0.86158969786E+02 -0.86543930791E+01  0.23894829554E+03  0.12500000000E+03 0.  0.
         25    1    1    2    0    0  0.87974828348E+02  0.15940178743E+01  0.15799564622E+03  0.21984025005E+03  0.12500000000E+03 0.  0.
</event>
<event>
 5    0  0.5660959E-005  0.2945216E+03  0.7546771E-02  0.1088012E+00
         21   -1    0    0  502  501  0.00000000000E+00  0.00000000000E+00  0.68842827672E+03  0.68842827672E+03  0.00000000000E+00 0. -1.
         21   -1    0    0  501  502 -0.00000000000E+00 -0.00000000000E+00 -0.12600145044E+03  0.12600145044E+03  0.00000000000E+00 0. -1.
         25    1    1    2    0    0 -0.10327620054E+03  0.51789646297E+02  0.23974418553E+03  0.29402451523E+03  0.12500000000E+03 0.  0.
         25    1    1    2    0    0  0.51114843646E+02 -0.28411425793E+02  0.35355265901E+03  0.37953184194E+03  0.12500000000E+03 0.  0.
         25    1    1    2    0    0  0.52161356891E+02 -0.23378220504E+02 -0.30870018258E+02  0.14087337000E+03  0.12500000000E+03 0.  0.
</event>
<event>
 5    0  0.5660959E-005  0.3868800E+03  0.7546771E-02  0.1048420E+00
         21   -1    0    0  502  501  0.00000000000E+00  0.00000000000E+00  0.46069376358E+03  0.46069376358E+03  0.00000000000E+00 0. -1.
         21   -1    0    0  501  502 -0.00000000000E+00 -0.00000000000E+00 -0.32489295767E+03  0.32489295767E+03  0.00000000000E+00 0. -1.
         25    1    1    2    0    0  0.28296550925E+03 -0.65002143860E+02 -0.44229610075E+02  0.31918022580E+03  0.12500000000E+03 0.  0.
         25    1    1    2    0    0 -0.21083841691E+03  0.11066006133E+03  0.16203728820E+03  0.31397383646E+03  0.12500000000E+03 0.  0.
         25    1    1    2    0    0 -0.72127092344E+02 -0.45657917468E+02  0.17993127787E+02  0.15243265898E+03  0.12500000000E+03 0.  0.
</event>
<event>
 5    0  0.5660959E-005  0.2581826E+03  0.7546771E-02  0.1108240E+00
         21   -1    0    0  502  501  0.00000000000E+00  0.00000000000E+00  0.72170864043E+03  0.72170864043E+03  0.00000000000E+00 0.  1.
         21   -1    0    0  501  502 -0.00000000000E+00 -0.00000000000E+00 -0.92361739268E+02  0.92361739268E+02  0.00000000000E+00 0.  1.
         25    1    1    2    0    0  0.81778863466E+02 -0.12498205556E+03  0.16276160684E+03  0.25382008862E+03  0.12500000000E+03 0.  0.
         25    1    1    2    0    0 -0.96328514315E+02  0.72490100441E+02  0.26876802481E+03  0.31999257568E+03  0.12500000000E+03 0.  0.
         25    1    1    2    0    0  0.14549650849E+02  0.52491955123E+02  0.19781726951E+03  0.24025771540E+03  0.12500000000E+03 0.  0.
</event>
<event>
 5    0  0.5660959E-005  0.2326974E+03  0.7546771E-02  0.1124755E+00
         21   -1    0    0  502  501  0.00000000000E+00  0.00000000000E+00  0.13180262519E+04  0.13180262519E+04  0.00000000000E+00 0.  1.
         21   -1    0    0  501  502 -0.00000000000E+00 -0.00000000000E+00 -0.41082704084E+02  0.41082704084E+02  0.00000000000E+00 0.  1.
         25    1    1    2    0    0  0.32768992487E+02 -0.37822146266E+02  0.24404065523E+03  0.27872058234E+03  0.12500000000E+03 0.  0.
         25    1    1    2    0    0 -0.46021099278E+02  0.90311591833E+02  0.36761169730E+03  0.40129476098E+03  0.12500000000E+03 0.  0.
         25    1    1    2    0    0  0.13252106791E+02 -0.52489445567E+02  0.66529119526E+03  0.67909361264E+03  0.12500000000E+03 0.  0.
</event>
<event>
 5    0  0.5660959E-005  0.3362002E+03  0.7546771E-02  0.1068426E+00
         21   -1    0    0  502  501  0.00000000000E+00  0.00000000000E+00  0.31666937563E+03  0.31666937563E+03  0.00000000000E+00 0. -1.
         21   -1    0    0  501  502 -0.00000000000E+00 -0.00000000000E+00 -0.35693565918E+03  0.35693565918E+03  0.00000000000E+00 0. -1.
         25    1    1    2    0    0  0.15178748927E+03 -0.97191571031E+02 -0.49081991865E+02  0.22476584550E+03  0.12500000000E+03 0.  0.
         25    1    1    2    0    0 -0.15343858795E+03 -0.73319432018E+02  0.80061727393E+02  0.22572997049E+03  0.12500000000E+03 0.  0.
         25    1    1    2    0    0  0.16510986797E+01  0.17051100305E+03 -0.71246019078E+02  0.22310921882E+03  0.12500000000E+03 0.  0.
</event>
<event>
 5    0  0.5660959E-005  0.4246319E+03  0.7546771E-02  0.1035569E+00
         21   -1    0    0  502  501  0.00000000000E+00  0.00000000000E+00  0.98352635289E+03  0.98352635289E+03  0.00000000000E+00 0. -1.
         21   -1    0    0  501  502 -0.00000000000E+00 -0.00000000000E+00 -0.18333240377E+03  0.18333240377E+03  0.00000000000E+00 0. -1.
         25    1    1    2    0    0 -0.67848963187E+02  0.24439521555E+03  0.43337860229E+03  0.51746933833E+03  0.12500000000E+03 0.  0.
         25    1    1    2    0    0  0.48125764093E+02  0.82794530571E+02  0.24725380174E+02  0.15939688795E+03  0.12500000000E+03 0.  0.
         25    1    1    2    0    0  0.19723199094E+02 -0.32718974612E+03  0.34208996666E+03  0.48999253039E+03  0.12500000000E+03 0.  0.
</event>
<event>
 5    0  0.5660959E-005  0.2588412E+03  0.7546771E-02  0.1107841E+00
         21   -1    0    0  502  501  0.00000000000E+00  0.00000000000E+00  0.11338515305E+03  0.11338515305E+03  0.00000000000E+00 0. -1.
         21   -1    0    0  501  502 -0.00000000000E+00 -0.00000000000E+00 -0.59089561393E+03  0.59089561393E+03  0.00000000000E+00 0. -1.
         25    1    1    2    0    0  0.15478825770E+03 -0.17665345862E+02 -0.18056903296E+03  0.26926129471E+03  0.12500000000E+03 0.  0.
         25    1    1    2    0    0 -0.60156032887E+02  0.10435954513E+02 -0.21983516204E+03  0.26015410031E+03  0.12500000000E+03 0.  0.
         25    1    1    2    0    0 -0.94632224816E+02  0.72293913491E+01 -0.77106265873E+02  0.17486537196E+03  0.12500000000E+03 0.  0.
</event>
<event>
 5    0  0.5660959E-005  0.3368551E+03  0.7546771E-02  0.1068143E+00
         21   -1    0    0  502  501  0.00000000000E+00  0.00000000000E+00  0.90153518725E+03  0.90153518725E+03  0.00000000000E+00 0.  1.
         21   -1    0    0  501  502 -0.00000000000E+00 -0.00000000000E+00 -0.12586460135E+03  0.12586460135E+03  0.00000000000E+00 0.  1.
         25    1    1    2    0    0 -0.74744744322E+02 -0.25156222565E+03  0.35429690863E+03  0.45828116876E+03  0.12500000000E+03 0.  0.
         25    1    1    2    0    0 -0.22541003869E+02  0.13837113249E+03  0.20323789173E+03  0.27674050625E+03  0.12500000000E+03 0.  0.
         25    1    1    2    0    0  0.97285748192E+02  0.11319109316E+03  0.21813578554E+03  0.29237811359E+03  0.12500000000E+03 0.  0.
</event>
<event>
 5    0  0.5660959E-005  0.4764707E+03  0.7546771E-02  0.1020110E+00
         21   -1    0    0  502  501  0.00000000000E+00  0.00000000000E+00  0.67249618988E+03  0.67249618988E+03  0.00000000000E+00 0.  1.
         21   -1    0    0  501  502 -0.00000000000E+00 -0.00000000000E+00 -0.33758453547E+03  0.33758453547E+03  0.00000000000E+00 0.  1.
         25    1    1    2    0    0 -0.12511599250E+03 -0.34658768649E+03  0.25301294274E+03  0.46413100004E+03  0.12500000000E+03 0.  0.
         25    1    1    2    0    0  0.23270262733E+02  0.12343770021E+03  0.18104104998E+03  0.25333620495E+03  0.12500000000E+03 0.  0.
         25    1    1    2    0    0  0.10184572977E+03  0.22314998628E+03 -0.99142338307E+02  0.29261352035E+03  0.12500000000E+03 0.  0.
</event>
<event>
 5    0  0.5846163E-005  0.3797600E+03  0.7546771E-02  0.1051023E+00
         21   -1    0    0  502  501  0.00000000000E+00  0.00000000000E+00  0.54347275862E+03  0.54347275862E+03  0.00000000000E+00 0. -1.
         21   -1    0    0  501  502 -0.00000000000E+00 -0.00000000000E+00 -0.26536315405E+03  0.26536315405E+03  0.00000000000E+00 0. -1.
         25    1    1    2    0    0  0.27339253809E+02 -0.24239443615E+03  0.13049119073E+03  0.30357115860E+03  0.12500000000E+03 0.  0.
         25    1    1    2    0    0 -0.43596360703E+02  0.15611219938E+03 -0.89342091076E+02  0.22333533241E+03  0.12500000000E+03 0.  0.
         25    1    1    2    0    0  0.16257106893E+02  0.86282236770E+02  0.23696050492E+03  0.28192942166E+03  0.12500000000E+03 0.  0.
</event>
<event>
 5    0  0.5660959E-005  0.2880955E+03  0.7546771E-02  0.1091348E+00
         21   -1    0    0  502  501  0.00000000000E+00  0.00000000000E+00  0.79399465573E+03  0.79399465573E+03  0.00000000000E+00 0.  1.
         21   -1    0    0  501  502 -0.00000000000E+00 -0.00000000000E+00 -0.10453345076E+03  0.10453345076E+03  0.00000000000E+00 0.  1.
         25    1    1    2    0    0  0.10892578881E+03  0.78539982223E+02  0.34813084575E+03  0.39351422088E+03  0.12500000000E+03 0.  0.
         25    1    1    2    0    0  0.55805758292E+02  0.25311165977E+02  0.10600940380E+03  0.17497980305E+03  0.12500000000E+03 0.  0.
         25    1    1    2    0    0 -0.16473154710E+03 -0.10385114820E+03  0.23532095541E+03  0.33003408256E+03  0.12500000000E+03 0.  0.
</event>
<event>
 5    0  0.5660959E-005  0.2322048E+03  0.7546771E-02  0.1125098E+00
         21   -1    0    0  502  501  0.00000000000E+00  0.00000000000E+00  0.11374127691E+03  0.11374127691E+03  0.00000000000E+00 0. -1.
         21   -1    0    0  501  502 -0.00000000000E+00 -0.00000000000E+00 -0.47404995432E+03  0.47404995432E+03  0.00000000000E+00 0. -1.
         25    1    1    2    0    0  0.10016686282E+03 -0.43453097706E+02 -0.11089932265E+03  0.19961270468E+03  0.12500000000E+03 0.  0.
         25    1    1    2    0    0 -0.90286110836E+01 -0.24325415539E+02 -0.12235804767E+03  0.17683250123E+03  0.12500000000E+03 0.  0.
         25    1    1    2    0    0 -0.91138251733E+02  0.67778513245E+02 -0.12705130709E+03  0.21134602532E+03  0.12500000000E+03 0.  0.
</event>
<event>
 5    0  0.5660959E-005  0.2231074E+03  0.7546771E-02  0.1131587E+00
         21   -1    0    0  502  501  0.00000000000E+00  0.00000000000E+00  0.20468313630E+03  0.20468313630E+03  0.00000000000E+00 0. -1.
         21   -1    0    0  501  502 -0.00000000000E+00 -0.00000000000E+00 -0.24319003984E+03  0.24319003984E+03  0.00000000000E+00 0. -1.
         25    1    1    2    0    0  0.17732737787E+02 -0.18198935256E+02  0.40154824265E+02  0.13372756315E+03  0.12500000000E+03 0.  0.
         25    1    1    2    0    0 -0.62991219490E+02 -0.57303561079E+02 -0.39725003656E+02  0.15637988285E+03  0.12500000000E+03 0.  0.
         25    1    1    2    0    0  0.45258481703E+02  0.75502496335E+02 -0.38936724157E+02  0.15776573014E+03  0.12500000000E+03 0.  0.
</event>
<event>
 5    0  0.5660959E-005  0.4022377E+03  0.7546771E-02  0.1043008E+00
         21   -1    0    0  502  501  0.00000000000E+00  0.00000000000E+00  0.56718796668E+03  0.56718796668E+03  0.00000000000E+00 0.  1.
         21   -1    0    0  501  502 -0.00000000000E+00 -0.00000000000E+00 -0.28525850040E+03  0.28525850040E+03  0.00000000000E+00 0.  1.
         25    1    1    2    0    0 -0.13841153316E+03  0.23895019633E+03  0.27069417737E+02  0.30432335141E+03  0.12500000000E+03 0.  0.
         25    1    1    2    0    0  0.74610597380E+02 -0.29247590759E+03  0.12578255283E+03  0.35007877450E+03  0.12500000000E+03 0.  0.
         25    1    1    2    0    0  0.63800935777E+02  0.53525711254E+02  0.12907749571E+03  0.19804434117E+03  0.12500000000E+03 0.  0.
</event>
<event>
 5    0  0.5660959E-005  0.2742048E+03  0.7546771E-02  0.1098897E+00
         21   -1    0    0  502  501  0.00000000000E+00  0.00000000000E+00  0.61862593202E+02  0.61862593202E+02  0.00000000000E+00 0. -1.
         21   -1    0    0  501  502 -0.00000000000E+00 -0.00000000000E+00 -0.12154077095E+04  0.12154077095E+04  0.00000000000E+00 0. -1.
         25    1    1    2    0    0 -0.13241014286E+03  0.22643479967E+02 -0.35339152990E+03  0.39819059070E+03  0.12500000000E+03 0.  0.
         25    1    1    2    0    0  0.67624838486E+02 -0.48881985887E+02 -0.66633748074E+03  0.68307628092E+03  0.12500000000E+03 0.  0.
         25    1    1    2    0    0  0.64785304378E+02  0.26238505919E+02 -0.13381610564E+03  0.19600343105E+03  0.12500000000E+03 0.  0.
</event>
<event>
 5    0  0.5660959E-005  0.2252855E+03  0.7546771E-02  0.1130003E+00
         21   -1    0    0  502  501  0.00000000000E+00  0.00000000000E+00  0.56957766791E+02  0.56957766791E+02  0.00000000000E+00 0.  1.
         21   -1    0    0  501  502 -0.00000000000E+00 -0.00000000000E+00 -0.89107375304E+03  0.89107375304E+03  0.00000000000E+00 0.  1.
         25    1    1    2    0    0  0.79455215259E+02  0.58257309144E+01 -0.39021406935E+03  0.41741956146E+03  0.12500000000E+03 0.  0.
         25    1    1    2    0    0 -0.82164795290E+02 -0.37878324861E+02 -0.18183809911E+03  0.23848671948E+03  0.12500000000E+03 0.  0.
         25    1    1    2    0    0  0.27095800308E+01  0.32052593947E+02 -0.26206381780E+03  0.29212523890E+03  0.12500000000E+03 0.  0.
</event>
<event>
 5    0  0.5660959E-005  0.4228380E+03  0.7546771E-02  0.1036147E+00
         21   -1    0    0  502  501  0.00000000000E+00  0.00000000000E+00  0.27784201081E+03  0.27784201081E+03  0.00000000000E+00 0. -1.
         21   -1    0    0  501  502 -0.00000000000E+00 -0.00000000000E+00 -0.64350237880E+03  0.64350237880E+03  0.00000000000E+00 0. -1.
         25    1    1    2    0    0  0.21846585708E+03  0.19637247362E+03 -0.76770680108E+02  0.32834161544E+03  0.12500000000E+03 0.  0.
         25    1    1    2    0    0 -0.27796580969E+03 -0.18217755848E+03 -0.28240683926E+03  0.45368742217E+03  0.12500000000E+03 0.  0.
         25    1    1    2    0    0  0.59499952614E+02 -0.14194915144E+02 -0.64828486172E+01  0.13931535200E+03  0.12500000000E+03 0.  0.
</event>
<event>
 5    0  0.5660959E-005  0.2726621E+03  0.7546771E-02  0.1099766E+00
         21   -1    0    0  502  501  0.00000000000E+00  0.00000000000E+00  0.25657460577E+04  0.25657460577E+04  0.00000000000E+00 0. -1.
         21   -1    0    0  501  502 -0.00000000000E+00 -0.00000000000E+00 -0.28975837764E+02  0.28975837764E+02  0.00000000000E+00 0. -1.
         25    1    1    2    0    0 -0.35595023620E+02  0.53049564476E+02  0.16269176852E+04  0.16329627725E+04  0.12500000000E+03 0.  0.
         25    1    1    2    0    0  0.73140064583E+02  0.34820398137E+02  0.53194796982E+03  0.55240888097E+03  0.12500000000E+03 0.  0.
         25    1    1    2    0    0 -0.37545040964E+02 -0.87869962614E+02  0.37790456493E+03  0.40935024200E+03  0.12500000000E+03 0.  0.
</event>
<event>
 5    0  0.5660959E-005  0.2541386E+03  0.7546771E-02  0.1110717E+00
         21   -1    0    0  502  501  0.00000000000E+00  0.00000000000E+00  0.24939921871E+03  0.24939921871E+03  0.00000000000E+00 0. -1.
         21   -1    0    0  501  502 -0.00000000000E+00 -0.00000000000E+00 -0.25896794526E+03  0.25896794526E+03  0.00000000000E+00 0. -1.
         25    1    1    2    0    0 -0.11865307156E+01  0.46401808490E+02 -0.27534574573E+02  0.13615318022E+03  0.12500000000E+03 0.  0.
         25    1    1    2    0    0  0.98816145722E+02 -0.11402140002E+03 -0.15604835460E+02  0.19655538967E+03  0.12500000000E+03 0.  0.
         25    1    1    2    0    0 -0.97629615007E+02  0.67619591532E+02  0.33570683492E+02  0.17565859408E+03  0.12500000000E+03 0.  0.
</event>
<event>
 5    0  0.5660959E-005  0.2019809E+03  0.7546771E-02  0.1148078E+00
         21   -1    0    0  502  501  0.00000000000E+00  0.00000000000E+00  0.27044326305E+02  0.27044326305E+02  0.00000000000E+00 0. -1.
         21   -1    0    0  501  502 -0.00000000000E+00 -0.00000000000E+00 -0.15084962436E+04  0.15084962436E+04  0.00000000000E+00 0. -1.
         25    1    1    2    0    0  0.29918909584E+02  0.44984905176E+02 -0.39022677024E+03  0.41330462744E+03  0.12500000000E+03 0.  0.
         25    1    1    2    0    0 -0.33908416994E+02 -0.40844280055E+02 -0.61806813876E+03  0.63281218392E+03  0.12500000000E+03 0.  0.
         25    1    1    2    0    0  0.39895074099E+01 -0.41406251211E+01 -0.47315700825E+03  0.48942375852E+03  0.12500000000E+03 0.  0.
</event>
<event>
 5    0  0.5660959E-005  0.2499503E+03  0.7546771E-02  0.1113336E+00
         21   -1    0    0  502  501  0.00000000000E+00  0.00000000000E+00  0.21871616791E+03  0.21871616791E+03  0.00000000000E+00 0.  1.
         21   -1    0    0  501  502 -0.00000000000E+00 -0.00000000000E+00 -0.28564491372E+03  0.28564491372E+03  0.00000000000E+00 0.  1.
         25    1    1    2    0    0  0.49037681745E+00 -0.31229561395E+02 -0.13260730124E+03  0.18489246149E+03  0.12500000000E+03 0.  0.
         25    1    1    2    0    0  0.67387934630E+02 -0.37686632998E+02 -0.34315173805E+01  0.14696323129E+03  0.12500000000E+03 0.  0.
         25    1    1    2    0    0 -0.67878311448E+02  0.68916194394E+02  0.69110072812E+02  0.17250538884E+03  0.12500000000E+03 0.  0.
</event>
<event>
 5    0  0.5815328E-005  0.2695406E+03  0.7546771E-02  0.1101543E+00
         21   -1    0    0  502  501  0.00000000000E+00  0.00000000000E+00  0.67963979374E+03  0.67963979374E+03  0.00000000000E+00 0. -1.
         21   -1    0    0  501  502 -0.00000000000E+00 -0.00000000000E+00 -0.10689799272E+03  0.10689799272E+03  0.00000000000E+00 0. -1.
         25    1    1    2    0    0  0.81285904272E+02 -0.54149802101E+02  0.35429341236E+03  0.38818606537E+03  0.12500000000E+03 0.  0.
         25    1    1    2    0    0 -0.64018901624E+02  0.11204744709E+03  0.17993633267E+03  0.25427373828E+03  0.12500000000E+03 0.  0.
         25    1    1    2    0    0 -0.17267002648E+02 -0.57897644988E+02  0.38512055989E+02  0.14407798282E+03  0.12500000000E+03 0.  0.
</event>
<event>
 5    0  0.5660959E-005  0.2131310E+03  0.7546771E-02  0.1139110E+00
         21   -1    0    0  502  501  0.00000000000E+00  0.00000000000E+00  0.21754799759E+04  0.21754799759E+04  0.00000000000E+00 0. -1.
         21   -1    0    0  501  502 -0.00000000000E+00 -0.00000000000E+00 -0.20880374261E+02  0.20880374261E+02  0.00000000000E+00 0. -1.
         25    1    1    2    0    0 -0.12519422043E+02 -0.57031806013E+01  0.11633028753E+04  0.11700802716E+04  0.12500000000E+03 0.  0.
         25    1    1    2    0    0 -0.68841178697E+01  0.17129953995E+02  0.34012923386E+03  0.36284118031E+03  0.12500000000E+03 0.  0.
         25    1    1    2    0    0  0.19403539912E+02 -0.11426773393E+02  0.65116749240E+03  0.66343889822E+03  0.12500000000E+03 0.  0.
</event>
<event>
 5    0  0.5660959E-005  0.3461620E+03  0.7546771E-02  0.1064201E+00
         21   -1    0    0  502  501  0.00000000000E+00  0.00000000000E+00  0.23768715795E+03  0.23768715795E+03  0.00000000000E+00 0.  1.
         21   -1    0    0  501  502 -0.00000000000E+00 -0.00000000000E+00 -0.50414226081E+03  0.50414226081E+03  0.00000000000E+00 0.  1.
         25    1    1    2    0    0 -0.38853883987E+02 -0.50480615130E+02 -0.14551422502E+03  0.20213190368E+03  0.12500000000E+03 0.  0.
         25    1    1    2    0    0  0.16997630167E+03 -0.76939641862E+01 -0.23654310200E+03  0.31706273719E+03  0.12500000000E+03 0.  0.
         25    1    1    2    0    0 -0.13112241768E+03  0.58174579316E+02  0.11560222414E+03  0.22263477789E+03  0.12500000000E+03 0.  0.
</event>
<event>
 5    0  0.5660959E-005  0.2881674E+03  0.7546771E-02  0.1091310E+00
         21   -1    0    0  502  501  0.00000000000E+00  0.00000000000E+00  0.13592059923E+03  0.13592059923E+03  0.00000000000E+00 0. -1.
         21   -1    0    0  501  502 -0.00000000000E+00 -0.00000000000E+00 -0.61094822650E+03  0.61094822650E+03  0.00000000000E+00 0. -1.
         25    1    1    2    0    0  0.10569822355E+03 -0.12318600301E+02 -0.21171196945E+01  0.16417473792E+03  0.12500000000E+03 0.  0.
         25    1    1    2    0    0  0.89936891774E+01  0.15984311671E+02 -0.67576345171E+02  0.14327577287E+03  0.12500000000E+03 0.  0.
         25    1    1    2    0    0 -0.11469191273E+03 -0.36657113695E+01 -0.40533416240E+03  0.43941831493E+03  0.12500000000E+03 0.  0.
</event>
<event>
 5    0  0.5660959E-005  0.3073225E+03  0.7546771E-02  0.1081636E+00
         21   -1    0    0  502  501  0.00000000000E+00  0.00000000000E+00  0.15301199362E+04  0.15301199362E+04  0.00000000000E+00 0. -1.
         21   -1    0    0  501  502 -0.00000000000E+00 -0.00000000000E+00 -0.61725288590E+02  0.61725288590E+02  0.00000000000E+00 0. -1.
         25    1    1    2    0    0  0.57980921976E+02  0.46386805847E+01  0.93909483712E+03  0.94916142873E+03  0.12500000000E+03 0.  0.
         25    1    1    2    0    0 -0.13525786693E+03  0.73254828821E+02  0.28837263768E+03  0.34992104635E+03  0.12500000000E+03 0.  0.
         25    1    1    2    0    0  0.77276944957E+02 -0.77893509406E+02  0.24092717284E+03  0.29276274975E+03  0.12500000000E+03 0.  0.
</event>
<event>
 5    0  0.5660959E-005  0.7667095E+03  0.7546771E-02  0.9609494E-01
         21   -1    0    0  502  501  0.00000000000E+00  0.00000000000E+00  0.35869492641E+03  0.35869492641E+03  0.00000000000E+00 0. -1.
         21   -1    0    0  501  502 -0.00000000000E+00 -0.00000000000E+00 -0.16388396768E+04  0.16388396768E+04  0.00000000000E+00 0. -1.
         25    1    1    2    0    0 -0.42819616936E+03  0.24747295121E+03 -0.43986371229E+03  0.67357249530E+03  0.12500000000E+03 0.  0.
         25    1    1    2    0    0  0.61943398431E+03 -0.11881321388E+03 -0.84487146041E+03  0.10617192780E+04  0.12500000000E+03 0.  0.
         25    1    1    2    0    0 -0.19123781495E+03 -0.12865973733E+03  0.45904222520E+01  0.26224282994E+03  0.12500000000E+03 0.  0.
</event>
<event>
 5    0  0.5660959E-005  0.2330908E+03  0.7546771E-02  0.1124483E+00
         21   -1    0    0  502  501  0.00000000000E+00  0.00000000000E+00  0.13719825470E+04  0.13719825470E+04  0.00000000000E+00 0.  1.
         21   -1    0    0  501  502 -0.00000000000E+00 -0.00000000000E+00 -0.39600588766E+02  0.39600588766E+02  0.00000000000E+00 0.  1.
         25    1    1    2    0    0  0.25106918695E+02 -0.32571377404E+02  0.41101584541E+03  0.43156723366E+03  0.12500000000E+03 0.  0.
         25    1    1    2    0    0 -0.58155085789E+01 -0.86399262050E+02  0.53956826218E+03  0.56058680164E+03  0.12500000000E+03 0.  0.
         25    1    1    2    0    0 -0.19291410116E+02  0.11897063945E+03  0.38179785062E+03  0.41942910044E+03  0.12500000000E+03 0.  0.
</event>
<event>
 5    0  0.5660959E-005  0.2802523E+03  0.7546771E-02  0.1095551E+00
         21   -1    0    0  502  501  0.00000000000E+00  0.00000000000E+00  0.80469183619E+02  0.80469183619E+02  0.00000000000E+00 0.  1.
         21   -1    0    0  501  502 -0.00000000000E+00 -0.00000000000E+00 -0.97604268783E+03  0.97604268783E+03  0.00000000000E+00 0.  1.
         25    1    1    2    0    0 -0.10439598669E+03 -0.93599693810E+02 -0.19484108999E+03  0.27064270740E+03  0.12500000000E+03 0.  0.
         25    1    1    2    0    0  0.41752762713E+02 -0.58583835892E+02 -0.22590265021E+03  0.26801560849E+03  0.12500000000E+03 0.  0.
         25    1    1    2    0    0  0.62643223973E+02  0.15218352970E+03 -0.47482976401E+03  0.51785355557E+03  0.12500000000E+03 0.  0.
</event>
<event>
 5    0  0.5660959E-005  0.3200599E+03  0.7546771E-02  0.1075622E+00
         21   -1    0    0  502  501  0.00000000000E+00  0.00000000000E+00  0.69810020614E+02  0.69810020614E+02  0.00000000000E+00 0. -1.
         21   -1    0    0  501  502 -0.00000000000E+00 -0.00000000000E+00 -0.14673873903E+04  0.14673873903E+04  0.00000000000E+00 0. -1.
         25    1    1    2    0    0  0.89066822662E+02 -0.24944840242E+02 -0.85841022161E+02  0.17761988920E+03  0.12500000000E+03 0.  0.
         25    1    1    2    0    0  0.34524647701E+02 -0.57887295809E+02 -0.79347296118E+03  0.80608140435E+03  0.12500000000E+03 0.  0.
         25    1    1    2    0    0 -0.12359147036E+03  0.82832136051E+02 -0.51826338630E+03  0.55349611732E+03  0.12500000000E+03 0.  0.
</event>
<event>
 5    0  0.5660959E-005  0.2844126E+03  0.7546771E-02  0.1093303E+00
         21   -1    0    0  502  501  0.00000000000E+00  0.00000000000E+00  0.10871670834E+03  0.10871670834E+03  0.00000000000E+00 0.  1.
         21   -1    0    0  501  502 -0.00000000000E+00 -0.00000000000E+00 -0.74404881656E+03  0.74404881656E+03  0.00000000000E+00 0.  1.
         25    1    1    2    0    0  0.42377688709E+02 -0.82092578494E+02 -0.11588327426E+03  0.19387881059E+03  0.12500000000E+03 0.  0.
         25    1    1    2    0    0 -0.15647855078E+03  0.71690892097E+02 -0.17689365734E+03  0.27666132160E+03  0.12500000000E+03 0.  0.
         25    1    1    2    0    0  0.11410086207E+03  0.10401686397E+02 -0.34255517661E+03  0.38222539270E+03  0.12500000000E+03 0.  0.
</event>
<event>
 5    0  0.5660959E-005  0.3522122E+03  0.7546771E-02  0.1061711E+00
         21   -1    0    0  502  501  0.00000000000E+00  0.00000000000E+00  0.13254689651E+03  0.13254689651E+03  0.00000000000E+00 0.  1.
         21   -1    0    0  501  502 -0.00000000000E+00 -0.00000000000E+00 -0.93592093166E+03  0.93592093166E+03  0.00000000000E+00 0.  1.
         25    1    1    2    0    0 -0.15197077494E+02 -0.11933182831E+03 -0.69712074786E+02  0.18696472872E+03  0.12500000000E+03 0.  0.
         25    1    1    2    0    0 -0.96216944224E+02  0.43701392293E+02 -0.46441174542E+02  0.17014492275E+03  0.12500000000E+03 0.  0.
         25    1    1    2    0    0  0.11141402172E+03  0.75630436020E+02 -0.68722078582E+03  0.71135817670E+03  0.12500000000E+03 0.  0.
</event>
<event>
 5    0  0.5660959E-005  0.3253727E+03  0.7546771E-02  0.1073203E+00
         21   -1    0    0  502  501  0.00000000000E+00  0.00000000000E+00  0.14431206828E+03  0.14431206828E+03  0.00000000000E+00 0.  1.
         21   -1    0    0  501  502 -0.00000000000E+00 -0.00000000000E+00 -0.73360056939E+03  0.73360056939E+03  0.00000000000E+00 0.  1.
         25    1    1    2    0    0 -0.30451710202E+02  0.47510297645E+02 -0.13737075996E+03  0.19411404052E+03  0.12500000000E+03 0.  0.
         25    1    1    2    0    0 -0.29256301094E+02  0.92595480953E+02 -0.46013573228E+03  0.48660019150E+03  0.12500000000E+03 0.  0.
         25    1    1    2    0    0  0.59708011296E+02 -0.14010577860E+03  0.82179911369E+01  0.19719840564E+03  0.12500000000E+03 0.  0.
</event>
<event>
 5    0  0.5660959E-005  0.2818575E+03  0.7546771E-02  0.1094679E+00
         21   -1    0    0  502  501  0.00000000000E+00  0.00000000000E+00  0.27871825774E+03  0.27871825774E+03  0.00000000000E+00 0.  1.
         21   -1    0    0  501  502 -0.00000000000E+00 -0.00000000000E+00 -0.28503219414E+03  0.28503219414E+03  0.00000000000E+00 0.  1.
         25    1    1    2    0    0 -0.28506782624E+02  0.45229955642E+02  0.76218106523E+02  0.15586078822E+03  0.12500000000E+03 0.  0.
         25    1    1    2    0    0  0.10658842557E+03 -0.93391802301E+02  0.58992210463E+02  0.19796010229E+03  0.12500000000E+03 0.  0.
         25    1    1    2    0    0 -0.78081642947E+02  0.48161846659E+02 -0.14152425338E+03  0.20992956136E+03  0.12500000000E+03 0.  0.
</event>
<event>
 5    0  0.5660959E-005  0.2912438E+03  0.7546771E-02  0.1089702E+00
         21   -1    0    0  502  501  0.00000000000E+00  0.00000000000E+00  0.48588685400E+03  0.48588685400E+03  0.00000000000E+00 0.  1.
         21   -1    0    0  501  502 -0.00000000000E+00 -0.00000000000E+00 -0.17457345998E+03  0.17457345998E+03  0.00000000000E+00 0.  1.
         25    1    1    2    0    0  0.94803824803E+02  0.12503263400E+03  0.23109650133E+03  0.30602535466E+03  0.12500000000E+03 0.  0.
         25    1    1    2    0    0 -0.41265372443E+02 -0.13152198100E+03 -0.17435786048E+02  0.18689534260E+03  0.12500000000E+03 0.  0.
         25    1    1    2    0    0 -0.53538452361E+02  0.64893470005E+01  0.97652678734E+02  0.16753961672E+03  0.12500000000E+03 0.  0.
</event>
<event>
 5    0  0.5708064E-005  0.2858433E+03  0.7546771E-02  0.1092540E+00
         21   -1    0    0  502  501  0.00000000000E+00  0.00000000000E+00  0.31378846205E+03  0.31378846205E+03  0.00000000000E+00 0.  1.
         21   -1    0    0  501  502 -0.00000000000E+00 -0.00000000000E+00 -0.26038692800E+03  0.26038692800E+03  0.00000000000E+00 0.  1.
         25    1    1    2    0    0 -0.65538076386E+02  0.76171957478E+02 -0.62550431308E+02  0.17214808456E+03  0.12500000000E+03 0.  0.
         25    1    1    2    0    0 -0.10572818304E+03 -0.20884918083E+02  0.62496341174E+02  0.17648065376E+03  0.12500000000E+03 0.  0.
         25    1    1    2    0    0  0.17126625943E+03 -0.55287039395E+02  0.53455624190E+02  0.22554665172E+03  0.12500000000E+03 0.  0.
</event>
<event>
 5    0  0.5660959E-005  0.3611810E+03  0.7546771E-02  0.1058117E+00
         21   -1    0    0  502  501  0.00000000000E+00  0.00000000000E+00  0.57744451778E+03  0.57744451778E+03  0.00000000000E+00 0. -1.
         21   -1    0    0  501  502 -0.00000000000E+00 -0.00000000000E+00 -0.22591207205E+03  0.22591207205E+03  0.00000000000E+00 0. -1.
         25    1    1    2    0    0  0.49392745885E+02 -0.10649448218E+03  0.49631640292E+02  0.17851895641E+03  0.12500000000E+03 0.  0.
         25    1    1    2    0    0  0.10789227876E+03 -0.14308765940E+03  0.17610489543E+03  0.28062921494E+03  0.12500000000E+03 0.  0.
         25    1    1    2    0    0 -0.15728502464E+03  0.24958214158E+03  0.12579591001E+03  0.34420841847E+03  0.12500000000E+03 0.  0.
</event>
<event>
 5    0  0.6144648E-005  0.3332241E+03  0.7546771E-02  0.1069719E+00
         21   -1    0    0  502  501  0.00000000000E+00  0.00000000000E+00  0.69485762814E+03  0.69485762814E+03  0.00000000000E+00 0.  1.
         21   -1    0    0  501  502 -0.00000000000E+00 -0.00000000000E+00 -0.15980009656E+03  0.15980009656E+03  0.00000000000E+00 0.  1.
         25    1    1    2    0    0 -0.17461533064E+02  0.12255565734E+03  0.43718941194E+02  0.18127641905E+03  0.12500000000E+03 0.  0.
         25    1    1    2    0    0  0.15411791654E+03  0.40559417128E+02  0.29588043576E+03  0.35856328700E+03  0.12500000000E+03 0.  0.
         25    1    1    2    0    0 -0.13665638347E+03 -0.16311507447E+03  0.19545815463E+03  0.31481801866E+03  0.12500000000E+03 0.  0.
</event>
<event>
 5    0  0.5660959E-005  0.3188931E+03  0.7546771E-02  0.1076160E+00
         21   -1    0    0  502  501  0.00000000000E+00  0.00000000000E+00  0.16535778314E+03  0.16535778314E+03  0.00000000000E+00 0. -1.
         21   -1    0    0  501  502 -0.00000000000E+00 -0.00000000000E+00 -0.61498651076E+03  0.61498651076E+03  0.00000000000E+00 0. -1.
         25    1    1    2    0    0 -0.38464011875E+01 -0.15020257175E+03 -0.25565517157E+03  0.32180766633E+03  0.12500000000E+03 0.  0.
         25    1    1    2    0    0 -0.46633182635E+02 -0.57432126005E+02 -0.20012881361E+01  0.14526564623E+03  0.12500000000E+03 0.  0.
         25    1    1    2    0    0  0.50479583822E+02  0.20763469775E+03 -0.19197226792E+03  0.31327098133E+03  0.12500000000E+03 0.  0.
</event>
<event>
 5    0  0.5660959E-005  0.2571401E+03  0.7546771E-02  0.1108874E+00
         21   -1    0    0  502  501  0.00000000000E+00  0.00000000000E+00  0.16757456955E+03  0.16757456955E+03  0.00000000000E+00 0. -1.
         21   -1    0    0  501  502 -0.00000000000E+00 -0.00000000000E+00 -0.39457678263E+03  0.39457678263E+03  0.00000000000E+00 0. -1.
         25    1    1    2    0    0  0.11303017123E+02  0.15224193067E+03 -0.11005983082E+03  0.22592815232E+03  0.12500000000E+03 0.  0.
         25    1    1    2    0    0  0.45668391250E+00 -0.16026703901E+02 -0.21546432706E+02  0.12785269868E+03  0.12500000000E+03 0.  0.
         25    1    1    2    0    0 -0.11759701036E+02 -0.13621522677E+03 -0.95395949546E+02  0.20837050118E+03  0.12500000000E+03 0.  0.
</event>
<event>
 5    0  0.6343156E-005  0.2708175E+03  0.7546771E-02  0.1100813E+00
         21   -1    0    0  502  501  0.00000000000E+00  0.00000000000E+00  0.23024970044E+03  0.23024970044E+03  0.00000000000E+00 0. -1.
         21   -1    0    0  501  502 -0.00000000000E+00 -0.00000000000E+00 -0.31853284770E+03  0.31853284770E+03  0.00000000000E+00 0. -1.
         25    1    1    2    0    0 -0.66208666737E+02  0.11038193379E+03  0.79619263520E+02  0.19629565961E+03  0.12500000000E+03 0.  0.
         25    1    1    2    0    0  0.10480888948E+02 -0.50607679720E+01 -0.11905887995E+03  0.17301871951E+03  0.12500000000E+03 0.  0.
         25    1    1    2    0    0  0.55727777790E+02 -0.10532116582E+03 -0.48843530830E+02  0.17946816902E+03  0.12500000000E+03 0.  0.
</event>
<event>
 5    0  0.5660959E-005  0.3620019E+03  0.7546771E-02  0.1057794E+00
         21   -1    0    0  502  501  0.00000000000E+00  0.00000000000E+00  0.16085781039E+03  0.16085781039E+03  0.00000000000E+00 0.  1.
         21   -1    0    0  501  502 -0.00000000000E+00 -0.00000000000E+00 -0.81466580873E+03  0.81466580873E+03  0.00000000000E+00 0.  1.
         25    1    1    2    0    0 -0.50988283191E+02  0.10139706228E+03  0.94429473456E+01  0.16910156273E+03  0.12500000000E+03 0.  0.
         25    1    1    2    0    0  0.27829169642E+02 -0.14492952697E+03 -0.82387262150E+02  0.21021819958E+03  0.12500000000E+03 0.  0.
         25    1    1    2    0    0  0.23159113549E+02  0.43532464687E+02 -0.58086368354E+03  0.59620385681E+03  0.12500000000E+03 0.  0.
</event>
<event>
 5    0  0.7210358E-005  0.3560767E+03  0.7546771E-02  0.1060148E+00
         21   -1    0    0  502  501  0.00000000000E+00  0.00000000000E+00  0.46446102953E+03  0.46446102953E+03  0.00000000000E+00 0. -1.
         21   -1    0    0  501  502 -0.00000000000E+00 -0.00000000000E+00 -0.27298439776E+03  0.27298439776E+03  0.00000000000E+00 0. -1.
         25    1    1    2    0    0 -0.65313932155E+02  0.13431109836E+03  0.23661082526E+03  0.30645564688E+03  0.12500000000E+03 0.  0.
         25    1    1    2    0    0  0.12551605919E+03 -0.12017230689E+03  0.94185653434E+02  0.23386235647E+03  0.12500000000E+03 0.  0.
         25    1    1    2    0    0 -0.60202127037E+02 -0.14138791465E+02 -0.13931984692E+03  0.19712742394E+03  0.12500000000E+03 0.  0.
</event>
<event>
 5    0  0.5992436E-005  0.3033254E+03  0.7546771E-02  0.1083590E+00
         21   -1    0    0  502  501  0.00000000000E+00  0.00000000000E+00  0.15555383304E+03  0.15555383304E+03  0.00000000000E+00 0.  1.
         21   -1    0    0  501  502 -0.00000000000E+00 -0.00000000000E+00 -0.59147568643E+03  0.59147568643E+03  0.00000000000E+00 0.  1.
         25    1    1    2    0    0 -0.81373976204E+02 -0.74125575236E+02 -0.62818492025E+02  0.17800979706E+03  0.12500000000E+03 0.  0.
         25    1    1    2    0    0  0.18234775205E+03  0.13353229153E+03 -0.22762573861E+03  0.34426741414E+03  0.12500000000E+03 0.  0.
         25    1    1    2    0    0 -0.10097377585E+03 -0.59406716298E+02 -0.14547762276E+03  0.22475230827E+03  0.12500000000E+03 0.  0.
</event>
<event>
 5    0  0.5660959E-005  0.3292788E+03  0.7546771E-02  0.1071456E+00
         21   -1    0    0  502  501  0.00000000000E+00  0.00000000000E+00  0.32046540146E+03  0.32046540146E+03  0.00000000000E+00 0.  1.
         21   -1    0    0  501  502 -0.00000000000E+00 -0.00000000000E+00 -0.33833466039E+03  0.33833466039E+03  0.00000000000E+00 0.  1.
         25    1    1    2    0    0  0.48192421052E+02 -0.24924003838E+02 -0.24084394579E+03  0.27672101770E+03  0.12500000000E+03 0.  0.
         25    1    1    2    0    0 -0.90262793438E+02  0.71362399746E+02  0.13354185024E+03  0.21609810213E+03  0.12500000000E+03 0.  0.
         25    1    1    2    0    0  0.42070372386E+02 -0.46438395908E+02  0.89432836622E+02  0.16598094202E+03  0.12500000000E+03 0.  0.
</event>
<event>
 5    0  0.5660959E-005  0.3267838E+03  0.7546771E-02  0.1072569E+00
         21   -1    0    0  502  501  0.00000000000E+00  0.00000000000E+00  0.37656793112E+03  0.37656793112E+03  0.00000000000E+00 0.  1.
         21   -1    0    0  501  502 -0.00000000000E+00 -0.00000000000E+00 -0.28358132685E+03  0.28358132685E+03  0.00000000000E+00 0.  1.
         25    1    1    2    0    0 -0.89756159235E+02  0.17302614526E+02  0.14635082013E+03  0.21307067171E+03  0.12500000000E+03 0.  0.
         25    1    1    2    0    0  0.12107191418E+03 -0.61966556896E+02 -0.18220208871E+03  0.25946264415E+03  0.12500000000E+03 0.  0.
         25    1    1    2    0    0 -0.31315754943E+02  0.44663942370E+02  0.12883787285E+03  0.18761594212E+03  0.12500000000E+03 0.  0.
</event>
<event>
 5    0  0.5660959E-005  0.3718205E+03  0.7546771E-02  0.1053999E+00
         21   -1    0    0  502  501  0.00000000000E+00  0.00000000000E+00  0.10427633972E+03  0.10427633972E+03  0.00000000000E+00 0. -1.
         21   -1    0    0  501  502 -0.00000000000E+00 -0.00000000000E+00 -0.13258090792E+04  0.13258090792E+04  0.00000000000E+00 0. -1.
         25    1    1    2    0    0 -0.37478949477E+02 -0.15075816074E+03 -0.45513798602E+02  0.20452188281E+03  0.12500000000E+03 0.  0.
         25    1    1    2    0    0  0.44531459990E+02  0.91673321739E+02 -0.31919636506E+03  0.35762881359E+03  0.12500000000E+03 0.  0.
         25    1    1    2    0    0 -0.70525105127E+01  0.59084839004E+02 -0.85682257584E+03  0.86793472253E+03  0.12500000000E+03 0.  0.
</event>
<event>
 5    0  0.5660959E-005  0.3452527E+03  0.7546771E-02  0.1064581E+00
         21   -1    0    0  502  501  0.00000000000E+00  0.00000000000E+00  0.10138701625E+03  0.10138701625E+03  0.00000000000E+00 0. -1.
         21   -1    0    0  501  502 -0.00000000000E+00 -0.00000000000E+00 -0.11756872195E+04  0.11756872195E+04  0.00000000000E+00 0. -1.
         25    1    1    2    0    0  0.63473976902E+02 -0.45132489513E+02 -0.36599566339E+03  0.39451706296E+03  0.12500000000E+03 0.  0.
         25    1    1    2    0    0 -0.90498504572E+02  0.24480787156E+03 -0.38846688203E+03  0.48440932251E+03  0.12500000000E+03 0.  0.
         25    1    1    2    0    0  0.27024527671E+02 -0.19967538205E+03 -0.31983765779E+03  0.39814785022E+03  0.12500000000E+03 0.  0.
</event>
<event>
 5    0  0.5660959E-005  0.3693259E+03  0.7546771E-02  0.1054951E+00
         21   -1    0    0  502  501  0.00000000000E+00  0.00000000000E+00  0.59665996874E+02  0.59665996874E+02  0.00000000000E+00 0.  1.
         21   -1    0    0  501  502 -0.00000000000E+00 -0.00000000000E+00 -0.22860860008E+04  0.22860860008E+04  0.00000000000E+00 0.  1.
         25    1    1    2    0    0 -0.60399806587E+01  0.95435085174E+02 -0.55671538856E+03  0.57853380256E+03  0.12500000000E+03 0.  0.
         25    1    1    2    0    0 -0.11694066326E+03 -0.27626444017E+03 -0.86651207528E+03  0.92545412433E+03  0.12500000000E+03 0.  0.
         25    1    1    2    0    0  0.12298064392E+03  0.18082935500E+03 -0.80319254006E+03  0.84176407076E+03  0.12500000000E+03 0.  0.
</event>
<event>
 5    0  0.5660959E-005  0.4197005E+03  0.7546771E-02  0.1037164E+00
         21   -1    0    0  502  501  0.00000000000E+00  0.00000000000E+00  0.11030756480E+03  0.11030756480E+03  0.00000000000E+00 0. -1.
         21   -1    0    0  501  502 -0.00000000000E+00 -0.00000000000E+00 -0.15968853748E+04  0.15968853748E+04  0.00000000000E+00 0. -1.
         25    1    1    2    0    0  0.11255191196E+03  0.18961614154E+03 -0.18673447472E+03  0.31482848992E+03  0.12500000000E+03 0.  0.
         25    1    1    2    0    0  0.12050565201E+03 -0.12063848949E+03 -0.73611244111E+03  0.76587321618E+03  0.12500000000E+03 0.  0.
         25    1    1    2    0    0 -0.23305756397E+03 -0.68977652046E+02 -0.56373089413E+03  0.62649123346E+03  0.12500000000E+03 0.  0.
</event>
<event>
 5    0  0.5660959E-005  0.2173448E+03  0.7546771E-02  0.1135878E+00
         21   -1    0    0  502  501  0.00000000000E+00  0.00000000000E+00  0.54997818174E+03  0.54997818174E+03  0.00000000000E+00 0.  1.
         21   -1    0    0  501  502 -0.00000000000E+00 -0.00000000000E+00 -0.85892035771E+02  0.85892035771E+02  0.00000000000E+00 0.  1.
         25    1    1    2    0    0 -0.16100068930E+01  0.83639827120E+02  0.12341704434E+03  0.19456356194E+03  0.12500000000E+03 0.  0.
         25    1    1    2    0    0  0.25102323142E+02 -0.54683980470E+02  0.23728386032E+03  0.27486195575E+03  0.12500000000E+03 0.  0.
         25    1    1    2    0    0 -0.23492316249E+02 -0.28955846650E+02  0.10338524131E+03  0.16644469982E+03  0.12500000000E+03 0.  0.
</event>
<event>
 5    0  0.5660959E-005  0.3160294E+03  0.7546771E-02  0.1077491E+00
         21   -1    0    0  502  501  0.00000000000E+00  0.00000000000E+00  0.27679346280E+03  0.27679346280E+03  0.00000000000E+00 0. -1.
         21   -1    0    0  501  502 -0.00000000000E+00 -0.00000000000E+00 -0.36082719890E+03  0.36082719890E+03  0.00000000000E+00 0. -1.
         25    1    1    2    0    0 -0.29838218011E+02  0.83275846121E+02 -0.15540142295E+03  0.21817375657E+03  0.12500000000E+03 0.  0.
         25    1    1    2    0    0  0.10658833618E+02 -0.72003791730E+02  0.19462688606E+03  0.24249284842E+03  0.12500000000E+03 0.  0.
         25    1    1    2    0    0  0.19179384394E+02 -0.11272054391E+02 -0.12325919921E+03  0.17695405671E+03  0.12500000000E+03 0.  0.
</event>
<event>
 5    0  0.5756465E-005  0.3131042E+03  0.7546771E-02  0.1078867E+00
         21   -1    0    0  502  501  0.00000000000E+00  0.00000000000E+00  0.20779839213E+03  0.20779839213E+03  0.00000000000E+00 0. -1.
         21   -1    0    0  501  502 -0.00000000000E+00 -0.00000000000E+00 -0.47177571235E+03  0.47177571235E+03  0.00000000000E+00 0. -1.
         25    1    1    2    0    0  0.85364118990E+02  0.11127678007E+03 -0.89278751705E+02  0.20800300503E+03  0.12500000000E+03 0.  0.
         25    1    1    2    0    0  0.10592339726E+03  0.12949839832E+02 -0.12567730900E+03  0.20689913107E+03  0.12500000000E+03 0.  0.
         25    1    1    2    0    0 -0.19128751625E+03 -0.12422661991E+03 -0.49021259516E+02  0.26467196839E+03  0.12500000000E+03 0.  0.
</event>
<event>
 5    0  0.6156016E-005  0.4068195E+03  0.7546771E-02  0.1041444E+00
         21   -1    0    0  502  501  0.00000000000E+00  0.00000000000E+00  0.35637384648E+03  0.35637384648E+03  0.00000000000E+00 0. -1.
         21   -1    0    0  501  502 -0.00000000000E+00 -0.00000000000E+00 -0.46440591568E+03  0.46440591568E+03  0.00000000000E+00 0. -1.
         25    1    1    2    0    0 -0.49066821637E+02  0.14250549519E+03 -0.30234594904E+03  0.36021305091E+03  0.12500000000E+03 0.  0.
         25    1    1    2    0    0  0.10152491847E+03  0.59678035757E+02  0.56245836984E+02  0.18071350586E+03  0.12500000000E+03 0.  0.
         25    1    1    2    0    0 -0.52458096833E+02 -0.20218353095E+03  0.13806804286E+03  0.27985320539E+03  0.12500000000E+03 0.  0.
</event>
<event>
 5    0  0.6011310E-005  0.3080975E+03  0.7546771E-02  0.1081261E+00
         21   -1    0    0  502  501  0.00000000000E+00  0.00000000000E+00  0.18254461415E+03  0.18254461415E+03  0.00000000000E+00 0. -1.
         21   -1    0    0  501  502 -0.00000000000E+00 -0.00000000000E+00 -0.52000482211E+03  0.52000482211E+03  0.00000000000E+00 0. -1.
         25    1    1    2    0    0 -0.62625007951E+02  0.11394836962E+03 -0.83252324482E+02  0.19865062822E+03  0.12500000000E+03 0.  0.
         25    1    1    2    0    0  0.13631441970E+03 -0.85346337694E+02 -0.28745871877E+03  0.35231113149E+03  0.12500000000E+03 0.  0.
         25    1    1    2    0    0 -0.73689411748E+02 -0.28602031927E+02  0.33250835290E+02  0.15158767655E+03  0.12500000000E+03 0.  0.
</event>
<event>
 5    0  0.5660959E-005  0.2746699E+03  0.7546771E-02  0.1098636E+00
         21   -1    0    0  502  501  0.00000000000E+00  0.00000000000E+00  0.12170189424E+03  0.12170189424E+03  0.00000000000E+00 0. -1.
         21   -1    0    0  501  502 -0.00000000000E+00 -0.00000000000E+00 -0.61990449808E+03  0.61990449808E+03  0.00000000000E+00 0. -1.
         25    1    1    2    0    0 -0.11569028330E+02 -0.14312642525E+02 -0.39282946646E+02  0.13231343110E+03  0.12500000000E+03 0.  0.
         25    1    1    2    0    0 -0.13119300146E+03  0.94107962736E+01 -0.33975048667E+03  0.38516952101E+03  0.12500000000E+03 0.  0.
         25    1    1    2    0    0  0.14276202979E+03  0.49018462510E+01 -0.11916917053E+03  0.22412344021E+03  0.12500000000E+03 0.  0.
</event>
<event>
 5    0  0.5660959E-005  0.2927323E+03  0.7546771E-02  0.1088931E+00
         21   -1    0    0  502  501  0.00000000000E+00  0.00000000000E+00  0.80002412980E+02  0.80002412980E+02  0.00000000000E+00 0. -1.
         21   -1    0    0  501  502 -0.00000000000E+00 -0.00000000000E+00 -0.10711203052E+04  0.10711203052E+04  0.00000000000E+00 0. -1.
         25    1    1    2    0    0  0.56599520426E+02  0.92955746842E+02 -0.11213969445E+03  0.20011143809E+03  0.12500000000E+03 0.  0.
         25    1    1    2    0    0 -0.12432211874E+03  0.25357322644E+02 -0.43133606887E+03  0.46666346261E+03  0.12500000000E+03 0.  0.
         25    1    1    2    0    0  0.67722598319E+02 -0.11831306949E+03 -0.44764212887E+03  0.48434781746E+03  0.12500000000E+03 0.  0.
</event>
<event>
 5    0  0.5660959E-005  0.3114294E+03  0.7546771E-02  0.1079663E+00
         21   -1    0    0  502  501  0.00000000000E+00  0.00000000000E+00  0.56706605312E+03  0.56706605312E+03  0.00000000000E+00 0. -1.
         21   -1    0    0  501  502 -0.00000000000E+00 -0.00000000000E+00 -0.17103525032E+03  0.17103525032E+03  0.00000000000E+00 0. -1.
         25    1    1    2    0    0 -0.82143193765E+01 -0.17026276588E+03  0.33537427176E+02  0.21402486657E+03  0.12500000000E+03 0.  0.
         25    1    1    2    0    0 -0.90518915337E+02  0.60281815168E+02  0.86330400012E+02  0.18683016148E+03  0.12500000000E+03 0.  0.
         25    1    1    2    0    0  0.98733234713E+02  0.10998095072E+03  0.27616297561E+03  0.33724627538E+03  0.12500000000E+03 0.  0.
</event>
<event>
 5    0  0.5660959E-005  0.3208880E+03  0.7546771E-02  0.1075241E+00
         21   -1    0    0  502  501  0.00000000000E+00  0.00000000000E+00  0.36247002669E+03  0.36247002669E+03  0.00000000000E+00 0.  1.
         21   -1    0    0  501  502 -0.00000000000E+00 -0.00000000000E+00 -0.28407619937E+03  0.28407619937E+03  0.00000000000E+00 0.  1.
         25    1    1    2    0    0 -0.64634734379E+02  0.10485562844E+03  0.10934888354E+02  0.17583208890E+03  0.12500000000E+03 0.  0.
         25    1    1    2    0    0  0.54879906856E+02 -0.33801565012E+02  0.21984130309E+03  0.26097806138E+03  0.12500000000E+03 0.  0.
         25    1    1    2    0    0  0.97548275235E+01 -0.71054063425E+02 -0.15238236413E+03  0.20973607579E+03  0.12500000000E+03 0.  0.
</event>
<event>
 5    0  0.5660959E-005  0.3358768E+03  0.7546771E-02  0.1068566E+00
         21   -1    0    0  502  501  0.00000000000E+00  0.00000000000E+00  0.22246955842E+04  0.22246955842E+04  0.00000000000E+00 0.  1.
         21   -1    0    0  501  502 -0.00000000000E+00 -0.00000000000E+00 -0.50709509850E+02  0.50709509850E+02  0.00000000000E+00 0.  1.
         25    1    1    2    0    0  0.18953244307E+02  0.82979043763E+02  0.94283065827E+02  0.17821067217E+03  0.12500000000E+03 0.  0.
         25    1    1    2    0    0 -0.33658411086E+02 -0.49657820950E+02  0.11805279656E+04  0.11886421099E+04  0.12500000000E+03 0.  0.
         25    1    1    2    0    0  0.14705166779E+02 -0.33321222814E+02  0.89917504285E+03  0.90855231192E+03  0.12500000000E+03 0.  0.
</event>
<event>
 5    0  0.5660959E-005  0.2593902E+03  0.7546771E-02  0.1107510E+00
         21   -1    0    0  502  501  0.00000000000E+00  0.00000000000E+00  0.19259281622E+03  0.19259281622E+03  0.00000000000E+00 0.  1.
         21   -1    0    0  501  502 -0.00000000000E+00 -0.00000000000E+00 -0.34935511964E+03  0.34935511964E+03  0.00000000000E+00 0.  1.
         25    1    1    2    0    0 -0.11644718034E+02 -0.83005572284E+02 -0.15571719696E+03  0.21656031474E+03  0.12500000000E+03 0.  0.
         25    1    1    2    0    0 -0.19343001279E+00  0.13755864853E+03 -0.20963187739E+02  0.18704778652E+03  0.12500000000E+03 0.  0.
         25    1    1    2    0    0  0.11838148047E+02 -0.54553076246E+02  0.19918081287E+02  0.13833983461E+03  0.12500000000E+03 0.  0.
</event>
<event>
 5    0  0.5660959E-005  0.3111416E+03  0.7546771E-02  0.1079800E+00
         21   -1    0    0  502  501  0.00000000000E+00  0.00000000000E+00  0.22884769712E+03  0.22884769712E+03  0.00000000000E+00 0. -1.
         21   -1    0    0  501  502 -0.00000000000E+00 -0.00000000000E+00 -0.42302858540E+03  0.42302858540E+03  0.00000000000E+00 0. -1.
         25    1    1    2    0    0 -0.23139780842E+01  0.10840390294E+03 -0.69841789535E+02  0.17960967745E+03  0.12500000000E+03 0.  0.
         25    1    1    2    0    0  0.16752123447E+03 -0.10609837734E+03 -0.77456873776E+01  0.23453192820E+03  0.12500000000E+03 0.  0.
         25    1    1    2    0    0 -0.16520725639E+03 -0.23055255954E+01 -0.11659341136E+03  0.23773467687E+03  0.12500000000E+03 0.  0.
</event>
<event>
 5    0  0.5660959E-005  0.2171979E+03  0.7546771E-02  0.1135990E+00
         21   -1    0    0  502  501  0.00000000000E+00  0.00000000000E+00  0.68658682300E+02  0.68658682300E+02  0.00000000000E+00 0. -1.
         21   -1    0    0  501  502 -0.00000000000E+00 -0.00000000000E+00 -0.68709339580E+03  0.68709339580E+03  0.00000000000E+00 0. -1.
         25    1    1    2    0    0 -0.46382991415E+02 -0.58368668497E+02 -0.13613677320E+03  0.19929000068E+03  0.12500000000E+03 0.  0.
         25    1    1    2    0    0  0.47470161410E+02  0.59699623682E+02 -0.31725438622E+03  0.34941781132E+03  0.12500000000E+03 0.  0.
         25    1    1    2    0    0 -0.10871699954E+01 -0.13309551848E+01 -0.16504355407E+03  0.20704426609E+03  0.12500000000E+03 0.  0.
</event>
<event>
 5    0  0.5660959E-005  0.4000854E+03  0.7546771E-02  0.1043750E+00
         21   -1    0    0  502  501  0.00000000000E+00  0.00000000000E+00  0.23421714510E+04  0.23421714510E+04  0.00000000000E+00 0.  1.
         21   -1    0    0  501  502 -0.00000000000E+00 -0.00000000000E+00 -0.68341865608E+02  0.68341865608E+02  0.00000000000E+00 0.  1.
         25    1    1    2    0    0  0.18807602642E+03 -0.36047489533E+02  0.55468532075E+03  0.59997734813E+03  0.12500000000E+03 0.  0.
         25    1    1    2    0    0 -0.26014814399E+03 -0.65052471201E+02  0.51799207494E+03  0.59653136593E+03  0.12500000000E+03 0.  0.
         25    1    1    2    0    0  0.72072117564E+02  0.10109996073E+03  0.12011521897E+04  0.12140046025E+04  0.12500000000E+03 0.  0.
</event>
<event>
 5    0  0.5660959E-005  0.3018509E+03  0.7546771E-02  0.1084319E+00
         21   -1    0    0  502  501  0.00000000000E+00  0.00000000000E+00  0.10349888126E+03  0.10349888126E+03  0.00000000000E+00 0.  1.
         21   -1    0    0  501  502 -0.00000000000E+00 -0.00000000000E+00 -0.88033761483E+03  0.88033761483E+03  0.00000000000E+00 0.  1.
         25    1    1    2    0    0  0.53700591612E+02 -0.18663718481E+03 -0.22291801383E+03  0.32099008269E+03  0.12500000000E+03 0.  0.
         25    1    1    2    0    0 -0.22968259413E+02  0.62326893292E+02 -0.95550755466E+02  0.17078386762E+03  0.12500000000E+03 0.  0.
         25    1    1    2    0    0 -0.30732332199E+02  0.12431029152E+03 -0.45836996427E+03  0.49206254578E+03  0.12500000000E+03 0.  0.
</event>
<event>
 5    0  0.5660959E-005  0.2697500E+03  0.7546771E-02  0.1101423E+00
         21   -1    0    0  502  501  0.00000000000E+00  0.00000000000E+00  0.43801129510E+03  0.43801129510E+03  0.00000000000E+00 0. -1.
         21   -1    0    0  501  502 -0.00000000000E+00 -0.00000000000E+00 -0.16612603690E+03  0.16612603690E+03  0.00000000000E+00 0. -1.
         25    1    1    2    0    0 -0.13792192741E+03 -0.63964733141E+02  0.94939382106E+02  0.21852329720E+03  0.12500000000E+03 0.  0.
         25    1    1    2    0    0  0.20214105265E+02  0.25798096085E+02  0.16463695521E+03  0.20929519544E+03  0.12500000000E+03 0.  0.
         25    1    1    2    0    0  0.11770782215E+03  0.38166637056E+02  0.12308920885E+02  0.17631883936E+03  0.12500000000E+03 0.  0.
</event>
<event>
 5    0  0.5660959E-005  0.3081731E+03  0.7546771E-02  0.1081225E+00
         21   -1    0    0  502  501  0.00000000000E+00  0.00000000000E+00  0.18435055416E+04  0.18435055416E+04  0.00000000000E+00 0.  1.
         21   -1    0    0  501  502 -0.00000000000E+00 -0.00000000000E+00 -0.51516347540E+02  0.51516347540E+02  0.00000000000E+00 0.  1.
         25    1    1    2    0    0  0.51400752174E+02 -0.82762405217E+02  0.18413406677E+03  0.24294445371E+03  0.12500000000E+03 0.  0.
         25    1    1    2    0    0 -0.42915762628E+02 -0.75561097384E+02  0.41051609944E+03  0.43783525442E+03  0.12500000000E+03 0.  0.
         25    1    1    2    0    0 -0.84849895458E+01  0.15832350260E+03  0.11973390278E+04  0.12142421810E+04  0.12500000000E+03 0.  0.
</event>
<event>
 5    0  0.5660959E-005  0.4384715E+03  0.7546771E-02  0.1031217E+00
         21   -1    0    0  502  501  0.00000000000E+00  0.00000000000E+00  0.14652882869E+03  0.14652882869E+03  0.00000000000E+00 0.  1.
         21   -1    0    0  501  502 -0.00000000000E+00 -0.00000000000E+00 -0.13120783019E+04  0.13120783019E+04  0.00000000000E+00 0.  1.
         25    1    1    2    0    0  0.24801088460E+03 -0.28512515817E+03 -0.46764315006E+03  0.61410167766E+03  0.12500000000E+03 0.  0.
         25    1    1    2    0    0 -0.62384866885E+02  0.16348348044E+03 -0.25489828066E+03  0.33349190916E+03  0.12500000000E+03 0.  0.
         25    1    1    2    0    0 -0.18562601772E+03  0.12164167773E+03 -0.44300804248E+03  0.51101354377E+03  0.12500000000E+03 0.  0.
</event>
<event>
 5    0  0.5660959E-005  0.3595726E+03  0.7546771E-02  0.1058753E+00
         21   -1    0    0  502  501  0.00000000000E+00  0.00000000000E+00  0.93654186288E+03  0.93654186288E+03  0.00000000000E+00 0. -1.
         21   -1    0    0  501  502 -0.00000000000E+00 -0.00000000000E+00 -0.13805303509E+03  0.13805303509E+03  0.00000000000E+00 0. -1.
         25    1    1    2    0    0  0.21114110933E+03  0.76083494672E+01  0.66973505395E+03  0.71330813644E+03  0.12500000000E+03 0.  0.
         25    1    1    2    0    0 -0.15515612729E+03 -0.14052254253E+02  0.87801117680E+02  0.21818553103E+03  0.12500000000E+03 0.  0.
         25    1    1    2    0    0 -0.55984982037E+02  0.64439047854E+01  0.40952656158E+02  0.14310123049E+03  0.12500000000E+03 0.  0.
</event>
<event>
 5    0  0.5660959E-005  0.3371831E+03  0.7546771E-02  0.1068002E+00
         21   -1    0    0  502  501  0.00000000000E+00  0.00000000000E+00  0.10791995860E+03  0.10791995860E+03  0.00000000000E+00 0.  1.
         21   -1    0    0  501  502 -0.00000000000E+00 -0.00000000000E+00 -0.10534886445E+04  0.10534886445E+04  0.00000000000E+00 0.  1.
         25    1    1    2    0    0 -0.15162740417E+03 -0.65535137418E+02 -0.22962029324E+03  0.30925103557E+03  0.12500000000E+03 0.  0.
         25    1    1    2    0    0  0.10960447326E+03  0.10945099494E+03 -0.68008083679E+03  0.70860962837E+03  0.12500000000E+03 0.  0.
         25    1    1    2    0    0  0.42022930911E+02 -0.43915857523E+02 -0.35867555816E+02  0.14354793912E+03  0.12500000000E+03 0.  0.
</event>
<event>
 5    0  0.5660959E-005  0.3782936E+03  0.7546771E-02  0.1051566E+00
         21   -1    0    0  502  501  0.00000000000E+00  0.00000000000E+00  0.45090767832E+03  0.45090767832E+03  0.00000000000E+00 0.  1.
         21   -1    0    0  501  502 -0.00000000000E+00 -0.00000000000E+00 -0.31737319419E+03  0.31737319419E+03  0.00000000000E+00 0.  1.
         25    1    1    2    0    0 -0.87282041455E+02  0.11863750346E+03 -0.97999407363E+02  0.21661462515E+03  0.12500000000E+03 0.  0.
         25    1    1    2    0    0  0.14921042583E+03  0.11309766648E+03  0.66196960867E+02  0.23465266026E+03  0.12500000000E+03 0.  0.
         25    1    1    2    0    0 -0.61928384376E+02 -0.23173516994E+03  0.16533693062E+03  0.31701358710E+03  0.12500000000E+03 0.  0.
</event>
<event>
 5    0  0.5660959E-005  0.3234867E+03  0.7546771E-02  0.1074056E+00
         21   -1    0    0  502  501  0.00000000000E+00  0.00000000000E+00  0.21572778019E+04  0.21572778019E+04  0.00000000000E+00 0. -1.
         21   -1    0    0  501  502 -0.00000000000E+00 -0.00000000000E+00 -0.48507274193E+02  0.48507274193E+02  0.00000000000E+00 0. -1.
         25    1    1    2    0    0  0.15383731519E+03 -0.16093912665E+03  0.69390577922E+03  0.73938998672E+03  0.12500000000E+03 0.  0.
         25    1    1    2    0    0  0.17958099395E+02  0.23168192790E+02  0.57651070951E+03  0.59063428335E+03  0.12500000000E+03 0.  0.
         25    1    1    2    0    0 -0.17179541459E+03  0.13777093386E+03  0.83835403902E+03  0.87576080606E+03  0.12500000000E+03 0.  0.
</event>
<event>
 5    0  0.5660959E-005  0.2885512E+03  0.7546771E-02  0.1091108E+00
         21   -1    0    0  502  501  0.00000000000E+00  0.00000000000E+00  0.37714788027E+03  0.37714788027E+03  0.00000000000E+00 0. -1.
         21   -1    0    0  501  502 -0.00000000000E+00 -0.00000000000E+00 -0.22076692143E+03  0.22076692143E+03  0.00000000000E+00 0. -1.
         25    1    1    2    0    0  0.84051325541E+02  0.13202646380E+02  0.82794606300E+02  0.17239165301E+03  0.12500000000E+03 0.  0.
         25    1    1    2    0    0 -0.20076287351E+03  0.59042624942E+01  0.88990600998E+02  0.25275466120E+03  0.12500000000E+03 0.  0.
         25    1    1    2    0    0  0.11671154796E+03 -0.19106908874E+02 -0.15404248460E+02  0.17276848748E+03  0.12500000000E+03 0.  0.
</event>
<event>
 5    0  0.5660959E-005  0.2400799E+03  0.7546771E-02  0.1119740E+00
         21   -1    0    0  502  501  0.00000000000E+00  0.00000000000E+00  0.24893934726E+03  0.24893934726E+03  0.00000000000E+00 0.  1.
         21   -1    0    0  501  502 -0.00000000000E+00 -0.00000000000E+00 -0.23153575221E+03  0.23153575221E+03  0.00000000000E+00 0.  1.
         25    1    1    2    0    0  0.45147996310E+01 -0.63296794307E+02 -0.23490696331E+02  0.14213965105E+03  0.12500000000E+03 0.  0.
         25    1    1    2    0    0  0.53212158072E+02  0.11504884300E+03  0.64527392666E+02  0.18935827008E+03  0.12500000000E+03 0.  0.
         25    1    1    2    0    0 -0.57726957703E+02 -0.51752048696E+02 -0.23633101283E+02  0.14897717834E+03  0.12500000000E+03 0.  0.
</event>
<event>
 5    0  0.5660959E-005  0.3307071E+03  0.7546771E-02  0.1070824E+00
         21   -1    0    0  502  501  0.00000000000E+00  0.00000000000E+00  0.90542054677E+03  0.90542054677E+03  0.00000000000E+00 0.  1.
         21   -1    0    0  501  502 -0.00000000000E+00 -0.00000000000E+00 -0.12079157754E+03  0.12079157754E+03  0.00000000000E+00 0.  1.
         25    1    1    2    0    0 -0.17788387875E+03  0.16143829596E+03  0.24235955186E+03  0.36341181888E+03  0.12500000000E+03 0.  0.
         25    1    1    2    0    0  0.10812747905E+03 -0.17078315878E+03  0.33870393249E+03  0.41376780074E+03  0.12500000000E+03 0.  0.
         25    1    1    2    0    0  0.69756399695E+02  0.93448628106E+01  0.20356548488E+03  0.24903250469E+03  0.12500000000E+03 0.  0.
</event>
<event>
 5    0  0.5660959E-005  0.3033411E+03  0.7546771E-02  0.1083582E+00
         21   -1    0    0  502  501  0.00000000000E+00  0.00000000000E+00  0.15118804432E+04  0.15118804432E+04  0.00000000000E+00 0. -1.
         21   -1    0    0  501  502 -0.00000000000E+00 -0.00000000000E+00 -0.60861837700E+02  0.60861837700E+02  0.00000000000E+00 0. -1.
         25    1    1    2    0    0 -0.19136561542E+03 -0.10994545797E+03  0.58570977574E+03  0.63827090165E+03  0.12500000000E+03 0.  0.
         25    1    1    2    0    0  0.60298143715E+02  0.61386804976E+02  0.51804757823E+03  0.53981709798E+03  0.12500000000E+03 0.  0.
         25    1    1    2    0    0  0.13106747170E+03  0.48558652992E+02  0.34726125157E+03  0.39465428132E+03  0.12500000000E+03 0.  0.
</event>
<event>
 5    0  0.5660959E-005  0.2877940E+03  0.7546771E-02  0.1091507E+00
         21   -1    0    0  502  501  0.00000000000E+00  0.00000000000E+00  0.62726129385E+03  0.62726129385E+03  0.00000000000E+00 0. -1.
         21   -1    0    0  501  502 -0.00000000000E+00 -0.00000000000E+00 -0.13204290237E+03  0.13204290237E+03  0.00000000000E+00 0. -1.
         25    1    1    2    0    0  0.14208404816E+03 -0.30044405221E+02  0.11516370235E+03  0.22355809394E+03  0.12500000000E+03 0.  0.
         25    1    1    2    0    0 -0.44609906058E+02 -0.47384070104E+02  0.31955108468E+03  0.34924660276E+03  0.12500000000E+03 0.  0.
         25    1    1    2    0    0 -0.97474142104E+02  0.77428475325E+02  0.60503604456E+02  0.18649949952E+03  0.12500000000E+03 0.  0.
</event>
<event>
 5    0  0.5660959E-005  0.3903306E+03  0.7546771E-02  0.1047180E+00
         21   -1    0    0  502  501  0.00000000000E+00  0.00000000000E+00  0.87125296385E+03  0.87125296385E+03  0.00000000000E+00 0. -1.
         21   -1    0    0  501  502 -0.00000000000E+00 -0.00000000000E+00 -0.17487228492E+03  0.17487228492E+03  0.00000000000E+00 0. -1.
         25    1    1    2    0    0 -0.10893596949E+03  0.22043815825E+03  0.56427798879E+03  0.62808811141E+03  0.12500000000E+03 0.  0.
         25    1    1    2    0    0 -0.36420814501E+02 -0.63259087871E+02  0.77472294556E+02  0.16418021912E+03  0.12500000000E+03 0.  0.
         25    1    1    2    0    0  0.14535678399E+03 -0.15717907038E+03  0.54630395588E+02  0.25385691824E+03  0.12500000000E+03 0.  0.
</event>
<event>
 5    0  0.5660959E-005  0.2109804E+03  0.7546771E-02  0.1140792E+00
         21   -1    0    0  502  501  0.00000000000E+00  0.00000000000E+00  0.45336284166E+03  0.45336284166E+03  0.00000000000E+00 0. -1.
         21   -1    0    0  501  502 -0.00000000000E+00 -0.00000000000E+00 -0.98183428229E+02  0.98183428229E+02  0.00000000000E+00 0. -1.
         25    1    1    2    0    0  0.60014105753E+01 -0.11501089390E+02  0.22070261486E+03  0.25397428254E+03  0.12500000000E+03 0.  0.
         25    1    1    2    0    0 -0.23002950271E+02 -0.33571369651E+02  0.68971815619E+02  0.14845296875E+03  0.12500000000E+03 0.  0.
         25    1    1    2    0    0  0.17001539695E+02  0.45072459041E+02  0.65504982955E+02  0.14911901860E+03  0.12500000000E+03 0.  0.
</event>
<event>
 5    0  0.5660959E-005  0.2205912E+03  0.7546771E-02  0.1133443E+00
         21   -1    0    0  502  501  0.00000000000E+00  0.00000000000E+00  0.58058012210E+02  0.58058012210E+02  0.00000000000E+00 0.  1.
         21   -1    0    0  501  502 -0.00000000000E+00 -0.00000000000E+00 -0.83813549376E+03  0.83813549376E+03  0.00000000000E+00 0.  1.
         25    1    1    2    0    0  0.16050503566E+02  0.35902275584E+02 -0.25583433824E+03  0.28744182138E+03  0.12500000000E+03 0.  0.
         25    1    1    2    0    0  0.59759395809E+02  0.38331830923E+02 -0.27704704890E+03  0.31212270336E+03  0.12500000000E+03 0.  0.
         25    1    1    2    0    0 -0.75809899375E+02 -0.74234106507E+02 -0.24719609442E+03  0.29662898124E+03  0.12500000000E+03 0.  0.
</event>
<event>
 5    0  0.5660959E-005  0.2264701E+03  0.7546771E-02  0.1129149E+00
         21   -1    0    0  502  501  0.00000000000E+00  0.00000000000E+00  0.16675593462E+03  0.16675593462E+03  0.00000000000E+00 0.  1.
         21   -1    0    0  501  502 -0.00000000000E+00 -0.00000000000E+00 -0.30756744237E+03  0.30756744237E+03  0.00000000000E+00 0.  1.
         25    1    1    2    0    0  0.60793966530E+02 -0.48513986039E+02 -0.42764338339E+02  0.15330786621E+03  0.12500000000E+03 0.  0.
         25    1    1    2    0    0 -0.45858939291E+02  0.56786284495E+02 -0.12587072921E+03  0.19182326473E+03  0.12500000000E+03 0.  0.
         25    1    1    2    0    0 -0.14935027239E+02 -0.82722984566E+01  0.27823559800E+02  0.12919224605E+03  0.12500000000E+03 0.  0.
</event>
<event>
 5    0  0.5660959E-005  0.2895938E+03  0.7546771E-02  0.1090561E+00
         21   -1    0    0  502  501  0.00000000000E+00  0.00000000000E+00  0.17954327871E+03  0.17954327871E+03  0.00000000000E+00 0. -1.
         21   -1    0    0  501  502 -0.00000000000E+00 -0.00000000000E+00 -0.46709962043E+03  0.46709962043E+03  0.00000000000E+00 0. -1.
         25    1    1    2    0    0 -0.52167474202E+02  0.17733764147E+03 -0.16715129726E+03  0.27880932664E+03  0.12500000000E+03 0.  0.
         25    1    1    2    0    0  0.68657854072E+02 -0.16386501894E+03 -0.50447793519E+02  0.22301485428E+03  0.12500000000E+03 0.  0.
         25    1    1    2    0    0 -0.16490379870E+02 -0.13472622532E+02 -0.69957250939E+02  0.14481871821E+03  0.12500000000E+03 0.  0.
</event>
<event>
 5    0  0.5660959E-005  0.2928792E+03  0.7546771E-02  0.1088855E+00
         21   -1    0    0  502  501  0.00000000000E+00  0.00000000000E+00  0.30356113971E+03  0.30356113971E+03  0.00000000000E+00 0. -1.
         21   -1    0    0  501  502 -0.00000000000E+00 -0.00000000000E+00 -0.28257315515E+03  0.28257315515E+03  0.00000000000E+00 0. -1.
         25    1    1    2    0    0  0.11211789902E+03 -0.65602326152E+02 -0.32602852743E+02  0.18319943909E+03  0.12500000000E+03 0.  0.
         25    1    1    2    0    0 -0.17506665276E+03 -0.16791132191E+02 -0.33974153503E+02  0.21842508587E+03  0.12500000000E+03 0.  0.
         25    1    1    2    0    0  0.62948753744E+02  0.82393458343E+02  0.87564990804E+02  0.18450976990E+03  0.12500000000E+03 0.  0.
</event>
<event>
 5    0  0.5665159E-005  0.2981892E+03  0.7546771E-02  0.1086149E+00
         21   -1    0    0  502  501  0.00000000000E+00  0.00000000000E+00  0.16441817476E+03  0.16441817476E+03  0.00000000000E+00 0.  1.
         21   -1    0    0  501  502 -0.00000000000E+00 -0.00000000000E+00 -0.54079657462E+03  0.54079657462E+03  0.00000000000E+00 0.  1.
         25    1    1    2    0    0 -0.13380522861E+03  0.16148787603E+03 -0.12741954007E+03  0.27539591954E+03  0.12500000000E+03 0.  0.
         25    1    1    2    0    0  0.40307267406E+02 -0.12462965385E+03 -0.83517370916E+02  0.19939252160E+03  0.12500000000E+03 0.  0.
         25    1    1    2    0    0  0.93497961209E+02 -0.36858222185E+02 -0.16544148887E+03  0.23042630824E+03  0.12500000000E+03 0.  0.
</event>
<event>
 5    0  0.5660959E-005  0.2402840E+03  0.7546771E-02  0.1119604E+00
         21   -1    0    0  502  501  0.00000000000E+00  0.00000000000E+00  0.17826297058E+03  0.17826297058E+03  0.00000000000E+00 0.  1.
         21   -1    0    0  501  502 -0.00000000000E+00 -0.00000000000E+00 -0.32388334639E+03  0.32388334639E+03  0.00000000000E+00 0.  1.
         25    1    1    2    0    0  0.89116054846E+02 -0.73493063862E+01 -0.14084024966E+02  0.15433419354E+03  0.12500000000E+03 0.  0.
         25    1    1    2    0    0 -0.11405916574E+03 -0.45079641579E+02 -0.11380645606E+03  0.20885060885E+03  0.12500000000E+03 0.  0.
         25    1    1    2    0    0  0.24943110892E+02  0.52428947965E+02 -0.17729894785E+02  0.13896151458E+03  0.12500000000E+03 0.  0.
</event>
<event>
 5    0  0.5660959E-005  0.5472325E+03  0.7546771E-02  0.1002137E+00
         21   -1    0    0  502  501  0.00000000000E+00  0.00000000000E+00  0.38388886647E+03  0.38388886647E+03  0.00000000000E+00 0. -1.
         21   -1    0    0  501  502 -0.00000000000E+00 -0.00000000000E+00 -0.78007847249E+03  0.78007847249E+03  0.00000000000E+00 0. -1.
         25    1    1    2    0    0  0.29841111926E+03 -0.27935950404E+03 -0.99547492707E+01  0.42756873790E+03  0.12500000000E+03 0.  0.
         25    1    1    2    0    0  0.39165607331E+02 -0.40117607979E+02 -0.13957680038E+03  0.19557620119E+03  0.12500000000E+03 0.  0.
         25    1    1    2    0    0 -0.33757672659E+03  0.31947711202E+03 -0.24665805637E+03  0.54082239988E+03  0.12500000000E+03 0.  0.
</event>
<event>
 5    0  0.5660959E-005  0.2924752E+03  0.7546771E-02  0.1089064E+00
         21   -1    0    0  502  501  0.00000000000E+00  0.00000000000E+00  0.13378299099E+04  0.13378299099E+04  0.00000000000E+00 0. -1.
         21   -1    0    0  501  502 -0.00000000000E+00 -0.00000000000E+00 -0.63940653676E+02  0.63940653676E+02  0.00000000000E+00 0. -1.
         25    1    1    2    0    0 -0.46956700761E+02  0.20789520679E+02  0.93237082801E+03  0.94211331422E+03  0.12500000000E+03 0.  0.
         25    1    1    2    0    0 -0.24624847859E+02  0.42053293103E+02  0.84993812429E+02  0.15882005775E+03  0.12500000000E+03 0.  0.
         25    1    1    2    0    0  0.71581548620E+02 -0.62842813781E+02  0.25652461579E+03  0.30083719161E+03  0.12500000000E+03 0.  0.
</event>
<event>
 5    0  0.5660959E-005  0.3096197E+03  0.7546771E-02  0.1080528E+00
         21   -1    0    0  502  501  0.00000000000E+00  0.00000000000E+00  0.90135626402E+03  0.90135626402E+03  0.00000000000E+00 0.  1.
         21   -1    0    0  501  502 -0.00000000000E+00 -0.00000000000E+00 -0.10635570120E+03  0.10635570120E+03  0.00000000000E+00 0.  1.
         25    1    1    2    0    0  0.14285313165E+03 -0.10315597414E+02  0.18516654949E+03  0.26537724059E+03  0.12500000000E+03 0.  0.
         25    1    1    2    0    0  0.39782111148E+02  0.10431184756E+03  0.15712470516E+03  0.22973191089E+03  0.12500000000E+03 0.  0.
         25    1    1    2    0    0 -0.18263524280E+03 -0.93996250148E+02  0.45270930817E+03  0.51260281374E+03  0.12500000000E+03 0.  0.
</event>
<event>
 5    0  0.6850315E-005  0.2805034E+03  0.7546771E-02  0.1095414E+00
         21   -1    0    0  502  501  0.00000000000E+00  0.00000000000E+00  0.44628648892E+03  0.44628648892E+03  0.00000000000E+00 0. -1.
         21   -1    0    0  501  502 -0.00000000000E+00 -0.00000000000E+00 -0.17630409564E+03  0.17630409564E+03  0.00000000000E+00 0. -1.
         25    1    1    2    0    0  0.11223296381E+03 -0.11927841338E+03  0.24314559461E+03  0.31869791063E+03  0.12500000000E+03 0.  0.
         25    1    1    2    0    0 -0.62490819595E+02  0.56179543522E+02  0.36512888723E+02  0.15498204634E+03  0.12500000000E+03 0.  0.
         25    1    1    2    0    0 -0.49742144215E+02  0.63098869856E+02 -0.96760900533E+01  0.14891062758E+03  0.12500000000E+03 0.  0.
</event>
<event>
 5    0  0.5660959E-005  0.2714477E+03  0.7546771E-02  0.1100454E+00
         21   -1    0    0  502  501  0.00000000000E+00  0.00000000000E+00  0.80277738310E+03  0.80277738310E+03  0.00000000000E+00 0.  1.
         21   -1    0    0  501  502 -0.00000000000E+00 -0.00000000000E+00 -0.91786166491E+02  0.91786166491E+02  0.00000000000E+00 0.  1.
         25    1    1    2    0    0 -0.31044104396E+02  0.41700533120E+02  0.13989022621E+03  0.19467138020E+03  0.12500000000E+03 0.  0.
         25    1    1    2    0    0 -0.13025718386E+03 -0.74173468872E+02  0.23658521931E+03  0.30670214122E+03  0.12500000000E+03 0.  0.
         25    1    1    2    0    0  0.16130128825E+03  0.32472935752E+02  0.33451577109E+03  0.39319002817E+03  0.12500000000E+03 0.  0.
</event>
<event>
 5    0  0.5660959E-005  0.2806194E+03  0.7546771E-02  0.1095351E+00
         21   -1    0    0  502  501  0.00000000000E+00  0.00000000000E+00  0.40988403991E+02  0.40988403991E+02  0.00000000000E+00 0. -1.
         21   -1    0    0  501  502 -0.00000000000E+00 -0.00000000000E+00 -0.19212080308E+04  0.19212080308E+04  0.00000000000E+00 0. -1.
         25    1    1    2    0    0  0.81919121862E+02 -0.74490604925E+01 -0.26366903025E+03  0.30317089000E+03  0.12500000000E+03 0.  0.
         25    1    1    2    0    0 -0.66134921052E+02 -0.73909618209E+02 -0.36284515996E+03  0.39638121745E+03  0.12500000000E+03 0.  0.
         25    1    1    2    0    0 -0.15784200810E+02  0.81358678702E+02 -0.12537054366E+04  0.12626443274E+04  0.12500000000E+03 0.  0.
</event>
<event>
 5    0  0.5660959E-005  0.5856913E+03  0.7546771E-02  0.9935545E-01
         21   -1    0    0  502  501  0.00000000000E+00  0.00000000000E+00  0.49159304956E+03  0.49159304956E+03  0.00000000000E+00 0. -1.
         21   -1    0    0  501  502 -0.00000000000E+00 -0.00000000000E+00 -0.69780146074E+03  0.69780146074E+03  0.00000000000E+00 0. -1.
         25    1    1    2    0    0  0.12293436108E+03 -0.16261677234E+03 -0.55430273236E+03  0.60368335316E+03  0.12500000000E+03 0.  0.
         25    1    1    2    0    0 -0.11479906767E+03  0.80451759668E+02 -0.19435408628E+02  0.18882279174E+03  0.12500000000E+03 0.  0.
         25    1    1    2    0    0 -0.81352934043E+01  0.82165012675E+02  0.36752972980E+03  0.39688836540E+03  0.12500000000E+03 0.  0.
</event>
<event>
 5    0  0.5660959E-005  0.2471765E+03  0.7546771E-02  0.1115102E+00
         21   -1    0    0  502  501  0.00000000000E+00  0.00000000000E+00  0.24630804914E+03  0.24630804914E+03  0.00000000000E+00 0. -1.
         21   -1    0    0  501  502 -0.00000000000E+00 -0.00000000000E+00 -0.24804793645E+03  0.24804793645E+03  0.00000000000E+00 0. -1.
         25    1    1    2    0    0 -0.31507910150E+02  0.36545704241E+02  0.33270426520E+02  0.13805889389E+03  0.12500000000E+03 0.  0.
         25    1    1    2    0    0  0.14337817211E+02  0.37878162211E+02  0.93629236875E+02  0.16134361522E+03  0.12500000000E+03 0.  0.
         25    1    1    2    0    0  0.17170092939E+02 -0.74423866452E+02 -0.12863955070E+03  0.19495347649E+03  0.12500000000E+03 0.  0.
</event>
<event>
 5    0  0.5660959E-005  0.2504564E+03  0.7546771E-02  0.1113017E+00
         21   -1    0    0  502  501  0.00000000000E+00  0.00000000000E+00  0.86804268347E+02  0.86804268347E+02  0.00000000000E+00 0. -1.
         21   -1    0    0  501  502 -0.00000000000E+00 -0.00000000000E+00 -0.72264213019E+03  0.72264213019E+03  0.00000000000E+00 0. -1.
         25    1    1    2    0    0 -0.43816653922E+00 -0.15111544243E+02 -0.97492616423E+02  0.15924308781E+03  0.12500000000E+03 0.  0.
         25    1    1    2    0    0 -0.18224040072E+02  0.13793886320E+02 -0.35816298081E+02  0.13202346058E+03  0.12500000000E+03 0.  0.
         25    1    1    2    0    0  0.18662206611E+02  0.13176579229E+01 -0.50252894734E+03  0.51817985014E+03  0.12500000000E+03 0.  0.
</event>
<event>
 5    0  0.5660959E-005  0.3068030E+03  0.7546771E-02  0.1081888E+00
         21   -1    0    0  502  501  0.00000000000E+00  0.00000000000E+00  0.98952989220E+02  0.98952989220E+02  0.00000000000E+00 0. -1.
         21   -1    0    0  501  502 -0.00000000000E+00 -0.00000000000E+00 -0.95124017255E+03  0.95124017255E+03  0.00000000000E+00 0. -1.
         25    1    1    2    0    0 -0.63317869967E+02  0.84524633050E+02 -0.10314146945E+03  0.19343404294E+03  0.12500000000E+03 0.  0.
         25    1    1    2    0    0  0.18718545849E+03 -0.53287940839E+02 -0.35131575836E+03  0.42062544215E+03  0.12500000000E+03 0.  0.
         25    1    1    2    0    0 -0.12386758852E+03 -0.31236692211E+02 -0.39782995551E+03  0.43613367668E+03  0.12500000000E+03 0.  0.
</event>
<event>
 5    0  0.7021180E-005  0.2608757E+03  0.7546771E-02  0.1106618E+00
         21   -1    0    0  502  501  0.00000000000E+00  0.00000000000E+00  0.53472568561E+03  0.53472568561E+03  0.00000000000E+00 0. -1.
         21   -1    0    0  501  502 -0.00000000000E+00 -0.00000000000E+00 -0.12727301605E+03  0.12727301605E+03  0.00000000000E+00 0. -1.
         25    1    1    2    0    0 -0.25198650304E+02  0.47639083921E+02  0.24201242015E+03  0.27766790560E+03  0.12500000000E+03 0.  0.
         25    1    1    2    0    0 -0.98403693579E+01  0.69214943825E+02  0.15246631941E+03  0.20918537203E+03  0.12500000000E+03 0.  0.
         25    1    1    2    0    0  0.35039019662E+02 -0.11685402775E+03  0.12973930007E+02  0.17514542403E+03  0.12500000000E+03 0.  0.
</event>
<event>
 5    0  0.5660959E-005  0.3566688E+03  0.7546771E-02  0.1059911E+00
         21   -1    0    0  502  501  0.00000000000E+00  0.00000000000E+00  0.15151902050E+03  0.15151902050E+03  0.00000000000E+00 0.  1.
         21   -1    0    0  501  502 -0.00000000000E+00 -0.00000000000E+00 -0.83958205337E+03  0.83958205337E+03  0.00000000000E+00 0.  1.
         25    1    1    2    0    0  0.16955427993E+02  0.43595963403E+02 -0.56260354809E+03  0.57821781959E+03  0.12500000000E+03 0.  0.
         25    1    1    2    0    0  0.94624470844E+02  0.30472910893E+02  0.41505228417E+02  0.16501537130E+03  0.12500000000E+03 0.  0.
         25    1    1    2    0    0 -0.11157989884E+03 -0.74068874296E+02 -0.16696471319E+03  0.24786788299E+03  0.12500000000E+03 0.  0.
</event>
<event>
 5    0  0.5660959E-005  0.2714777E+03  0.7546771E-02  0.1100437E+00
         21   -1    0    0  502  501  0.00000000000E+00  0.00000000000E+00  0.66941285777E+03  0.66941285777E+03  0.00000000000E+00 0. -1.
         21   -1    0    0  501  502 -0.00000000000E+00 -0.00000000000E+00 -0.11009672510E+03  0.11009672510E+03  0.00000000000E+00 0. -1.
         25    1    1    2    0    0 -0.95152941668E+02 -0.11020157321E+03  0.16448619804E+03  0.25274330534E+03  0.12500000000E+03 0.  0.
         25    1    1    2    0    0  0.77851026524E+02  0.33676339062E+02  0.33506199983E+03  0.36754104788E+03  0.12500000000E+03 0.  0.
         25    1    1    2    0    0  0.17301915144E+02  0.76525234151E+02  0.59767934789E+02  0.15922522965E+03  0.12500000000E+03 0.  0.
</event>
<event>
 5    0  0.5660959E-005  0.2874994E+03  0.7546771E-02  0.1091662E+00
         21   -1    0    0  502  501  0.00000000000E+00  0.00000000000E+00  0.83977674890E+02  0.83977674890E+02  0.00000000000E+00 0.  1.
         21   -1    0    0  501  502 -0.00000000000E+00 -0.00000000000E+00 -0.98426023513E+03  0.98426023513E+03  0.00000000000E+00 0.  1.
         25    1    1    2    0    0 -0.72163859925E+02  0.19257744095E+01 -0.33172900768E+03  0.36177405355E+03  0.12500000000E+03 0.  0.
         25    1    1    2    0    0  0.16058351847E+03  0.10821004462E+03 -0.32457658684E+03  0.39808471571E+03  0.12500000000E+03 0.  0.
         25    1    1    2    0    0 -0.88419658547E+02 -0.11013581903E+03 -0.24397696573E+03  0.30837914076E+03  0.12500000000E+03 0.  0.
</event>
<event>
 5    0  0.5660959E-005  0.4826754E+03  0.7546771E-02  0.1018402E+00
         21   -1    0    0  502  501  0.00000000000E+00  0.00000000000E+00  0.14022506129E+03  0.14022506129E+03  0.00000000000E+00 0. -1.
         21   -1    0    0  501  502 -0.00000000000E+00 -0.00000000000E+00 -0.16614404090E+04  0.16614404090E+04  0.00000000000E+00 0. -1.
         25    1    1    2    0    0  0.93929220754E+02  0.37770386366E+03 -0.55830050413E+03  0.69195907397E+03  0.12500000000E+03 0.  0.
         25    1    1    2    0    0 -0.16805163907E+03 -0.20863138345E+03 -0.72852601921E+03  0.78622106829E+03  0.12500000000E+03 0.  0.
         25    1    1    2    0    0  0.74122418312E+02 -0.16907248021E+03 -0.23438882438E+03  0.32348532804E+03  0.12500000000E+03 0.  0.
</event>
<event>
 5    0  0.5660959E-005  0.1996209E+03  0.7546771E-02  0.1150059E+00
         21   -1    0    0  502  501  0.00000000000E+00  0.00000000000E+00  0.24639730721E+02  0.24639730721E+02  0.00000000000E+00 0.  1.
         21   -1    0    0  501  502 -0.00000000000E+00 -0.00000000000E+00 -0.16172457780E+04  0.16172457780E+04  0.00000000000E+00 0.  1.
         25    1    1    2    0    0 -0.36487347312E+02 -0.25991178147E+02 -0.53760890495E+03  0.55376457320E+03  0.12500000000E+03 0.  0.
         25    1    1    2    0    0  0.26140740071E+02 -0.15349239143E+02 -0.40843902423E+03  0.42821300067E+03  0.12500000000E+03 0.  0.
         25    1    1    2    0    0  0.10346607241E+02  0.41340417291E+02 -0.64655811806E+03  0.65990793480E+03  0.12500000000E+03 0.  0.
</event>
<event>
 5    0  0.5660959E-005  0.4024559E+03  0.7546771E-02  0.1042933E+00
         21   -1    0    0  502  501  0.00000000000E+00  0.00000000000E+00  0.38568203987E+03  0.38568203987E+03  0.00000000000E+00 0.  1.
         21   -1    0    0  501  502 -0.00000000000E+00 -0.00000000000E+00 -0.41995937019E+03  0.41995937019E+03  0.00000000000E+00 0.  1.
         25    1    1    2    0    0 -0.41691380460E+02  0.25248103453E+03 -0.62838603880E+02  0.29164796268E+03  0.12500000000E+03 0.  0.
         25    1    1    2    0    0  0.12902742423E+03  0.28819005681E+02 -0.41094383041E+02  0.18652710154E+03  0.12500000000E+03 0.  0.
         25    1    1    2    0    0 -0.87336043771E+02 -0.28130004021E+03  0.69655656601E+02  0.32746634584E+03  0.12500000000E+03 0.  0.
</event>
<event>
 5    0  0.5660959E-005  0.2879791E+03  0.7546771E-02  0.1091409E+00
         21   -1    0    0  502  501  0.00000000000E+00  0.00000000000E+00  0.99627615715E+02  0.99627615715E+02  0.00000000000E+00 0. -1.
         21   -1    0    0  501  502 -0.00000000000E+00 -0.00000000000E+00 -0.83241960217E+03  0.83241960217E+03  0.00000000000E+00 0. -1.
         25    1    1    2    0    0  0.10756202691E+03 -0.13751292702E+03 -0.15366392310E+03  0.26403976215E+03  0.12500000000E+03 0.  0.
         25    1    1    2    0    0 -0.72104618335E+02  0.12053661493E+03 -0.43106724520E+03  0.47028940177E+03  0.12500000000E+03 0.  0.
         25    1    1    2    0    0 -0.35457408577E+02  0.16976312091E+02 -0.14806081816E+03  0.19771805398E+03  0.12500000000E+03 0.  0.
</event>
<event>
 5    0  0.5660959E-005  0.2875096E+03  0.7546771E-02  0.1091657E+00
         21   -1    0    0  502  501  0.00000000000E+00  0.00000000000E+00  0.21959097704E+03  0.21959097704E+03  0.00000000000E+00 0. -1.
         21   -1    0    0  501  502 -0.00000000000E+00 -0.00000000000E+00 -0.37643528396E+03  0.37643528396E+03  0.00000000000E+00 0. -1.
         25    1    1    2    0    0  0.75401595686E+02 -0.11654329193E+03 -0.11328752720E+03  0.21846465010E+03  0.12500000000E+03 0.  0.
         25    1    1    2    0    0 -0.86136277468E+02  0.17893571873E+03 -0.34180669453E+02  0.23713027622E+03  0.12500000000E+03 0.  0.
         25    1    1    2    0    0  0.10734681782E+02 -0.62392426804E+02 -0.93761102724E+01  0.14043133468E+03  0.12500000000E+03 0.  0.
</event>
<event>
 5    0  0.5988627E-005  0.4180963E+03  0.7546771E-02  0.1037688E+00
         21   -1    0    0  502  501  0.00000000000E+00  0.00000000000E+00  0.11887525116E+04  0.11887525116E+04  0.00000000000E+00 0. -1.
         21   -1    0    0  501  502 -0.00000000000E+00 -0.00000000000E+00 -0.14704867846E+03  0.14704867846E+03  0.00000000000E+00 0. -1.
         25    1    1    2    0    0 -0.11761765367E+02 -0.96574657229E+02  0.82141325371E+03  0.83654631487E+03  0.12500000000E+03 0.  0.
         25    1    1    2    0    0  0.17663394603E+03  0.85524358073E+02  0.68967257681E+02  0.24268384649E+03  0.12500000000E+03 0.  0.
         25    1    1    2    0    0 -0.16487218067E+03  0.11050299156E+02  0.15132332176E+03  0.25657102872E+03  0.12500000000E+03 0.  0.
</event>
<event>
 5    0  0.5660959E-005  0.2808273E+03  0.7546771E-02  0.1095238E+00
         21   -1    0    0  502  501  0.00000000000E+00  0.00000000000E+00  0.82215438482E+03  0.82215438482E+03  0.00000000000E+00 0.  1.
         21   -1    0    0  501  502 -0.00000000000E+00 -0.00000000000E+00 -0.95923527920E+02  0.95923527920E+02  0.00000000000E+00 0.  1.
         25    1    1    2    0    0  0.12056879514E+03 -0.45202578111E+02  0.42362304475E+03  0.46006694238E+03  0.12500000000E+03 0.  0.
         25    1    1    2    0    0 -0.46041896651E+01 -0.38056242363E+02  0.20875648083E+03  0.24632041011E+03  0.12500000000E+03 0.  0.
         25    1    1    2    0    0 -0.11596460548E+03  0.83258820474E+02  0.93851331320E+02  0.21169056025E+03  0.12500000000E+03 0.  0.
</event>
<event>
 5    0  0.5660959E-005  0.2452983E+03  0.7546771E-02  0.1116313E+00
         21   -1    0    0  502  501  0.00000000000E+00  0.00000000000E+00  0.12877137185E+03  0.12877137185E+03  0.00000000000E+00 0. -1.
         21   -1    0    0  501  502 -0.00000000000E+00 -0.00000000000E+00 -0.46727200480E+03  0.46727200480E+03  0.00000000000E+00 0. -1.
         25    1    1    2    0    0 -0.14521434527E+02  0.21739546250E+02 -0.66970987947E+02  0.14419983758E+03  0.12500000000E+03 0.  0.
         25    1    1    2    0    0 -0.10369353907E+03 -0.37336858009E+02 -0.56388498665E+02  0.17592911582E+03  0.12500000000E+03 0.  0.
         25    1    1    2    0    0  0.11821497359E+03  0.15597311759E+02 -0.21514114634E+03  0.27591442326E+03  0.12500000000E+03 0.  0.
</event>
<event>
 5    0  0.5660959E-005  0.2615549E+03  0.7546771E-02  0.1106213E+00
         21   -1    0    0  502  501  0.00000000000E+00  0.00000000000E+00  0.15931580487E+03  0.15931580487E+03  0.00000000000E+00 0. -1.
         21   -1    0    0  501  502 -0.00000000000E+00 -0.00000000000E+00 -0.42940483846E+03  0.42940483846E+03  0.00000000000E+00 0. -1.
         25    1    1    2    0    0  0.39844122594E+02 -0.13521582554E+02 -0.22893309848E+03  0.26420777975E+03  0.12500000000E+03 0.  0.
         25    1    1    2    0    0  0.62562290821E+02 -0.48831662552E+02 -0.89282524488E+01  0.14833504371E+03  0.12500000000E+03 0.  0.
         25    1    1    2    0    0 -0.10240641342E+03  0.62353245106E+02 -0.32227682663E+02  0.17617781987E+03  0.12500000000E+03 0.  0.
</event>
<event>
 5    0  0.7588431E-005  0.4591083E+03  0.7546771E-02  0.1025040E+00
         21   -1    0    0  502  501  0.00000000000E+00  0.00000000000E+00  0.54382126813E+03  0.54382126813E+03  0.00000000000E+00 0. -1.
         21   -1    0    0  501  502 -0.00000000000E+00 -0.00000000000E+00 -0.38759139793E+03  0.38759139793E+03  0.00000000000E+00 0. -1.
         25    1    1    2    0    0 -0.18142841446E+03  0.14598726903E+03  0.13306415174E+03  0.29590474949E+03  0.12500000000E+03 0.  0.
         25    1    1    2    0    0 -0.13527922656E+03 -0.21421031434E+03 -0.30437442043E+02  0.28414426931E+03  0.12500000000E+03 0.  0.
         25    1    1    2    0    0  0.31670764102E+03  0.68223045305E+02  0.53603160513E+02  0.35136364725E+03  0.12500000000E+03 0.  0.
</event>
<event>
 5    0  0.5660959E-005  0.4025600E+03  0.7546771E-02  0.1042897E+00
         21   -1    0    0  502  501  0.00000000000E+00  0.00000000000E+00  0.49449323866E+03  0.49449323866E+03  0.00000000000E+00 0.  1.
         21   -1    0    0  501  502 -0.00000000000E+00 -0.00000000000E+00 -0.32771841674E+03  0.32771841674E+03  0.00000000000E+00 0.  1.
         25    1    1    2    0    0  0.97215619459E+02  0.13576719423E+03  0.35435196689E+03  0.41118599701E+03  0.12500000000E+03 0.  0.
         25    1    1    2    0    0 -0.15589603385E+03 -0.64351619216E+02 -0.11647283320E+03  0.24007420757E+03  0.12500000000E+03 0.  0.
         25    1    1    2    0    0  0.58680414393E+02 -0.71415575016E+02 -0.71104311760E+02  0.17095145082E+03  0.12500000000E+03 0.  0.
</event>
<event>
 5    0  0.5660959E-005  0.3669882E+03  0.7546771E-02  0.1055851E+00
         21   -1    0    0  502  501  0.00000000000E+00  0.00000000000E+00  0.12145724278E+03  0.12145724278E+03  0.00000000000E+00 0. -1.
         21   -1    0    0  501  502 -0.00000000000E+00 -0.00000000000E+00 -0.11088706362E+04  0.11088706362E+04  0.00000000000E+00 0. -1.
         25    1    1    2    0    0  0.93596784959E+02 -0.35752372805E+01 -0.20514427186E+03  0.25784164278E+03  0.12500000000E+03 0.  0.
         25    1    1    2    0    0  0.19407817944E+03 -0.21722245399E+02 -0.49408760361E+03  0.54578911287E+03  0.12500000000E+03 0.  0.
         25    1    1    2    0    0 -0.28767496440E+03  0.25297482679E+02 -0.28818151797E+03  0.42669712335E+03  0.12500000000E+03 0.  0.
</event>
<event>
 5    0  0.5660959E-005  0.2693839E+03  0.7546771E-02  0.1101633E+00
         21   -1    0    0  502  501  0.00000000000E+00  0.00000000000E+00  0.15617763131E+04  0.15617763131E+04  0.00000000000E+00 0. -1.
         21   -1    0    0  501  502 -0.00000000000E+00 -0.00000000000E+00 -0.46464830761E+02  0.46464830761E+02  0.00000000000E+00 0. -1.
         25    1    1    2    0    0  0.19768357001E+02 -0.10743597072E+02  0.17864705849E+03  0.21919394226E+03  0.12500000000E+03 0.  0.
         25    1    1    2    0    0  0.52483485653E+02  0.62164434231E+02  0.10789064127E+04  0.10891661859E+04  0.12500000000E+03 0.  0.
         25    1    1    2    0    0 -0.72251842655E+02 -0.51420837159E+02  0.25775801111E+03  0.29988101566E+03  0.12500000000E+03 0.  0.
</event>
<event>
 5    0  0.5660959E-005  0.3743414E+03  0.7546771E-02  0.1053045E+00
         21   -1    0    0  502  501  0.00000000000E+00  0.00000000000E+00  0.43046826053E+03  0.43046826053E+03  0.00000000000E+00 0. -1.
         21   -1    0    0  501  502 -0.00000000000E+00 -0.00000000000E+00 -0.32553260123E+03  0.32553260123E+03  0.00000000000E+00 0. -1.
         25    1    1    2    0    0  0.11710525139E+03 -0.16018864987E+03  0.59387014355E+02  0.24192118742E+03  0.12500000000E+03 0.  0.
         25    1    1    2    0    0 -0.40809842151E+02  0.14697431443E+03 -0.16509419860E+03  0.25719250908E+03  0.12500000000E+03 0.  0.
         25    1    1    2    0    0 -0.76295409237E+02  0.13214335444E+02  0.21064284355E+03  0.25688716525E+03  0.12500000000E+03 0.  0.
</event>
<event>
 5    0  0.5660959E-005  0.4617271E+03  0.7546771E-02  0.1024282E+00
         21   -1    0    0  502  501  0.00000000000E+00  0.00000000000E+00  0.14659199570E+03  0.14659199570E+03  0.00000000000E+00 0.  1.
         21   -1    0    0  501  502 -0.00000000000E+00 -0.00000000000E+00 -0.14543214420E+04  0.14543214420E+04  0.00000000000E+00 0.  1.
         25    1    1    2    0    0  0.40948032206E+02  0.14371073050E+03 -0.41096881217E+02  0.19910667756E+03  0.12500000000E+03 0.  0.
         25    1    1    2    0    0 -0.22875407659E+02 -0.33811772559E+03 -0.87619083425E+03  0.94772478002E+03  0.12500000000E+03 0.  0.
         25    1    1    2    0    0 -0.18072624548E+02  0.19440699509E+03 -0.39044173080E+03  0.45408198010E+03  0.12500000000E+03 0.  0.
</event>
<event>
 5    0  0.5660959E-005  0.2355601E+03  0.7546771E-02  0.1122786E+00
         21   -1    0    0  502  501  0.00000000000E+00  0.00000000000E+00  0.10719319162E+04  0.10719319162E+04  0.00000000000E+00 0. -1.
         21   -1    0    0  501  502 -0.00000000000E+00 -0.00000000000E+00 -0.51765015455E+02  0.51765015455E+02  0.00000000000E+00 0. -1.
         25    1    1    2    0    0 -0.97150299228E+02  0.70895371821E+02  0.32414315057E+03  0.36763856768E+03  0.12500000000E+03 0.  0.
         25    1    1    2    0    0  0.53713228379E+01 -0.62213346575E+02  0.34377144834E+03  0.37108376453E+03  0.12500000000E+03 0.  0.
         25    1    1    2    0    0  0.91778976390E+02 -0.86820252456E+01  0.35225230180E+03  0.38497459941E+03  0.12500000000E+03 0.  0.
</event>
<event>
 5    0  0.5660959E-005  0.2825416E+03  0.7546771E-02  0.1094309E+00
         21   -1    0    0  502  501  0.00000000000E+00  0.00000000000E+00  0.63368387764E+02  0.63368387764E+02  0.00000000000E+00 0.  1.
         21   -1    0    0  501  502 -0.00000000000E+00 -0.00000000000E+00 -0.12597728756E+04  0.12597728756E+04  0.00000000000E+00 0.  1.
         25    1    1    2    0    0 -0.91887780909E+02  0.64252662732E+02 -0.12177050510E+03  0.20742426295E+03  0.12500000000E+03 0.  0.
         25    1    1    2    0    0  0.38687980814E+02  0.30174596094E+02 -0.50414069557E+03  0.52171841739E+03  0.12500000000E+03 0.  0.
         25    1    1    2    0    0  0.53199800096E+02 -0.94427258827E+02 -0.57049328717E+03  0.59399858303E+03  0.12500000000E+03 0.  0.
</event>
<event>
 5    0  0.5660959E-005  0.2291828E+03  0.7546771E-02  0.1127216E+00
         21   -1    0    0  502  501  0.00000000000E+00  0.00000000000E+00  0.32169579922E+03  0.32169579922E+03  0.00000000000E+00 0.  1.
         21   -1    0    0  501  502 -0.00000000000E+00 -0.00000000000E+00 -0.16327455278E+03  0.16327455278E+03  0.00000000000E+00 0.  1.
         25    1    1    2    0    0  0.83961396971E+02 -0.11282254988E+02  0.10143666735E+02  0.15134298607E+03  0.12500000000E+03 0.  0.
         25    1    1    2    0    0 -0.30677026160E+02 -0.63495292970E+02  0.64487571561E+02  0.15734159987E+03  0.12500000000E+03 0.  0.
         25    1    1    2    0    0 -0.53284370811E+02  0.74777547957E+02  0.83790008145E+02  0.17628576606E+03  0.12500000000E+03 0.  0.
</event>
<event>
 5    0  0.5660959E-005  0.3011433E+03  0.7546771E-02  0.1084670E+00
         21   -1    0    0  502  501  0.00000000000E+00  0.00000000000E+00  0.38254481102E+03  0.38254481102E+03  0.00000000000E+00 0. -1.
         21   -1    0    0  501  502 -0.00000000000E+00 -0.00000000000E+00 -0.23706316680E+03  0.23706316680E+03  0.00000000000E+00 0. -1.
         25    1    1    2    0    0 -0.10431252605E+03  0.31958698453E+02 -0.30632279230E+02  0.16871810226E+03  0.12500000000E+03 0.  0.
         25    1    1    2    0    0  0.20671177014E+03 -0.28988780695E+02  0.15356220239E+03  0.28770897679E+03  0.12500000000E+03 0.  0.
         25    1    1    2    0    0 -0.10239924409E+03 -0.29699177579E+01  0.22551721066E+02  0.16318089877E+03  0.12500000000E+03 0.  0.
</event>
<event>
 5    0  0.5660959E-005  0.3740650E+03  0.7546771E-02  0.1053149E+00
         21   -1    0    0  502  501  0.00000000000E+00  0.00000000000E+00  0.26333854582E+03  0.26333854582E+03  0.00000000000E+00 0.  1.
         21   -1    0    0  501  502 -0.00000000000E+00 -0.00000000000E+00 -0.53134885842E+03  0.53134885842E+03  0.00000000000E+00 0.  1.
         25    1    1    2    0    0  0.19848090356E+02  0.20992785300E+03 -0.20104476622E+03  0.31702941217E+03  0.12500000000E+03 0.  0.
         25    1    1    2    0    0 -0.16687696717E+03 -0.52104310026E+02 -0.76639930956E+02  0.22816980587E+03  0.12500000000E+03 0.  0.
         25    1    1    2    0    0  0.14702887681E+03 -0.15782354298E+03  0.96743845788E+01  0.24948818620E+03  0.12500000000E+03 0.  0.
</event>
<event>
 5    0  0.5660959E-005  0.4804470E+03  0.7546771E-02  0.1019012E+00
         21   -1    0    0  502  501  0.00000000000E+00  0.00000000000E+00  0.28304794824E+03  0.28304794824E+03  0.00000000000E+00 0. -1.
         21   -1    0    0  501  502 -0.00000000000E+00 -0.00000000000E+00 -0.81551318157E+03  0.81551318157E+03  0.00000000000E+00 0. -1.
         25    1    1    2    0    0 -0.17040063051E+03  0.18919484064E+03 -0.14286789181E+03  0.31759612264E+03  0.12500000000E+03 0.  0.
         25    1    1    2    0    0  0.35961293914E+03 -0.21412851715E+03 -0.18444219137E+03  0.47414808848E+03  0.12500000000E+03 0.  0.
         25    1    1    2    0    0 -0.18921230862E+03  0.24933676505E+02 -0.20515515015E+03  0.30681691869E+03  0.12500000000E+03 0.  0.
</event>
<event>
 5    0  0.5660959E-005  0.2467226E+03  0.7546771E-02  0.1115394E+00
         21   -1    0    0  502  501  0.00000000000E+00  0.00000000000E+00  0.22507290587E+03  0.22507290587E+03  0.00000000000E+00 0.  1.
         21   -1    0    0  501  502 -0.00000000000E+00 -0.00000000000E+00 -0.27045467559E+03  0.27045467559E+03  0.00000000000E+00 0.  1.
         25    1    1    2    0    0 -0.41011641561E+02 -0.11900448652E+03 -0.56712354452E+02  0.18623993585E+03  0.12500000000E+03 0.  0.
         25    1    1    2    0    0  0.83196830978E+02  0.49914470047E+02  0.23049095888E+02  0.15990443342E+03  0.12500000000E+03 0.  0.
         25    1    1    2    0    0 -0.42185189417E+02  0.69090016477E+02 -0.11718511153E+02  0.14938321220E+03  0.12500000000E+03 0.  0.
</event>
<event>
 5    0  0.5660959E-005  0.3382573E+03  0.7546771E-02  0.1067541E+00
         21   -1    0    0  502  501  0.00000000000E+00  0.00000000000E+00  0.35828324514E+03  0.35828324514E+03  0.00000000000E+00 0. -1.
         21   -1    0    0  501  502 -0.00000000000E+00 -0.00000000000E+00 -0.31935073576E+03  0.31935073576E+03  0.00000000000E+00 0. -1.
         25    1    1    2    0    0  0.48154553550E+02 -0.16273714873E+03 -0.10214516726E+03  0.23422398639E+03  0.12500000000E+03 0.  0.
         25    1    1    2    0    0  0.94649059683E+02  0.49567154421E+02  0.14956338062E+03  0.22228259518E+03  0.12500000000E+03 0.  0.
         25    1    1    2    0    0 -0.14280361323E+03  0.11316999431E+03 -0.84857039813E+01  0.22112739933E+03  0.12500000000E+03 0.  0.
</event>
<event>
 5    0  0.5915164E-005  0.2860576E+03  0.7546771E-02  0.1092426E+00
         21   -1    0    0  502  501  0.00000000000E+00  0.00000000000E+00  0.43238074345E+03  0.43238074345E+03  0.00000000000E+00 0. -1.
         21   -1    0    0  501  502 -0.00000000000E+00 -0.00000000000E+00 -0.18925201219E+03  0.18925201219E+03  0.00000000000E+00 0. -1.
         25    1    1    2    0    0  0.11353303313E+02  0.15976978700E+03 -0.21704459151E+02  0.20433150976E+03  0.12500000000E+03 0.  0.
         25    1    1    2    0    0 -0.52620090161E+01 -0.10308211425E+03  0.64684333107E+02  0.17453559513E+03  0.12500000000E+03 0.  0.
         25    1    1    2    0    0 -0.60912942973E+01 -0.56687672748E+02  0.20014885730E+03  0.24276565076E+03  0.12500000000E+03 0.  0.
</event>
<event>
 5    0  0.5660959E-005  0.4079984E+03  0.7546771E-02  0.1041045E+00
         21   -1    0    0  502  501  0.00000000000E+00  0.00000000000E+00  0.62151657017E+03  0.62151657017E+03  0.00000000000E+00 0.  1.
         21   -1    0    0  501  502 -0.00000000000E+00 -0.00000000000E+00 -0.26783310249E+03  0.26783310249E+03  0.00000000000E+00 0.  1.
         25    1    1    2    0    0  0.73677603819E+02  0.16016542655E+03  0.14449346725E+03  0.25997060457E+03  0.12500000000E+03 0.  0.
         25    1    1    2    0    0  0.17312661412E+03  0.72233439216E+02  0.12737109843E+03  0.25891869568E+03  0.12500000000E+03 0.  0.
         25    1    1    2    0    0 -0.24680421794E+03 -0.23239886576E+03  0.81818901998E+02  0.37046037241E+03  0.12500000000E+03 0.  0.
</event>
<event>
 5    0  0.6591938E-005  0.2463056E+03  0.7546771E-02  0.1115662E+00
         21   -1    0    0  502  501  0.00000000000E+00  0.00000000000E+00  0.31900432369E+03  0.31900432369E+03  0.00000000000E+00 0. -1.
         21   -1    0    0  501  502 -0.00000000000E+00 -0.00000000000E+00 -0.19017440271E+03  0.19017440271E+03  0.00000000000E+00 0. -1.
         25    1    1    2    0    0  0.98656037231E+01 -0.46069824181E+02  0.38395288450E+02  0.13899265093E+03  0.12500000000E+03 0.  0.
         25    1    1    2    0    0 -0.96851640185E+01 -0.77404334833E+02 -0.38454658678E+02  0.15227932961E+03  0.12500000000E+03 0.  0.
         25    1    1    2    0    0 -0.18043970461E+00  0.12347415901E+03  0.12888929121E+03  0.21790674586E+03  0.12500000000E+03 0.  0.
</event>
<event>
 5    0  0.5660959E-005  0.3121563E+03  0.7546771E-02  0.1079317E+00
         21   -1    0    0  502  501  0.00000000000E+00  0.00000000000E+00  0.46769771911E+03  0.46769771911E+03  0.00000000000E+00 0. -1.
         21   -1    0    0  501  502 -0.00000000000E+00 -0.00000000000E+00 -0.20834296626E+03  0.20834296626E+03  0.00000000000E+00 0. -1.
         25    1    1    2    0    0 -0.33434922523E+02 -0.89339695842E+02  0.11930009096E+03  0.19737524414E+03  0.12500000000E+03 0.  0.
         25    1    1    2    0    0 -0.70566582681E+02 -0.79346543207E+02 -0.55843600402E+02  0.17325999023E+03  0.12500000000E+03 0.  0.
         25    1    1    2    0    0  0.10400150520E+03  0.16868623905E+03  0.19589826230E+03  0.30540545100E+03  0.12500000000E+03 0.  0.
</event>
<event>
 5    0  0.5660959E-005  0.2917156E+03  0.7546771E-02  0.1089457E+00
         21   -1    0    0  502  501  0.00000000000E+00  0.00000000000E+00  0.42195259047E+03  0.42195259047E+03  0.00000000000E+00 0. -1.
         21   -1    0    0  501  502 -0.00000000000E+00 -0.00000000000E+00 -0.20167671169E+03  0.20167671169E+03  0.00000000000E+00 0. -1.
         25    1    1    2    0    0  0.81919054300E+02  0.10406232454E+02  0.16771679250E+03  0.22488428940E+03  0.12500000000E+03 0.  0.
         25    1    1    2    0    0  0.65096813329E+02 -0.35637999748E+01 -0.82276919820E+02  0.16323231087E+03  0.12500000000E+03 0.  0.
         25    1    1    2    0    0 -0.14701586763E+03 -0.68424324789E+01  0.13483600610E+03  0.23551270190E+03  0.12500000000E+03 0.  0.
</event>
<event>
 5    0  0.5660959E-005  0.2639420E+03  0.7546771E-02  0.1104798E+00
         21   -1    0    0  502  501  0.00000000000E+00  0.00000000000E+00  0.41357755449E+03  0.41357755449E+03  0.00000000000E+00 0.  1.
         21   -1    0    0  501  502 -0.00000000000E+00 -0.00000000000E+00 -0.16844573923E+03  0.16844573923E+03  0.00000000000E+00 0.  1.
         25    1    1    2    0    0 -0.14833777318E+03  0.61840976743E+02  0.16493746132E+03  0.26202627254E+03  0.12500000000E+03 0.  0.
         25    1    1    2    0    0  0.62554176280E+02 -0.14777501631E+01  0.38444131056E+01  0.13983915127E+03  0.12500000000E+03 0.  0.
         25    1    1    2    0    0  0.85783596902E+02 -0.60363226580E+02  0.76349940838E+02  0.18015786990E+03  0.12500000000E+03 0.  0.
</event>
<event>
 5    0  0.5660959E-005  0.2613340E+03  0.7546771E-02  0.1106344E+00
         21   -1    0    0  502  501  0.00000000000E+00  0.00000000000E+00  0.75684162309E+03  0.75684162309E+03  0.00000000000E+00 0. -1.
         21   -1    0    0  501  502 -0.00000000000E+00 -0.00000000000E+00 -0.90237446703E+02  0.90237446703E+02  0.00000000000E+00 0. -1.
         25    1    1    2    0    0  0.16835674080E+02  0.12732195168E+03  0.25035948292E+03  0.30789477097E+03  0.12500000000E+03 0.  0.
         25    1    1    2    0    0  0.36779964970E+02 -0.77604508686E+02  0.76493085219E+02  0.16985705072E+03  0.12500000000E+03 0.  0.
         25    1    1    2    0    0 -0.53615639050E+02 -0.49717442994E+02  0.33975160825E+03  0.36932724811E+03  0.12500000000E+03 0.  0.
</event>
<event>
 5    0  0.5660959E-005  0.4248390E+03  0.7546771E-02  0.1035503E+00
         21   -1    0    0  502  501  0.00000000000E+00  0.00000000000E+00  0.14673318428E+03  0.14673318428E+03  0.00000000000E+00 0.  1.
         21   -1    0    0  501  502 -0.00000000000E+00 -0.00000000000E+00 -0.12300431685E+04  0.12300431685E+04  0.00000000000E+00 0.  1.
         25    1    1    2    0    0 -0.16188794287E+03  0.18649534920E+03 -0.10219509780E+03  0.29505433285E+03  0.12500000000E+03 0.  0.
         25    1    1    2    0    0  0.16471221697E+03 -0.23983767222E+03 -0.74041424633E+03  0.80528906586E+03  0.12500000000E+03 0.  0.
         25    1    1    2    0    0 -0.28242740971E+01  0.53342323016E+02 -0.24070064009E+03  0.27643295406E+03  0.12500000000E+03 0.  0.
</event>
<event>
 5    0  0.5660959E-005  0.2187698E+03  0.7546771E-02  0.1134804E+00
         21   -1    0    0  502  501  0.00000000000E+00  0.00000000000E+00  0.86881530698E+02  0.86881530698E+02  0.00000000000E+00 0. -1.
         21   -1    0    0  501  502 -0.00000000000E+00 -0.00000000000E+00 -0.55086747791E+03  0.55086747791E+03  0.00000000000E+00 0. -1.
         25    1    1    2    0    0 -0.48611114307E+02 -0.54318750859E+01 -0.71264313565E+02  0.15197416915E+03  0.12500000000E+03 0.  0.
         25    1    1    2    0    0  0.88555311830E+02  0.14137270427E+02 -0.22678652349E+03  0.27404202763E+03  0.12500000000E+03 0.  0.
         25    1    1    2    0    0 -0.39944197523E+02 -0.87053953414E+01 -0.16593511016E+03  0.21173281183E+03  0.12500000000E+03 0.  0.
</event>
<event>
 5    0  0.5660959E-005  0.2652339E+03  0.7546771E-02  0.1104039E+00
         21   -1    0    0  502  501  0.00000000000E+00  0.00000000000E+00  0.41587101322E+03  0.41587101322E+03  0.00000000000E+00 0.  1.
         21   -1    0    0  501  502 -0.00000000000E+00 -0.00000000000E+00 -0.16916073768E+03  0.16916073768E+03  0.00000000000E+00 0.  1.
         25    1    1    2    0    0 -0.97777895943E+02  0.73050866853E+01  0.22414527766E+03  0.27473621298E+03  0.12500000000E+03 0.  0.
         25    1    1    2    0    0 -0.10416004303E+02 -0.39078896143E+02  0.48333358154E+02  0.13998845231E+03  0.12500000000E+03 0.  0.
         25    1    1    2    0    0  0.10819390025E+03  0.31773809458E+02 -0.25768360278E+02  0.17030708561E+03  0.12500000000E+03 0.  0.
</event>
<event>
 5    0  0.5660959E-005  0.2549914E+03  0.7546771E-02  0.1110190E+00
         21   -1    0    0  502  501  0.00000000000E+00  0.00000000000E+00  0.53412939841E+02  0.53412939841E+02  0.00000000000E+00 0. -1.
         21   -1    0    0  501  502 -0.00000000000E+00 -0.00000000000E+00 -0.12173197575E+04  0.12173197575E+04  0.00000000000E+00 0. -1.
         25    1    1    2    0    0 -0.79737066032E+02  0.11608653933E+01 -0.30025984598E+03  0.33487359170E+03  0.12500000000E+03 0.  0.
         25    1    1    2    0    0  0.38103074730E+02  0.69655210930E+02 -0.69428488383E+03  0.70990153727E+03  0.12500000000E+03 0.  0.
         25    1    1    2    0    0  0.41633991302E+02 -0.70816076323E+02 -0.16936208781E+03  0.22595756833E+03  0.12500000000E+03 0.  0.
</event>
<event>
 5    0  0.5660959E-005  0.3329428E+03  0.7546771E-02  0.1069842E+00
         21   -1    0    0  502  501  0.00000000000E+00  0.00000000000E+00  0.30432036192E+03  0.30432036192E+03  0.00000000000E+00 0. -1.
         21   -1    0    0  501  502 -0.00000000000E+00 -0.00000000000E+00 -0.36425726783E+03  0.36425726783E+03  0.00000000000E+00 0. -1.
         25    1    1    2    0    0  0.13514866149E+03  0.50481871456E+02  0.13008648536E+03  0.23100015957E+03  0.12500000000E+03 0.  0.
         25    1    1    2    0    0 -0.82188675663E+02 -0.14524430908E+03 -0.36278474684E+02  0.21164124232E+03  0.12500000000E+03 0.  0.
         25    1    1    2    0    0 -0.52959985827E+02  0.94762437622E+02 -0.15374491658E+03  0.22593622786E+03  0.12500000000E+03 0.  0.
</event>
<event>
 5    0  0.5660959E-005  0.2362637E+03  0.7546771E-02  0.1122307E+00
         21   -1    0    0  502  501  0.00000000000E+00  0.00000000000E+00  0.14104460700E+03  0.14104460700E+03  0.00000000000E+00 0. -1.
         21   -1    0    0  501  502 -0.00000000000E+00 -0.00000000000E+00 -0.39576516541E+03  0.39576516541E+03  0.00000000000E+00 0. -1.
         25    1    1    2    0    0  0.25728263202E+01  0.40632679298E+02  0.35053108674E+02  0.13605643862E+03  0.12500000000E+03 0.  0.
         25    1    1    2    0    0  0.21805608607E+02  0.30890432233E+02 -0.14382647463E+03  0.19426980768E+03  0.12500000000E+03 0.  0.
         25    1    1    2    0    0 -0.24378434927E+02 -0.71523111531E+02 -0.14594719246E+03  0.20648352612E+03  0.12500000000E+03 0.  0.
</event>
<event>
 5    0  0.6384832E-005  0.3824966E+03  0.7546771E-02  0.1050015E+00
         21   -1    0    0  502  501  0.00000000000E+00  0.00000000000E+00  0.49771229952E+03  0.49771229952E+03  0.00000000000E+00 0. -1.
         21   -1    0    0  501  502 -0.00000000000E+00 -0.00000000000E+00 -0.29395226154E+03  0.29395226154E+03  0.00000000000E+00 0. -1.
         25    1    1    2    0    0 -0.41159507868E+01 -0.19007661281E+03  0.19160904406E+02  0.22833790760E+03  0.12500000000E+03 0.  0.
         25    1    1    2    0    0 -0.15550137743E+03 -0.32333822852E+01 -0.40930907656E+02  0.20369455649E+03  0.12500000000E+03 0.  0.
         25    1    1    2    0    0  0.15961732821E+03  0.19330999510E+03  0.22553004123E+03  0.35963209697E+03  0.12500000000E+03 0.  0.
</event>
<event>
 5    0  0.5660959E-005  0.2626492E+03  0.7546771E-02  0.1105562E+00
         21   -1    0    0  502  501  0.00000000000E+00  0.00000000000E+00  0.16457461754E+04  0.16457461754E+04  0.00000000000E+00 0. -1.
         21   -1    0    0  501  502 -0.00000000000E+00 -0.00000000000E+00 -0.41916903287E+02  0.41916903287E+02  0.00000000000E+00 0. -1.
         25    1    1    2    0    0  0.34978531427E+02  0.79576724397E+02  0.77984521723E+03  0.79456876075E+03  0.12500000000E+03 0.  0.
         25    1    1    2    0    0 -0.78499494622E+02  0.97911665721E+01  0.60023831057E+03  0.61819824253E+03  0.12500000000E+03 0.  0.
         25    1    1    2    0    0  0.43520963194E+02 -0.89367890969E+02  0.22374574433E+03  0.27489607542E+03  0.12500000000E+03 0.  0.
</event>
<event>
 5    0  0.5660959E-005  0.3404250E+03  0.7546771E-02  0.1066615E+00
         21   -1    0    0  502  501  0.00000000000E+00  0.00000000000E+00  0.18850401096E+03  0.18850401096E+03  0.00000000000E+00 0.  1.
         21   -1    0    0  501  502 -0.00000000000E+00 -0.00000000000E+00 -0.61478360475E+03  0.61478360475E+03  0.00000000000E+00 0.  1.
         25    1    1    2    0    0 -0.23300786716E+01 -0.47068911109E+02 -0.10633740659E+03  0.17074412347E+03  0.12500000000E+03 0.  0.
         25    1    1    2    0    0  0.11602506093E+03 -0.13947403945E+03 -0.31043501674E+03  0.38067009610E+03  0.12500000000E+03 0.  0.
         25    1    1    2    0    0 -0.11369498225E+03  0.18654295056E+03 -0.95071704519E+01  0.25187339614E+03  0.12500000000E+03 0.  0.
</event>
<event>
 5    0  0.5660959E-005  0.2804869E+03  0.7546771E-02  0.1095423E+00
         21   -1    0    0  502  501  0.00000000000E+00  0.00000000000E+00  0.23101980416E+03  0.23101980416E+03  0.00000000000E+00 0.  1.
         21   -1    0    0  501  502 -0.00000000000E+00 -0.00000000000E+00 -0.34054610108E+03  0.34054610108E+03  0.00000000000E+00 0.  1.
         25    1    1    2    0    0 -0.31359301843E+02  0.44620182551E+02 -0.18238931624E+03  0.22773938874E+03  0.12500000000E+03 0.  0.
         25    1    1    2    0    0 -0.54752469615E+02  0.41465179207E+02  0.89741300188E+02  0.16851022217E+03  0.12500000000E+03 0.  0.
         25    1    1    2    0    0  0.86111771458E+02 -0.86085361758E+02 -0.16878280864E+02  0.17531629433E+03  0.12500000000E+03 0.  0.
</event>
<event>
 5    0  0.5660959E-005  0.3014954E+03  0.7546771E-02  0.1084495E+00
         21   -1    0    0  502  501  0.00000000000E+00  0.00000000000E+00  0.53336964188E+03  0.53336964188E+03  0.00000000000E+00 0. -1.
         21   -1    0    0  501  502 -0.00000000000E+00 -0.00000000000E+00 -0.17042487539E+03  0.17042487539E+03  0.00000000000E+00 0. -1.
         25    1    1    2    0    0  0.15029837970E+03  0.15567630708E+03  0.19890282591E+03  0.31939325241E+03  0.12500000000E+03 0.  0.
         25    1    1    2    0    0 -0.97468618728E+02 -0.11979401471E+03  0.53586262716E+02  0.20578441425E+03  0.12500000000E+03 0.  0.
         25    1    1    2    0    0 -0.52829760967E+02 -0.35882292378E+02  0.11045567787E+03  0.17861685061E+03  0.12500000000E+03 0.  0.
</event>
<event>
 5    0  0.5660959E-005  0.2726503E+03  0.7546771E-02  0.1099772E+00
         21   -1    0    0  502  501  0.00000000000E+00  0.00000000000E+00  0.22889178844E+03  0.22889178844E+03  0.00000000000E+00 0.  1.
         21   -1    0    0  501  502 -0.00000000000E+00 -0.00000000000E+00 -0.32477444128E+03  0.32477444128E+03  0.00000000000E+00 0.  1.
         25    1    1    2    0    0  0.11224100379E+03 -0.47927950104E+02 -0.65098586955E+02  0.18643486089E+03  0.12500000000E+03 0.  0.
         25    1    1    2    0    0  0.18524056881E+02 -0.66955133451E+02 -0.51359051799E+02  0.15195026417E+03  0.12500000000E+03 0.  0.
         25    1    1    2    0    0 -0.13076506067E+03  0.11488308356E+03  0.20574985917E+02  0.21528110466E+03  0.12500000000E+03 0.  0.
</event>
<event>
 5    0  0.5660959E-005  0.2938801E+03  0.7546771E-02  0.1088341E+00
         21   -1    0    0  502  501  0.00000000000E+00  0.00000000000E+00  0.15091602567E+04  0.15091602567E+04  0.00000000000E+00 0. -1.
         21   -1    0    0  501  502 -0.00000000000E+00 -0.00000000000E+00 -0.57227519895E+02  0.57227519895E+02  0.00000000000E+00 0. -1.
         25    1    1    2    0    0  0.11190637956E+03 -0.16160343069E+02  0.46035502748E+03  0.49024070190E+03  0.12500000000E+03 0.  0.
         25    1    1    2    0    0 -0.13750186635E+03  0.70379656963E+02  0.86791687160E+03  0.89037337975E+03  0.12500000000E+03 0.  0.
         25    1    1    2    0    0  0.25595486790E+02 -0.54219313895E+02  0.12366083770E+03  0.18577369492E+03  0.12500000000E+03 0.  0.
</event>
<event>
 5    0  0.5660959E-005  0.5009265E+03  0.7546771E-02  0.1013537E+00
         21   -1    0    0  502  501  0.00000000000E+00  0.00000000000E+00  0.33839616973E+04  0.33839616973E+04  0.00000000000E+00 0.  1.
         21   -1    0    0  501  502 -0.00000000000E+00 -0.00000000000E+00 -0.74151936797E+02  0.74151936797E+02  0.00000000000E+00 0.  1.
         25    1    1    2    0    0 -0.20041071670E+03  0.16055390041E+03  0.84335681260E+03  0.89040312425E+03  0.12500000000E+03 0.  0.
         25    1    1    2    0    0  0.34391239226E+03 -0.93667470791E+02  0.22068773166E+04  0.22389689187E+04  0.12500000000E+03 0.  0.
         25    1    1    2    0    0 -0.14350167556E+03 -0.66886429618E+02  0.25957563133E+03  0.32874159113E+03  0.12500000000E+03 0.  0.
</event>
<event>
 5    0  0.5660959E-005  0.2741773E+03  0.7546771E-02  0.1098912E+00
         21   -1    0    0  502  501  0.00000000000E+00  0.00000000000E+00  0.51483116852E+03  0.51483116852E+03  0.00000000000E+00 0.  1.
         21   -1    0    0  501  502 -0.00000000000E+00 -0.00000000000E+00 -0.14601522191E+03  0.14601522191E+03  0.00000000000E+00 0.  1.
         25    1    1    2    0    0 -0.17373283869E+03  0.17451602982E+02  0.24516266162E+03  0.32591009241E+03  0.12500000000E+03 0.  0.
         25    1    1    2    0    0  0.11987308878E+03  0.53320589943E+01  0.69003113579E+02  0.18650581211E+03  0.12500000000E+03 0.  0.
         25    1    1    2    0    0  0.53859749914E+02 -0.22783661976E+02  0.54650171417E+02  0.14843048592E+03  0.12500000000E+03 0.  0.
</event>
<event>
 5    0  0.5660959E-005  0.3090193E+03  0.7546771E-02  0.1080817E+00
         21   -1    0    0  502  501  0.00000000000E+00  0.00000000000E+00  0.28283389074E+03  0.28283389074E+03  0.00000000000E+00 0. -1.
         21   -1    0    0  501  502 -0.00000000000E+00 -0.00000000000E+00 -0.33762899735E+03  0.33762899735E+03  0.00000000000E+00 0. -1.
         25    1    1    2    0    0 -0.11444159964E+03  0.45576831562E+02 -0.84950166362E+02  0.19497604486E+03  0.12500000000E+03 0.  0.
         25    1    1    2    0    0  0.45025666785E+02 -0.18111971827E+03 -0.81846275541E+01  0.22477466749E+03  0.12500000000E+03 0.  0.
         25    1    1    2    0    0  0.69415932852E+02  0.13554288671E+03  0.38339687306E+02  0.20071217575E+03  0.12500000000E+03 0.  0.
</event>
<event>
 5    0  0.5660959E-005  0.4228480E+03  0.7546771E-02  0.1036143E+00
         21   -1    0    0  502  501  0.00000000000E+00  0.00000000000E+00  0.51921235281E+03  0.51921235281E+03  0.00000000000E+00 0. -1.
         21   -1    0    0  501  502 -0.00000000000E+00 -0.00000000000E+00 -0.34436854010E+03  0.34436854010E+03  0.00000000000E+00 0. -1.
         25    1    1    2    0    0  0.35952639573E+03 -0.67144270921E+02  0.84815517053E+02  0.39570981069E+03  0.12500000000E+03 0.  0.
         25    1    1    2    0    0 -0.16682504324E+03  0.90496372000E+02  0.60052769370E+02  0.23505642622E+03  0.12500000000E+03 0.  0.
         25    1    1    2    0    0 -0.19270135249E+03 -0.23352101080E+02  0.29975526282E+02  0.23281465601E+03  0.12500000000E+03 0.  0.
</event>
<event>
 5    0  0.5660959E-005  0.3300384E+03  0.7546771E-02  0.1071120E+00
         21   -1    0    0  502  501  0.00000000000E+00  0.00000000000E+00  0.28533612351E+03  0.28533612351E+03  0.00000000000E+00 0. -1.
         21   -1    0    0  501  502 -0.00000000000E+00 -0.00000000000E+00 -0.38174406158E+03  0.38174406158E+03  0.00000000000E+00 0. -1.
         25    1    1    2    0    0 -0.23345502288E+03  0.53949916581E+02 -0.11762020623E+03  0.29473946821E+03  0.12500000000E+03 0.  0.
         25    1    1    2    0    0  0.16881716537E+03 -0.60829058120E+02  0.58928634226E+02  0.22648839610E+03  0.12500000000E+03 0.  0.
         25    1    1    2    0    0  0.64637857505E+02  0.68791415385E+01 -0.37716366067E+02  0.14585232079E+03  0.12500000000E+03 0.  0.
</event>
<event>
 5    0  0.5660959E-005  0.2700017E+03  0.7546771E-02  0.1101279E+00
         21   -1    0    0  502  501  0.00000000000E+00  0.00000000000E+00  0.58990243257E+02  0.58990243257E+02  0.00000000000E+00 0. -1.
         21   -1    0    0  501  502 -0.00000000000E+00 -0.00000000000E+00 -0.12358134134E+04  0.12358134134E+04  0.00000000000E+00 0. -1.
         25    1    1    2    0    0  0.56281877292E+02 -0.57848402193E+02 -0.49467459713E+03  0.51656756034E+03  0.12500000000E+03 0.  0.
         25    1    1    2    0    0 -0.75991331252E+02 -0.70596437160E+02 -0.16932299570E+03  0.23463549654E+03  0.12500000000E+03 0.  0.
         25    1    1    2    0    0  0.19709453960E+02  0.12844483935E+03 -0.51282557732E+03  0.54360059979E+03  0.12500000000E+03 0.  0.
</event>
<event>
 5    0  0.5660959E-005  0.2741504E+03  0.7546771E-02  0.1098927E+00
         21   -1    0    0  502  501  0.00000000000E+00  0.00000000000E+00  0.17408379368E+04  0.17408379368E+04  0.00000000000E+00 0. -1.
         21   -1    0    0  501  502 -0.00000000000E+00 -0.00000000000E+00 -0.43173715339E+02  0.43173715339E+02  0.00000000000E+00 0. -1.
         25    1    1    2    0    0  0.10496042955E+03  0.41717008247E+02  0.36359543069E+03  0.40072888312E+03  0.12500000000E+03 0.  0.
         25    1    1    2    0    0 -0.12682443092E+03 -0.31711156166E+02  0.11177582775E+04  0.11322979293E+04  0.12500000000E+03 0.  0.
         25    1    1    2    0    0  0.21864001374E+02 -0.10005852082E+02  0.21631051325E+03  0.25098483973E+03  0.12500000000E+03 0.  0.
</event>
<event>
 5    0  0.5660959E-005  0.2510801E+03  0.7546771E-02  0.1112624E+00
         21   -1    0    0  502  501  0.00000000000E+00  0.00000000000E+00  0.36024219300E+02  0.36024219300E+02  0.00000000000E+00 0.  1.
         21   -1    0    0  501  502 -0.00000000000E+00 -0.00000000000E+00 -0.17499669182E+04  0.17499669182E+04  0.00000000000E+00 0.  1.
         25    1    1    2    0    0 -0.10285048683E+03  0.45987876555E+02 -0.41841011832E+03  0.45098241046E+03  0.12500000000E+03 0.  0.
         25    1    1    2    0    0 -0.31437612355E+02  0.93863333003E+01 -0.58334235388E+03  0.59748617436E+03  0.12500000000E+03 0.  0.
         25    1    1    2    0    0  0.13428809919E+03 -0.55374209855E+02 -0.71219022671E+03  0.73752255269E+03  0.12500000000E+03 0.  0.
</event>
<event>
 5    0  0.5660959E-005  0.2888023E+03  0.7546771E-02  0.1090976E+00
         21   -1    0    0  502  501  0.00000000000E+00  0.00000000000E+00  0.11617193242E+03  0.11617193242E+03  0.00000000000E+00 0. -1.
         21   -1    0    0  501  502 -0.00000000000E+00 -0.00000000000E+00 -0.71795967249E+03  0.71795967249E+03  0.00000000000E+00 0. -1.
         25    1    1    2    0    0 -0.63032686518E+02 -0.97298069489E+02 -0.27847580742E+03  0.32651770122E+03  0.12500000000E+03 0.  0.
         25    1    1    2    0    0 -0.54462908279E+02  0.13572650968E+03 -0.82193266193E+02  0.20920952850E+03  0.12500000000E+03 0.  0.
         25    1    1    2    0    0  0.11749559480E+03 -0.38428440194E+02 -0.24111866646E+03  0.29840437519E+03  0.12500000000E+03 0.  0.
</event>
<event>
 5    0  0.5660959E-005  0.3699319E+03  0.7546771E-02  0.1054719E+00
         21   -1    0    0  502  501  0.00000000000E+00  0.00000000000E+00  0.32282310427E+03  0.32282310427E+03  0.00000000000E+00 0. -1.
         21   -1    0    0  501  502 -0.00000000000E+00 -0.00000000000E+00 -0.42391511773E+03  0.42391511773E+03  0.00000000000E+00 0. -1.
         25    1    1    2    0    0  0.88890682736E+02  0.82246227244E+02 -0.51223382312E+02  0.18142444782E+03  0.12500000000E+03 0.  0.
         25    1    1    2    0    0 -0.26254578860E+03 -0.28762977640E+02 -0.14371089830E+03  0.32563080672E+03  0.12500000000E+03 0.  0.
         25    1    1    2    0    0  0.17365510586E+03 -0.53483249604E+02  0.93842267154E+02  0.23968296745E+03  0.12500000000E+03 0.  0.
</event>
<event>
 5    0  0.5660959E-005  0.3069025E+03  0.7546771E-02  0.1081840E+00
         21   -1    0    0  502  501  0.00000000000E+00  0.00000000000E+00  0.13859353691E+03  0.13859353691E+03  0.00000000000E+00 0. -1.
         21   -1    0    0  501  502 -0.00000000000E+00 -0.00000000000E+00 -0.67960709178E+03  0.67960709178E+03  0.00000000000E+00 0. -1.
         25    1    1    2    0    0 -0.94047805921E+02 -0.84902627140E+02 -0.38264679341E+03  0.42201541963E+03  0.12500000000E+03 0.  0.
         25    1    1    2    0    0  0.76495305457E+02  0.12921921566E+03 -0.88884956004E+01  0.19558410673E+03  0.12500000000E+03 0.  0.
         25    1    1    2    0    0  0.17552500464E+02 -0.44316588516E+02 -0.14947826587E+03  0.20060110233E+03  0.12500000000E+03 0.  0.
</event>
<event>
 5    0  0.5660959E-005  0.3738863E+03  0.7546771E-02  0.1053217E+00
         21   -1    0    0  502  501  0.00000000000E+00  0.00000000000E+00  0.18663135988E+04  0.18663135988E+04  0.00000000000E+00 0.  1.
         21   -1    0    0  501  502 -0.00000000000E+00 -0.00000000000E+00 -0.74902194515E+02  0.74902194515E+02  0.00000000000E+00 0.  1.
         25    1    1    2    0    0 -0.23071382175E+03  0.20903803700E+03  0.67654837538E+03  0.75516122298E+03  0.12500000000E+03 0.  0.
         25    1    1    2    0    0  0.15136114318E+03 -0.13188343883E+03  0.60646651310E+03  0.65094551893E+03  0.12500000000E+03 0.  0.
         25    1    1    2    0    0  0.79352678571E+02 -0.77154598163E+02  0.50839651580E+03  0.53510905140E+03  0.12500000000E+03 0.  0.
</event>
<event>
 5    0  0.5660959E-005  0.4140177E+03  0.7546771E-02  0.1039031E+00
         21   -1    0    0  502  501  0.00000000000E+00  0.00000000000E+00  0.13790551159E+03  0.13790551159E+03  0.00000000000E+00 0. -1.
         21   -1    0    0  501  502 -0.00000000000E+00 -0.00000000000E+00 -0.12429572342E+04  0.12429572342E+04  0.00000000000E+00 0. -1.
         25    1    1    2    0    0  0.42280691076E+02 -0.41647149723E+02 -0.20208890301E+02  0.13984112830E+03  0.12500000000E+03 0.  0.
         25    1    1    2    0    0 -0.23305268734E+03 -0.12663240230E+03 -0.73127639281E+03  0.78787021969E+03  0.12500000000E+03 0.  0.
         25    1    1    2    0    0  0.19077199626E+03  0.16827955202E+03 -0.35356643951E+03  0.45315139781E+03  0.12500000000E+03 0.  0.
</event>
<event>
 5    0  0.5660959E-005  0.3637699E+03  0.7546771E-02  0.1057101E+00
         21   -1    0    0  502  501  0.00000000000E+00  0.00000000000E+00  0.17575517980E+04  0.17575517980E+04  0.00000000000E+00 0.  1.
         21   -1    0    0  501  502 -0.00000000000E+00 -0.00000000000E+00 -0.75291412433E+02  0.75291412433E+02  0.00000000000E+00 0.  1.
         25    1    1    2    0    0 -0.26865251342E+02 -0.11009853491E+03  0.42869596373E+03  0.46070452400E+03  0.12500000000E+03 0.  0.
         25    1    1    2    0    0  0.68079447302E+02  0.21173046593E+03  0.11460833760E+04  0.11741365789E+04  0.12500000000E+03 0.  0.
         25    1    1    2    0    0 -0.41214195960E+02 -0.10163193101E+03  0.10748104588E+03  0.19800210750E+03  0.12500000000E+03 0.  0.
</event>
<event>
 5    0  0.5660959E-005  0.2803092E+03  0.7546771E-02  0.1095520E+00
         21   -1    0    0  502  501  0.00000000000E+00  0.00000000000E+00  0.37454629184E+03  0.37454629184E+03  0.00000000000E+00 0.  1.
         21   -1    0    0  501  502 -0.00000000000E+00 -0.00000000000E+00 -0.20978253172E+03  0.20978253172E+03  0.00000000000E+00 0.  1.
         25    1    1    2    0    0  0.71051303060E+02  0.14295350466E+02  0.22278041510E+02  0.14619834419E+03  0.12500000000E+03 0.  0.
         25    1    1    2    0    0 -0.85388689546E+02 -0.15895398718E+03  0.10262286705E+03  0.24230982478E+03  0.12500000000E+03 0.  0.
         25    1    1    2    0    0  0.14337386486E+02  0.14465863672E+03  0.39862851564E+02  0.19582065459E+03  0.12500000000E+03 0.  0.
</event>
<event>
 5    0  0.5660959E-005  0.4115958E+03  0.7546771E-02  0.1039837E+00
         21   -1    0    0  502  501  0.00000000000E+00  0.00000000000E+00  0.43311388487E+03  0.43311388487E+03  0.00000000000E+00 0. -1.
         21   -1    0    0  501  502 -0.00000000000E+00 -0.00000000000E+00 -0.39114682200E+03  0.39114682200E+03  0.00000000000E+00 0. -1.
         25    1    1    2    0    0 -0.79749341871E+02  0.65711666999E+02 -0.30169657531E+03  0.34252562570E+03  0.12500000000E+03 0.  0.
         25    1    1    2    0    0  0.58281303418E+01 -0.12839584004E+03  0.17606284005E+03  0.25128187855E+03  0.12500000000E+03 0.  0.
         25    1    1    2    0    0  0.73921211530E+02  0.62684173038E+02  0.16760079814E+03  0.23045320263E+03  0.12500000000E+03 0.  0.
</event>
<event>
 5    0  0.5660959E-005  0.2418329E+03  0.7546771E-02  0.1118578E+00
         21   -1    0    0  502  501  0.00000000000E+00  0.00000000000E+00  0.17770477759E+04  0.17770477759E+04  0.00000000000E+00 0. -1.
         21   -1    0    0  501  502 -0.00000000000E+00 -0.00000000000E+00 -0.32910292941E+02  0.32910292941E+02  0.00000000000E+00 0. -1.
         25    1    1    2    0    0  0.45948429972E+02 -0.54479774277E+02  0.29810649675E+03  0.33101629481E+03  0.12500000000E+03 0.  0.
         25    1    1    2    0    0  0.85177390599E+01  0.60586891833E+02  0.38920545201E+03  0.41333909470E+03  0.12500000000E+03 0.  0.
         25    1    1    2    0    0 -0.54466169032E+02 -0.61071175564E+01  0.10568255342E+04  0.10656026793E+04  0.12500000000E+03 0.  0.
</event>
<event>
 5    0  0.6357234E-005  0.3978928E+03  0.7546771E-02  0.1044512E+00
         21   -1    0    0  502  501  0.00000000000E+00  0.00000000000E+00  0.86693494177E+03  0.86693494177E+03  0.00000000000E+00 0.  1.
         21   -1    0    0  501  502 -0.00000000000E+00 -0.00000000000E+00 -0.18261888828E+03  0.18261888828E+03  0.00000000000E+00 0.  1.
         25    1    1    2    0    0 -0.13340766890E+03  0.70925615318E+02  0.93669926167E+02  0.21731797923E+03  0.12500000000E+03 0.  0.
         25    1    1    2    0    0  0.15810227054E+03 -0.18379952389E+03  0.65965134981E+02  0.28063319826E+03  0.12500000000E+03 0.  0.
         25    1    1    2    0    0 -0.24694601639E+02  0.11287390858E+03  0.52468099234E+03  0.55160265256E+03  0.12500000000E+03 0.  0.
</event>
<event>
 5    0  0.5660959E-005  0.3012062E+03  0.7546771E-02  0.1084639E+00
         21   -1    0    0  502  501  0.00000000000E+00  0.00000000000E+00  0.10621501416E+04  0.10621501416E+04  0.00000000000E+00 0. -1.
         21   -1    0    0  501  502 -0.00000000000E+00 -0.00000000000E+00 -0.85416540170E+02  0.85416540170E+02  0.00000000000E+00 0. -1.
         25    1    1    2    0    0  0.13473324090E+03  0.53191000725E+02  0.16275996606E+03  0.25119342211E+03  0.12500000000E+03 0.  0.
         25    1    1    2    0    0 -0.95744816298E+02  0.10426339117E+02  0.68154649815E+03  0.69957587690E+03  0.12500000000E+03 0.  0.
         25    1    1    2    0    0 -0.38988424606E+02 -0.63617339841E+02  0.13242713718E+03  0.19679738271E+03  0.12500000000E+03 0.  0.
</event>
<event>
 5    0  0.5660959E-005  0.4005622E+03  0.7546771E-02  0.1043585E+00
         21   -1    0    0  502  501  0.00000000000E+00  0.00000000000E+00  0.15548629034E+03  0.15548629034E+03  0.00000000000E+00 0.  1.
         21   -1    0    0  501  502 -0.00000000000E+00 -0.00000000000E+00 -0.10319244426E+04  0.10319244426E+04  0.00000000000E+00 0.  1.
         25    1    1    2    0    0  0.69995415640E+00 -0.79689401457E+02 -0.96220334201E+02  0.17673212315E+03  0.12500000000E+03 0.  0.
         25    1    1    2    0    0 -0.18897319667E+02 -0.20680906351E+03 -0.10066408329E+03  0.26246019718E+03  0.12500000000E+03 0.  0.
         25    1    1    2    0    0  0.18197365511E+02  0.28649846497E+03 -0.67955373478E+03  0.74821841262E+03  0.12500000000E+03 0.  0.
</event>
<event>
 5    0  0.5660959E-005  0.2399404E+03  0.7546771E-02  0.1119833E+00
         21   -1    0    0  502  501  0.00000000000E+00  0.00000000000E+00  0.27050713367E+03  0.27050713367E+03  0.00000000000E+00 0. -1.
         21   -1    0    0  501  502 -0.00000000000E+00 -0.00000000000E+00 -0.21282762113E+03  0.21282762113E+03  0.00000000000E+00 0. -1.
         25    1    1    2    0    0  0.22188801249E+02 -0.40808051874E+02  0.21116262281E+02  0.13501309763E+03  0.12500000000E+03 0.  0.
         25    1    1    2    0    0 -0.85904846861E+02  0.29207884739E+02 -0.72122420946E+02  0.17046814027E+03  0.12500000000E+03 0.  0.
         25    1    1    2    0    0  0.63716045612E+02  0.11600167135E+02  0.10868567120E+03  0.17785351689E+03  0.12500000000E+03 0.  0.
</event>
<event>
 5    0  0.5660959E-005  0.3070562E+03  0.7546771E-02  0.1081766E+00
         21   -1    0    0  502  501  0.00000000000E+00  0.00000000000E+00  0.18647293878E+03  0.18647293878E+03  0.00000000000E+00 0. -1.
         21   -1    0    0  501  502 -0.00000000000E+00 -0.00000000000E+00 -0.50561483962E+03  0.50561483962E+03  0.00000000000E+00 0. -1.
         25    1    1    2    0    0 -0.34829530857E+02  0.74591886454E+02  0.65810089077E+02  0.16350233506E+03  0.12500000000E+03 0.  0.
         25    1    1    2    0    0 -0.79803154935E+01 -0.60623063971E+02 -0.20481747557E+02  0.14065327335E+03  0.12500000000E+03 0.  0.
         25    1    1    2    0    0  0.42809846351E+02 -0.13968822484E+02 -0.36447024236E+03  0.38793216999E+03  0.12500000000E+03 0.  0.
</event>
<event>
 5    0  0.5660959E-005  0.3316052E+03  0.7546771E-02  0.1070429E+00
         21   -1    0    0  502  501  0.00000000000E+00  0.00000000000E+00  0.27298192923E+03  0.27298192923E+03  0.00000000000E+00 0. -1.
         21   -1    0    0  501  502 -0.00000000000E+00 -0.00000000000E+00 -0.40281801905E+03  0.40281801905E+03  0.00000000000E+00 0. -1.
         25    1    1    2    0    0 -0.47921432743E+02 -0.36080859309E+02 -0.14695942810E+03  0.20204050493E+03  0.12500000000E+03 0.  0.
         25    1    1    2    0    0  0.21300302932E+03 -0.15034983582E+02 -0.45271238946E+02  0.25153692832E+03  0.12500000000E+03 0.  0.
         25    1    1    2    0    0 -0.16508159658E+03  0.51115842891E+02  0.62394577217E+02  0.22222251504E+03  0.12500000000E+03 0.  0.
</event>
<event>
 5    0  0.5660959E-005  0.2348193E+03  0.7546771E-02  0.1123293E+00
         21   -1    0    0  502  501  0.00000000000E+00  0.00000000000E+00  0.23269392614E+03  0.23269392614E+03  0.00000000000E+00 0.  1.
         21   -1    0    0  501  502 -0.00000000000E+00 -0.00000000000E+00 -0.23696400163E+03  0.23696400163E+03  0.00000000000E+00 0.  1.
         25    1    1    2    0    0  0.71845503156E+01 -0.19454051601E+02  0.42627719092E+02  0.13368694896E+03  0.12500000000E+03 0.  0.
         25    1    1    2    0    0 -0.86579433698E+02 -0.50938478976E+02  0.14214341546E+02  0.16098998256E+03  0.12500000000E+03 0.  0.
         25    1    1    2    0    0  0.79394883382E+02  0.70392530577E+02 -0.61112136126E+02  0.17498099625E+03  0.12500000000E+03 0.  0.
</event>
<event>
 5    0  0.5660959E-005  0.3130556E+03  0.7546771E-02  0.1078890E+00
         21   -1    0    0  502  501  0.00000000000E+00  0.00000000000E+00  0.17280695192E+03  0.17280695192E+03  0.00000000000E+00 0. -1.
         21   -1    0    0  501  502 -0.00000000000E+00 -0.00000000000E+00 -0.56712886332E+03  0.56712886332E+03  0.00000000000E+00 0. -1.
         25    1    1    2    0    0 -0.40898588233E+02 -0.10387266196E+03 -0.11298507861E+03  0.20212088564E+03  0.12500000000E+03 0.  0.
         25    1    1    2    0    0 -0.97247740516E+02  0.44972646506E+02  0.32797822923E+02  0.16787006629E+03  0.12500000000E+03 0.  0.
         25    1    1    2    0    0  0.13814632875E+03  0.58900015457E+02 -0.31413465571E+03  0.36994486331E+03  0.12500000000E+03 0.  0.
</event>
<event>
 5    0  0.5660959E-005  0.3748913E+03  0.7546771E-02  0.1052838E+00
         21   -1    0    0  502  501  0.00000000000E+00  0.00000000000E+00  0.75878816661E+03  0.75878816661E+03  0.00000000000E+00 0. -1.
         21   -1    0    0  501  502 -0.00000000000E+00 -0.00000000000E+00 -0.18522099415E+03  0.18522099415E+03  0.00000000000E+00 0. -1.
         25    1    1    2    0    0  0.10367551973E+03  0.85206198592E+02  0.37112875930E+03  0.41396891870E+03  0.12500000000E+03 0.  0.
         25    1    1    2    0    0 -0.20836129452E+03  0.65715900588E+02  0.17412699227E+03  0.30606897602E+03  0.12500000000E+03 0.  0.
         25    1    1    2    0    0  0.10468577479E+03 -0.15092209918E+03  0.28311420891E+02  0.22397126605E+03  0.12500000000E+03 0.  0.
</event>
<event>
 5    0  0.5660959E-005  0.4277934E+03  0.7546771E-02  0.1034559E+00
         21   -1    0    0  502  501  0.00000000000E+00  0.00000000000E+00  0.40525546165E+03  0.40525546165E+03  0.00000000000E+00 0.  1.
         21   -1    0    0  501  502 -0.00000000000E+00 -0.00000000000E+00 -0.45158484284E+03  0.45158484284E+03  0.00000000000E+00 0.  1.
         25    1    1    2    0    0 -0.19512382446E+03  0.68271274870E+02 -0.27122751919E+02  0.24309446212E+03  0.12500000000E+03 0.  0.
         25    1    1    2    0    0 -0.17487524223E+03 -0.84940043589E+01 -0.36861580974E+02  0.21825964952E+03  0.12500000000E+03 0.  0.
         25    1    1    2    0    0  0.36999906669E+03 -0.59777270511E+02  0.17654951696E+02  0.39548619285E+03  0.12500000000E+03 0.  0.
</event>
<event>
 5    0  0.5660959E-005  0.3233531E+03  0.7546771E-02  0.1074116E+00
         21   -1    0    0  502  501  0.00000000000E+00  0.00000000000E+00  0.58175313297E+03  0.58175313297E+03  0.00000000000E+00 0. -1.
         21   -1    0    0  501  502 -0.00000000000E+00 -0.00000000000E+00 -0.17972784177E+03  0.17972784177E+03  0.00000000000E+00 0. -1.
         25    1    1    2    0    0 -0.44776787809E+02 -0.35790748117E+02  0.91931894249E+02  0.16541587456E+03  0.12500000000E+03 0.  0.
         25    1    1    2    0    0  0.10929689566E+02  0.23653830855E+03  0.19266314816E+03  0.32986954722E+03  0.12500000000E+03 0.  0.
         25    1    1    2    0    0  0.33847098243E+02 -0.20074756044E+03  0.11743024879E+03  0.26619555295E+03  0.12500000000E+03 0.  0.
</event>
<event>
 5    0  0.5660959E-005  0.7087390E+03  0.7546771E-02  0.9702403E-01
         21   -1    0    0  502  501  0.00000000000E+00  0.00000000000E+00  0.64047593701E+03  0.64047593701E+03  0.00000000000E+00 0. -1.
         21   -1    0    0  501  502 -0.00000000000E+00 -0.00000000000E+00 -0.78427768056E+03  0.78427768056E+03  0.00000000000E+00 0. -1.
         25    1    1    2    0    0  0.13999351316E+03  0.10575862612E+03  0.13653538469E+03  0.25504897960E+03  0.12500000000E+03 0.  0.
         25    1    1    2    0    0  0.29752312686E+03  0.17631376142E+03  0.22698514149E+03  0.43215021456E+03  0.12500000000E+03 0.  0.
         25    1    1    2    0    0 -0.43751664002E+03 -0.28207238755E+03 -0.50732226973E+03  0.73755442340E+03  0.12500000000E+03 0.  0.
</event>
<event>
 5    0  0.5660959E-005  0.2606659E+03  0.7546771E-02  0.1106744E+00
         21   -1    0    0  502  501  0.00000000000E+00  0.00000000000E+00  0.36821528457E+03  0.36821528457E+03  0.00000000000E+00 0. -1.
         21   -1    0    0  501  502 -0.00000000000E+00 -0.00000000000E+00 -0.18452985400E+03  0.18452985400E+03  0.00000000000E+00 0. -1.
         25    1    1    2    0    0 -0.41560790989E+00 -0.30649596396E+02  0.29804761269E+02  0.13210940271E+03  0.12500000000E+03 0.  0.
         25    1    1    2    0    0  0.10382235229E+03  0.52354561093E+02  0.18746588196E+03  0.25355184441E+03  0.12500000000E+03 0.  0.
         25    1    1    2    0    0 -0.10340674438E+03 -0.21704964697E+02 -0.33585212665E+02  0.16708389146E+03  0.12500000000E+03 0.  0.
</event>
<event>
 5    0  0.7106060E-005  0.5118363E+03  0.7546771E-02  0.1010735E+00
         21   -1    0    0  502  501  0.00000000000E+00  0.00000000000E+00  0.22718520145E+03  0.22718520145E+03  0.00000000000E+00 0.  1.
         21   -1    0    0  501  502 -0.00000000000E+00 -0.00000000000E+00 -0.11531403764E+04  0.11531403764E+04  0.00000000000E+00 0.  1.
         25    1    1    2    0    0  0.17526669623E+03 -0.19590811718E+03 -0.73780674412E+02  0.30027819285E+03  0.12500000000E+03 0.  0.
         25    1    1    2    0    0 -0.29521424963E+03  0.26435649557E+02 -0.18695814072E+03  0.37205999937E+03  0.12500000000E+03 0.  0.
         25    1    1    2    0    0  0.11994755339E+03  0.16947246763E+03 -0.66521635984E+03  0.70798738566E+03  0.12500000000E+03 0.  0.
</event>
<event>
 5    0  0.5660959E-005  0.3474434E+03  0.7546771E-02  0.1063669E+00
         21   -1    0    0  502  501  0.00000000000E+00  0.00000000000E+00  0.16606717377E+03  0.16606717377E+03  0.00000000000E+00 0.  1.
         21   -1    0    0  501  502 -0.00000000000E+00 -0.00000000000E+00 -0.72691600341E+03  0.72691600341E+03  0.00000000000E+00 0.  1.
         25    1    1    2    0    0 -0.81021896304E+02  0.47656922243E+02 -0.97399825940E+02  0.18424835416E+03  0.12500000000E+03 0.  0.
         25    1    1    2    0    0  0.15755030400E+03 -0.22627546602E+03 -0.22922804163E+03  0.37972777076E+03  0.12500000000E+03 0.  0.
         25    1    1    2    0    0 -0.76528407695E+02  0.17861854378E+03 -0.23422096207E+03  0.32900705226E+03  0.12500000000E+03 0.  0.
</event>
<event>
 5    0  0.5660959E-005  0.2689509E+03  0.7546771E-02  0.1101882E+00
         21   -1    0    0  502  501  0.00000000000E+00  0.00000000000E+00  0.23743759807E+03  0.23743759807E+03  0.00000000000E+00 0.  1.
         21   -1    0    0  501  502 -0.00000000000E+00 -0.00000000000E+00 -0.30464663011E+03  0.30464663011E+03  0.00000000000E+00 0.  1.
         25    1    1    2    0    0  0.66217006631E+02 -0.84353825304E+02 -0.64745693445E+02  0.17696684613E+03  0.12500000000E+03 0.  0.
         25    1    1    2    0    0 -0.22494353719E+02 -0.20648510732E+02  0.10393721651E+03  0.16540949768E+03  0.12500000000E+03 0.  0.
         25    1    1    2    0    0 -0.43722652913E+02  0.10500233604E+03 -0.10640055512E+03  0.19970788437E+03  0.12500000000E+03 0.  0.
</event>
<event>
 5    0  0.6191130E-005  0.3331304E+03  0.7546771E-02  0.1069760E+00
         21   -1    0    0  502  501  0.00000000000E+00  0.00000000000E+00  0.25242796143E+03  0.25242796143E+03  0.00000000000E+00 0.  1.
         21   -1    0    0  501  502 -0.00000000000E+00 -0.00000000000E+00 -0.43963369214E+03  0.43963369214E+03  0.00000000000E+00 0.  1.
         25    1    1    2    0    0 -0.11934454960E+02  0.64845551490E+02  0.84411142008E+02  0.16461354032E+03  0.12500000000E+03 0.  0.
         25    1    1    2    0    0 -0.16603338077E+03  0.10509917163E+02 -0.19414110007E+03  0.28459323363E+03  0.12500000000E+03 0.  0.
         25    1    1    2    0    0  0.17796783573E+03 -0.75355468652E+02 -0.77475772643E+02  0.24285487962E+03  0.12500000000E+03 0.  0.
</event>
<event>
 5    0  0.5660959E-005  0.2880375E+03  0.7546771E-02  0.1091378E+00
         21   -1    0    0  502  501  0.00000000000E+00  0.00000000000E+00  0.31811831165E+03  0.31811831165E+03  0.00000000000E+00 0.  1.
         21   -1    0    0  501  502 -0.00000000000E+00 -0.00000000000E+00 -0.26080110556E+03  0.26080110556E+03  0.00000000000E+00 0.  1.
         25    1    1    2    0    0  0.72281552739E+02 -0.10331495322E+03  0.82492296872E+02  0.19577686653E+03  0.12500000000E+03 0.  0.
         25    1    1    2    0    0  0.81796751020E+02 -0.11002690294E+02  0.15446461442E+02  0.15058340162E+03  0.12500000000E+03 0.  0.
         25    1    1    2    0    0 -0.15407830376E+03  0.11431764352E+03 -0.40621552228E+02  0.23255914907E+03  0.12500000000E+03 0.  0.
</event>
<event>
 5    0  0.5660959E-005  0.2366448E+03  0.7546771E-02  0.1122048E+00
         21   -1    0    0  502  501  0.00000000000E+00  0.00000000000E+00  0.13701294095E+04  0.13701294095E+04  0.00000000000E+00 0. -1.
         21   -1    0    0  501  502 -0.00000000000E+00 -0.00000000000E+00 -0.40872615964E+02  0.40872615964E+02  0.00000000000E+00 0. -1.
         25    1    1    2    0    0 -0.23360203850E+01 -0.66816890685E+02  0.30654087628E+03  0.33773105084E+03  0.12500000000E+03 0.  0.
         25    1    1    2    0    0  0.50013828356E+02 -0.45147442821E+01  0.74295613065E+03  0.75506991598E+03  0.12500000000E+03 0.  0.
         25    1    1    2    0    0 -0.47677807971E+02  0.71331634967E+02  0.27975978659E+03  0.31820105863E+03  0.12500000000E+03 0.  0.
</event>
<event>
 5    0  0.5660959E-005  0.2390680E+03  0.7546771E-02  0.1120415E+00
         21   -1    0    0  502  501  0.00000000000E+00  0.00000000000E+00  0.55249379783E+03  0.55249379783E+03  0.00000000000E+00 0.  1.
         21   -1    0    0  501  502 -0.00000000000E+00 -0.00000000000E+00 -0.10344644477E+03  0.10344644477E+03  0.00000000000E+00 0.  1.
         25    1    1    2    0    0 -0.41775732309E+02 -0.56696523655E+02  0.25412860960E+03  0.29183224260E+03  0.12500000000E+03 0.  0.
         25    1    1    2    0    0  0.51672090693E+02 -0.36971886399E+02  0.44710481184E+02  0.14717660299E+03  0.12500000000E+03 0.  0.
         25    1    1    2    0    0 -0.98963583841E+01  0.93668410054E+02  0.15020826228E+03  0.21693139701E+03  0.12500000000E+03 0.  0.
</event>
<event>
 5    0  0.5660959E-005  0.2977509E+03  0.7546771E-02  0.1086370E+00
         21   -1    0    0  502  501  0.00000000000E+00  0.00000000000E+00  0.62767257707E+02  0.62767257707E+02  0.00000000000E+00 0.  1.
         21   -1    0    0  501  502 -0.00000000000E+00 -0.00000000000E+00 -0.14124497894E+04  0.14124497894E+04  0.00000000000E+00 0.  1.
         25    1    1    2    0    0 -0.63920304699E+02 -0.38719019664E+02 -0.21081473693E+03  0.25622806470E+03  0.12500000000E+03 0.  0.
         25    1    1    2    0    0 -0.35390580159E+02  0.12662923853E+03 -0.23473304200E+03  0.29666826291E+03  0.12500000000E+03 0.  0.
         25    1    1    2    0    0  0.99310884858E+02 -0.87910218869E+02 -0.90413475277E+03  0.92232071949E+03  0.12500000000E+03 0.  0.
</event>
<event>
 5    0  0.7585753E-005  0.4006942E+03  0.7546771E-02  0.1043540E+00
         21   -1    0    0  502  501  0.00000000000E+00  0.00000000000E+00  0.95072873469E+02  0.95072873469E+02  0.00000000000E+00 0.  1.
         21   -1    0    0  501  502 -0.00000000000E+00 -0.00000000000E+00 -0.16887657280E+04  0.16887657280E+04  0.00000000000E+00 0.  1.
         25    1    1    2    0    0 -0.13333842098E+01  0.32833119743E+01 -0.12479305691E+04  0.12541803153E+04  0.12500000000E+03 0.  0.
         25    1    1    2    0    0 -0.14034130478E+03 -0.62958499209E+02 -0.13168090870E+03  0.23795864381E+03  0.12500000000E+03 0.  0.
         25    1    1    2    0    0  0.14167468899E+03  0.59675187235E+02 -0.21408137672E+03  0.29169964232E+03  0.12500000000E+03 0.  0.
</event>
<event>
 5    0  0.5660959E-005  0.2430883E+03  0.7546771E-02  0.1117752E+00
         21   -1    0    0  502  501  0.00000000000E+00  0.00000000000E+00  0.20208955957E+03  0.20208955957E+03  0.00000000000E+00 0.  1.
         21   -1    0    0  501  502 -0.00000000000E+00 -0.00000000000E+00 -0.29240452409E+03  0.29240452409E+03  0.00000000000E+00 0.  1.
         25    1    1    2    0    0 -0.63194097016E+00 -0.21964286198E+02 -0.49185046056E+02  0.13611391543E+03  0.12500000000E+03 0.  0.
         25    1    1    2    0    0 -0.11938331297E+02  0.13645682875E+03 -0.11093326283E+02  0.18577150415E+03  0.12500000000E+03 0.  0.
         25    1    1    2    0    0  0.12570272267E+02 -0.11449254255E+03 -0.30036592183E+02  0.17260866408E+03  0.12500000000E+03 0.  0.
</event>
<event>
 5    0  0.5660959E-005  0.2555069E+03  0.7546771E-02  0.1109873E+00
         21   -1    0    0  502  501  0.00000000000E+00  0.00000000000E+00  0.34649305380E+02  0.34649305380E+02  0.00000000000E+00 0. -1.
         21   -1    0    0  501  502 -0.00000000000E+00 -0.00000000000E+00 -0.18841293992E+04  0.18841293992E+04  0.00000000000E+00 0. -1.
         25    1    1    2    0    0  0.11880053860E+03 -0.31217601066E+02 -0.78921886233E+03  0.80844265056E+03  0.12500000000E+03 0.  0.
         25    1    1    2    0    0 -0.14773079070E+03  0.26308649878E+02 -0.73889429754E+03  0.76426848327E+03  0.12500000000E+03 0.  0.
         25    1    1    2    0    0  0.28930252096E+02  0.49089511874E+01 -0.32136693392E+03  0.34606757072E+03  0.12500000000E+03 0.  0.
</event>
<event>
 5    0  0.5660959E-005  0.2553727E+03  0.7546771E-02  0.1109956E+00
         21   -1    0    0  502  501  0.00000000000E+00  0.00000000000E+00  0.19969965396E+04  0.19969965396E+04  0.00000000000E+00 0.  1.
         21   -1    0    0  501  502 -0.00000000000E+00 -0.00000000000E+00 -0.32656655992E+02  0.32656655992E+02  0.00000000000E+00 0.  1.
         25    1    1    2    0    0 -0.43573811225E+01  0.92097966680E+02  0.43127359719E+03  0.45839168609E+03  0.12500000000E+03 0.  0.
         25    1    1    2    0    0 -0.53544918383E+02  0.44268441845E+02  0.81705277601E+03  0.82947392486E+03  0.12500000000E+03 0.  0.
         25    1    1    2    0    0  0.57902299505E+02 -0.13636640852E+03  0.71601351043E+03  0.74178758467E+03  0.12500000000E+03 0.  0.
</event>
<event>
 5    0  0.5660959E-005  0.2549620E+03  0.7546771E-02  0.1110208E+00
         21   -1    0    0  502  501  0.00000000000E+00  0.00000000000E+00  0.29536639979E+02  0.29536639979E+02  0.00000000000E+00 0. -1.
         21   -1    0    0  501  502 -0.00000000000E+00 -0.00000000000E+00 -0.22008475696E+04  0.22008475696E+04  0.00000000000E+00 0. -1.
         25    1    1    2    0    0  0.98828960944E+02  0.17014598317E+02 -0.30410997841E+03  0.34375069315E+03  0.12500000000E+03 0.  0.
         25    1    1    2    0    0 -0.42638166923E+02 -0.15912943729E+02 -0.92586694871E+03  0.93537470662E+03  0.12500000000E+03 0.  0.
         25    1    1    2    0    0 -0.56190794021E+02 -0.11016545874E+01 -0.94133400252E+03  0.95125880983E+03  0.12500000000E+03 0.  0.
</event>
<event>
 5    0  0.5660959E-005  0.2894010E+03  0.7546771E-02  0.1090662E+00
         21   -1    0    0  502  501  0.00000000000E+00  0.00000000000E+00  0.84102394887E+02  0.84102394887E+02  0.00000000000E+00 0.  1.
         21   -1    0    0  501  502 -0.00000000000E+00 -0.00000000000E+00 -0.99584481759E+03  0.99584481759E+03  0.00000000000E+00 0.  1.
         25    1    1    2    0    0  0.71665359773E+02  0.96954478595E+00 -0.68415160532E+03  0.69916041283E+03  0.12500000000E+03 0.  0.
         25    1    1    2    0    0 -0.46778158610E+02  0.65288396982E+02 -0.60466001192E+02  0.16041168350E+03  0.12500000000E+03 0.  0.
         25    1    1    2    0    0 -0.24887201163E+02 -0.66257941767E+02 -0.16712481619E+03  0.22037511615E+03  0.12500000000E+03 0.  0.
</event>
<event>
 5    0  0.5691913E-005  0.3960197E+03  0.7546771E-02  0.1045167E+00
         21   -1    0    0  502  501  0.00000000000E+00  0.00000000000E+00  0.16036931563E+03  0.16036931563E+03  0.00000000000E+00 0. -1.
         21   -1    0    0  501  502 -0.00000000000E+00 -0.00000000000E+00 -0.97794013085E+03  0.97794013085E+03  0.00000000000E+00 0. -1.
         25    1    1    2    0    0 -0.29630109283E+02  0.50755892463E+02  0.36981714051E+02  0.14299213674E+03  0.12500000000E+03 0.  0.
         25    1    1    2    0    0 -0.10230356591E+03  0.42928139017E+02 -0.74466231455E+03  0.76318792406E+03  0.12500000000E+03 0.  0.
         25    1    1    2    0    0  0.13193367520E+03 -0.93684031480E+02 -0.10989021472E+03  0.23212938568E+03  0.12500000000E+03 0.  0.
</event>
<event>
 5    0  0.5660959E-005  0.4498872E+03  0.7546771E-02  0.1027756E+00
         21   -1    0    0  502  501  0.00000000000E+00  0.00000000000E+00  0.13510779651E+03  0.13510779651E+03  0.00000000000E+00 0. -1.
         21   -1    0    0  501  502 -0.00000000000E+00 -0.00000000000E+00 -0.14980519588E+04  0.14980519588E+04  0.00000000000E+00 0. -1.
         25    1    1    2    0    0 -0.23174842966E+03  0.17867137511E+03 -0.23501077047E+03  0.39558293336E+03  0.12500000000E+03 0.  0.
         25    1    1    2    0    0  0.28974961579E+03 -0.50304197565E+02 -0.66454449970E+03  0.73738032536E+03  0.12500000000E+03 0.  0.
         25    1    1    2    0    0 -0.58001186131E+02 -0.12836717755E+03 -0.46338889217E+03  0.50019649664E+03  0.12500000000E+03 0.  0.
</event>
<event>
 5    0  0.5660959E-005  0.4377272E+03  0.7546771E-02  0.1031446E+00
         21   -1    0    0  502  501  0.00000000000E+00  0.00000000000E+00  0.12205371428E+03  0.12205371428E+03  0.00000000000E+00 0. -1.
         21   -1    0    0  501  502 -0.00000000000E+00 -0.00000000000E+00 -0.15698424175E+04  0.15698424175E+04  0.00000000000E+00 0. -1.
         25    1    1    2    0    0  0.34872487028E+02  0.13997989744E+03 -0.70857565391E+02  0.20360809564E+03  0.12500000000E+03 0.  0.
         25    1    1    2    0    0 -0.12493004703E+03  0.15305342628E+03 -0.56878824729E+03  0.61496173719E+03  0.12500000000E+03 0.  0.
         25    1    1    2    0    0  0.90057560006E+02 -0.29303332372E+03 -0.80814289055E+03  0.87332629897E+03  0.12500000000E+03 0.  0.
</event>
<event>
 5    0  0.5660959E-005  0.2877013E+03  0.7546771E-02  0.1091555E+00
         21   -1    0    0  502  501  0.00000000000E+00  0.00000000000E+00  0.40249634804E+03  0.40249634804E+03  0.00000000000E+00 0.  1.
         21   -1    0    0  501  502 -0.00000000000E+00 -0.00000000000E+00 -0.20564672851E+03  0.20564672851E+03  0.00000000000E+00 0.  1.
         25    1    1    2    0    0  0.16294861281E+03 -0.40088667204E+01 -0.20754154093E+02  0.20645594286E+03  0.12500000000E+03 0.  0.
         25    1    1    2    0    0 -0.11877909257E+02  0.35224919946E+02  0.13172820923E+03  0.18536235006E+03  0.12500000000E+03 0.  0.
         25    1    1    2    0    0 -0.15107070355E+03 -0.31216053225E+02  0.85875564390E+02  0.21632478363E+03  0.12500000000E+03 0.  0.
</event>
<event>
 5    0  0.5723224E-005  0.4521509E+03  0.7546771E-02  0.1027083E+00
         21   -1    0    0  502  501  0.00000000000E+00  0.00000000000E+00  0.24967759361E+03  0.24967759361E+03  0.00000000000E+00 0. -1.
         21   -1    0    0  501  502 -0.00000000000E+00 -0.00000000000E+00 -0.81881784260E+03  0.81881784260E+03  0.00000000000E+00 0. -1.
         25    1    1    2    0    0 -0.16117825123E+03  0.12520932665E+03 -0.52934136065E+03  0.58093293954E+03  0.12500000000E+03 0.  0.
         25    1    1    2    0    0  0.26270247242E+03 -0.25693112374E+02 -0.56684884604E+02  0.29750781701E+03  0.12500000000E+03 0.  0.
         25    1    1    2    0    0 -0.10152422118E+03 -0.99516214277E+02  0.16885996272E+02  0.19005467966E+03  0.12500000000E+03 0.  0.
</event>
<event>
 5    0  0.5660959E-005  0.2572302E+03  0.7546771E-02  0.1108819E+00
         21   -1    0    0  502  501  0.00000000000E+00  0.00000000000E+00  0.72559703185E+02  0.72559703185E+02  0.00000000000E+00 0.  1.
         21   -1    0    0  501  502 -0.00000000000E+00 -0.00000000000E+00 -0.91190268795E+03  0.91190268795E+03  0.00000000000E+00 0.  1.
         25    1    1    2    0    0 -0.10721034261E+03  0.10146230142E+02 -0.48533568604E+03  0.51261362808E+03  0.12500000000E+03 0.  0.
         25    1    1    2    0    0 -0.19958672919E+02 -0.86470534151E+01 -0.19662584400E+03  0.23400821072E+03  0.12500000000E+03 0.  0.
         25    1    1    2    0    0  0.12716901553E+03 -0.14991767271E+01 -0.15738145473E+03  0.23784055234E+03  0.12500000000E+03 0.  0.
</event>
<event>
 5    0  0.6584188E-005  0.2817662E+03  0.7546771E-02  0.1094728E+00
         21   -1    0    0  502  501  0.00000000000E+00  0.00000000000E+00  0.19020497339E+03  0.19020497339E+03  0.00000000000E+00 0. -1.
         21   -1    0    0  501  502 -0.00000000000E+00 -0.00000000000E+00 -0.41740340787E+03  0.41740340787E+03  0.00000000000E+00 0. -1.
         25    1    1    2    0    0 -0.55704004468E+02  0.72780296067E+02 -0.95409230588E+02  0.18201051863E+03  0.12500000000E+03 0.  0.
         25    1    1    2    0    0  0.22281120738E+02 -0.18437521495E+03 -0.27825529967E+02  0.22558796144E+03  0.12500000000E+03 0.  0.
         25    1    1    2    0    0  0.33422883730E+02  0.11159491889E+03 -0.10396367393E+03  0.20000990119E+03  0.12500000000E+03 0.  0.
</event>
<event>
 5    0  0.5660959E-005  0.2714014E+03  0.7546771E-02  0.1100480E+00
         21   -1    0    0  502  501  0.00000000000E+00  0.00000000000E+00  0.82191213414E+03  0.82191213414E+03  0.00000000000E+00 0. -1.
         21   -1    0    0  501  502 -0.00000000000E+00 -0.00000000000E+00 -0.89618758442E+02  0.89618758442E+02  0.00000000000E+00 0. -1.
         25    1    1    2    0    0  0.24033862825E+02 -0.11573627377E+03  0.33554371607E+03  0.37707704388E+03  0.12500000000E+03 0.  0.
         25    1    1    2    0    0  0.45459742958E+02  0.11195169057E+03  0.33741252169E+03  0.37956814809E+03  0.12500000000E+03 0.  0.
         25    1    1    2    0    0 -0.69493605782E+02  0.37845832026E+01  0.59337137933E+02  0.15488570061E+03  0.12500000000E+03 0.  0.
</event>
<event>
 5    0  0.5660959E-005  0.3209498E+03  0.7546771E-02  0.1075213E+00
         21   -1    0    0  502  501  0.00000000000E+00  0.00000000000E+00  0.14920858619E+04  0.14920858619E+04  0.00000000000E+00 0. -1.
         21   -1    0    0  501  502 -0.00000000000E+00 -0.00000000000E+00 -0.69036779639E+02  0.69036779639E+02  0.00000000000E+00 0. -1.
         25    1    1    2    0    0  0.18616199566E+03  0.28187096653E+02  0.54777618079E+03  0.59256606829E+03  0.12500000000E+03 0.  0.
         25    1    1    2    0    0 -0.94510228970E+02  0.16876619175E+02  0.12513548397E+03  0.20124833664E+03  0.12500000000E+03 0.  0.
         25    1    1    2    0    0 -0.91651766694E+02 -0.45063715828E+02  0.75013741753E+03  0.76730823663E+03  0.12500000000E+03 0.  0.
</event>
<event>
 5    0  0.5660959E-005  0.3778843E+03  0.7546771E-02  0.1051719E+00
         21   -1    0    0  502  501  0.00000000000E+00  0.00000000000E+00  0.26806085499E+03  0.26806085499E+03  0.00000000000E+00 0. -1.
         21   -1    0    0  501  502 -0.00000000000E+00 -0.00000000000E+00 -0.53270190373E+03  0.53270190373E+03  0.00000000000E+00 0. -1.
         25    1    1    2    0    0 -0.54611295389E+01  0.22903419712E+03  0.78641648490E+02  0.27257291916E+03  0.12500000000E+03 0.  0.
         25    1    1    2    0    0 -0.66489774335E+02 -0.19631191559E+03 -0.14976516583E+03  0.28462934351E+03  0.12500000000E+03 0.  0.
         25    1    1    2    0    0  0.71950903874E+02 -0.32722281528E+02 -0.19351753140E+03  0.24356049605E+03  0.12500000000E+03 0.  0.
</event>
<event>
 5    0  0.6651831E-005  0.4923987E+03  0.7546771E-02  0.1015782E+00
         21   -1    0    0  502  501  0.00000000000E+00  0.00000000000E+00  0.26755930947E+03  0.26755930947E+03  0.00000000000E+00 0.  1.
         21   -1    0    0  501  502 -0.00000000000E+00 -0.00000000000E+00 -0.90617857046E+03  0.90617857046E+03  0.00000000000E+00 0.  1.
         25    1    1    2    0    0 -0.19709656347E+03 -0.27971798711E+01  0.55940440434E+02  0.24001919178E+03  0.12500000000E+03 0.  0.
         25    1    1    2    0    0 -0.21194655728E+02 -0.23737031521E+03 -0.37384156818E+03  0.46062609357E+03  0.12500000000E+03 0.  0.
         25    1    1    2    0    0  0.21829121920E+03  0.24016749508E+03 -0.32071813324E+03  0.47309259459E+03  0.12500000000E+03 0.  0.
</event>
<event>
 5    0  0.5660959E-005  0.3902106E+03  0.7546771E-02  0.1047223E+00
         21   -1    0    0  502  501  0.00000000000E+00  0.00000000000E+00  0.39602810783E+03  0.39602810783E+03  0.00000000000E+00 0. -1.
         21   -1    0    0  501  502 -0.00000000000E+00 -0.00000000000E+00 -0.38447850126E+03  0.38447850126E+03  0.00000000000E+00 0. -1.
         25    1    1    2    0    0  0.20073391126E+03  0.19128581272E+03  0.16303705775E+03  0.34509483838E+03  0.12500000000E+03 0.  0.
         25    1    1    2    0    0 -0.10614908989E+02 -0.10643960065E+03 -0.75049466369E+02  0.18082999552E+03  0.12500000000E+03 0.  0.
         25    1    1    2    0    0 -0.19011900227E+03 -0.84846212072E+02 -0.76437984809E+02  0.25458177517E+03  0.12500000000E+03 0.  0.
</event>
<event>
 5    0  0.5660959E-005  0.3046862E+03  0.7546771E-02  0.1082921E+00
         21   -1    0    0  502  501  0.00000000000E+00  0.00000000000E+00  0.33483629968E+03  0.33483629968E+03  0.00000000000E+00 0.  1.
         21   -1    0    0  501  502 -0.00000000000E+00 -0.00000000000E+00 -0.27725087174E+03  0.27725087174E+03  0.00000000000E+00 0.  1.
         25    1    1    2    0    0 -0.91384583652E+02  0.37261753622E+02 -0.10813602233E+03  0.19250449277E+03  0.12500000000E+03 0.  0.
         25    1    1    2    0    0 -0.61059895284E+02  0.39380041187E+02  0.14867195697E+03  0.20738237448E+03  0.12500000000E+03 0.  0.
         25    1    1    2    0    0  0.15244447894E+03 -0.76641794809E+02  0.17049493302E+02  0.21220030417E+03  0.12500000000E+03 0.  0.
</event>
<event>
 5    0  0.6872523E-005  0.2769429E+03  0.7546771E-02  0.1097370E+00
         21   -1    0    0  502  501  0.00000000000E+00  0.00000000000E+00  0.12322501417E+04  0.12322501417E+04  0.00000000000E+00 0. -1.
         21   -1    0    0  501  502 -0.00000000000E+00 -0.00000000000E+00 -0.62241705212E+02  0.62241705212E+02  0.00000000000E+00 0. -1.
         25    1    1    2    0    0 -0.38736546895E+02 -0.20725361778E+02  0.52044269195E+03  0.53704343986E+03  0.12500000000E+03 0.  0.
         25    1    1    2    0    0  0.45724692828E+02 -0.92986103834E+02  0.51894709565E+03  0.54375385159E+03  0.12500000000E+03 0.  0.
         25    1    1    2    0    0 -0.69881459330E+01  0.11371146561E+03  0.13061864888E+03  0.21369455545E+03  0.12500000000E+03 0.  0.
</event>
<event>
 5    0  0.6463304E-005  0.3719619E+03  0.7546771E-02  0.1053945E+00
         21   -1    0    0  502  501  0.00000000000E+00  0.00000000000E+00  0.25749167169E+03  0.25749167169E+03  0.00000000000E+00 0.  1.
         21   -1    0    0  501  502 -0.00000000000E+00 -0.00000000000E+00 -0.53732101785E+03  0.53732101785E+03  0.00000000000E+00 0.  1.
         25    1    1    2    0    0 -0.81708286117E+02  0.61066484926E+02  0.75710671944E+02  0.17822027227E+03  0.12500000000E+03 0.  0.
         25    1    1    2    0    0 -0.77663531548E+02 -0.97807045316E+02 -0.37021300841E+03  0.41022007977E+03  0.12500000000E+03 0.  0.
         25    1    1    2    0    0  0.15937181767E+03  0.36740560390E+02  0.14672990309E+02  0.20637233751E+03  0.12500000000E+03 0.  0.
</event>
<event>
 5    0  0.5660959E-005  0.3125286E+03  0.7546771E-02  0.1079140E+00
         21   -1    0    0  502  501  0.00000000000E+00  0.00000000000E+00  0.15503826529E+03  0.15503826529E+03  0.00000000000E+00 0.  1.
         21   -1    0    0  501  502 -0.00000000000E+00 -0.00000000000E+00 -0.63000016328E+03  0.63000016328E+03  0.00000000000E+00 0.  1.
         25    1    1    2    0    0 -0.15221294645E+03 -0.64009153924E+02 -0.85921822594E+02  0.22421755607E+03  0.12500000000E+03 0.  0.
         25    1    1    2    0    0 -0.43923121459E+02 -0.34286572121E+02 -0.21238227900E+03  0.25265795468E+03  0.12500000000E+03 0.  0.
         25    1    1    2    0    0  0.19613606791E+03  0.98295726045E+02 -0.17665779640E+03  0.30816291782E+03  0.12500000000E+03 0.  0.
</event>
<event>
 5    0  0.5660959E-005  0.4302164E+03  0.7546771E-02  0.1033792E+00
         21   -1    0    0  502  501  0.00000000000E+00  0.00000000000E+00  0.54219915968E+03  0.54219915968E+03  0.00000000000E+00 0. -1.
         21   -1    0    0  501  502 -0.00000000000E+00 -0.00000000000E+00 -0.34136199600E+03  0.34136199600E+03  0.00000000000E+00 0. -1.
         25    1    1    2    0    0 -0.58764700732E+02 -0.92736736585E+02 -0.18674048370E+03  0.25010078092E+03  0.12500000000E+03 0.  0.
         25    1    1    2    0    0  0.39241689798E+02 -0.90003752059E+02 -0.28738735941E+02  0.16152863692E+03  0.12500000000E+03 0.  0.
         25    1    1    2    0    0  0.19523010934E+02  0.18274048864E+03  0.41631638333E+03  0.47193173783E+03  0.12500000000E+03 0.  0.
</event>
<event>
 5    0  0.5660959E-005  0.2726288E+03  0.7546771E-02  0.1099784E+00
         21   -1    0    0  502  501  0.00000000000E+00  0.00000000000E+00  0.48842779352E+02  0.48842779352E+02  0.00000000000E+00 0. -1.
         21   -1    0    0  501  502 -0.00000000000E+00 -0.00000000000E+00 -0.15217495862E+04  0.15217495862E+04  0.00000000000E+00 0. -1.
         25    1    1    2    0    0  0.93869222968E+02 -0.18842317655E+02 -0.39846945987E+03  0.42844996721E+03  0.12500000000E+03 0.  0.
         25    1    1    2    0    0 -0.16346152921E+03  0.48603429506E+02 -0.40423255584E+03  0.45619176241E+03  0.12500000000E+03 0.  0.
         25    1    1    2    0    0  0.69592306238E+02 -0.29761111850E+02 -0.67020479111E+03  0.68595063590E+03  0.12500000000E+03 0.  0.
</event>
<event>
 5    0  0.5660959E-005  0.3340480E+03  0.7546771E-02  0.1069360E+00
         21   -1    0    0  502  501  0.00000000000E+00  0.00000000000E+00  0.80118331996E+02  0.80118331996E+02  0.00000000000E+00 0.  1.
         21   -1    0    0  501  502 -0.00000000000E+00 -0.00000000000E+00 -0.13927904785E+04  0.13927904785E+04  0.00000000000E+00 0.  1.
         25    1    1    2    0    0 -0.80875478640E+02 -0.40952969720E+02 -0.80251985225E+03  0.81723992930E+03  0.12500000000E+03 0.  0.
         25    1    1    2    0    0  0.15193828744E+03  0.91535626063E+02 -0.43411672513E+03  0.48533117050E+03  0.12500000000E+03 0.  0.
         25    1    1    2    0    0 -0.71062808800E+02 -0.50582656344E+02 -0.76035569148E+02  0.17033771072E+03  0.12500000000E+03 0.  0.
</event>
<event>
 5    0  0.5660959E-005  0.2828334E+03  0.7546771E-02  0.1094151E+00
         21   -1    0    0  502  501  0.00000000000E+00  0.00000000000E+00  0.33160094714E+03  0.33160094714E+03  0.00000000000E+00 0. -1.
         21   -1    0    0  501  502 -0.00000000000E+00 -0.00000000000E+00 -0.24123794368E+03  0.24123794368E+03  0.00000000000E+00 0. -1.
         25    1    1    2    0    0 -0.61793503969E+02  0.15413945900E+03  0.36563779003E+02  0.21104340759E+03  0.12500000000E+03 0.  0.
         25    1    1    2    0    0 -0.54601671222E+01 -0.17059218763E+03  0.56149854838E+02  0.21888196386E+03  0.12500000000E+03 0.  0.
         25    1    1    2    0    0  0.67253671091E+02  0.16452728629E+02 -0.23506303799E+01  0.14291351937E+03  0.12500000000E+03 0.  0.
</event>
<event>
 5    0  0.5660959E-005  0.2678570E+03  0.7546771E-02  0.1102512E+00
         21   -1    0    0  502  501  0.00000000000E+00  0.00000000000E+00  0.54557419661E+02  0.54557419661E+02  0.00000000000E+00 0. -1.
         21   -1    0    0  501  502 -0.00000000000E+00 -0.00000000000E+00 -0.13150803081E+04  0.13150803081E+04  0.00000000000E+00 0. -1.
         25    1    1    2    0    0 -0.24867185028E+02  0.50083571974E+02 -0.69824536582E+03  0.71154643697E+03  0.12500000000E+03 0.  0.
         25    1    1    2    0    0 -0.69666110205E+02  0.30114412056E+02 -0.14848824686E+03  0.20840826323E+03  0.12500000000E+03 0.  0.
         25    1    1    2    0    0  0.94533295233E+02 -0.80197984030E+02 -0.41378927574E+03  0.44968302755E+03  0.12500000000E+03 0.  0.
</event>
<event>
 5    0  0.5660959E-005  0.3725928E+03  0.7546771E-02  0.1053706E+00
         21   -1    0    0  502  501  0.00000000000E+00  0.00000000000E+00  0.26115416691E+03  0.26115416691E+03  0.00000000000E+00 0.  1.
         21   -1    0    0  501  502 -0.00000000000E+00 -0.00000000000E+00 -0.53158403426E+03  0.53158403426E+03  0.00000000000E+00 0.  1.
         25    1    1    2    0    0  0.14770179327E+03 -0.19478563793E+02 -0.10243937437E+02  0.19474386367E+03  0.12500000000E+03 0.  0.
         25    1    1    2    0    0  0.14273687986E+03  0.92839014505E+02 -0.74141631545E+02  0.22386353212E+03  0.12500000000E+03 0.  0.
         25    1    1    2    0    0 -0.29043867313E+03 -0.73360450713E+02 -0.18604429837E+03  0.37413080538E+03  0.12500000000E+03 0.  0.
</event>
<event>
 5    0  0.5660959E-005  0.4731116E+03  0.7546771E-02  0.1021046E+00
         21   -1    0    0  502  501  0.00000000000E+00  0.00000000000E+00  0.80248781490E+03  0.80248781490E+03  0.00000000000E+00 0.  1.
         21   -1    0    0  501  502 -0.00000000000E+00 -0.00000000000E+00 -0.27892585525E+03  0.27892585525E+03  0.00000000000E+00 0.  1.
         25    1    1    2    0    0  0.91763419679E+01  0.28137550878E+03  0.48163724569E+03  0.57171305620E+03  0.12500000000E+03 0.  0.
         25    1    1    2    0    0 -0.11460447969E+03 -0.20124285932E+03  0.14497830193E+03  0.30046061843E+03  0.12500000000E+03 0.  0.
         25    1    1    2    0    0  0.10542813772E+03 -0.80132649456E+02 -0.10305358797E+03  0.20923999552E+03  0.12500000000E+03 0.  0.
</event>
<event>
 5    0  0.5660959E-005  0.3216512E+03  0.7546771E-02  0.1074892E+00
         21   -1    0    0  502  501  0.00000000000E+00  0.00000000000E+00  0.21085757977E+03  0.21085757977E+03  0.00000000000E+00 0. -1.
         21   -1    0    0  501  502 -0.00000000000E+00 -0.00000000000E+00 -0.49066057482E+03  0.49066057482E+03  0.00000000000E+00 0. -1.
         25    1    1    2    0    0  0.55274291419E+01 -0.71828724342E+02 -0.72014076144E+02  0.16124808612E+03  0.12500000000E+03 0.  0.
         25    1    1    2    0    0 -0.10140477920E+03 -0.11616827439E+03  0.27485808135E+02  0.20039577557E+03  0.12500000000E+03 0.  0.
         25    1    1    2    0    0  0.95877350057E+02  0.18799699873E+03 -0.23527472704E+03  0.33987429289E+03  0.12500000000E+03 0.  0.
</event>
<event>
 5    0  0.5660959E-005  0.3696007E+03  0.7546771E-02  0.1054846E+00
         21   -1    0    0  502  501  0.00000000000E+00  0.00000000000E+00  0.41847146486E+03  0.41847146486E+03  0.00000000000E+00 0.  1.
         21   -1    0    0  501  502 -0.00000000000E+00 -0.00000000000E+00 -0.32643732282E+03  0.32643732282E+03  0.00000000000E+00 0.  1.
         25    1    1    2    0    0 -0.15065925718E+03 -0.20565529927E+03 -0.70545166269E+02  0.29256441064E+03  0.12500000000E+03 0.  0.
         25    1    1    2    0    0  0.82865268482E+02  0.14218025327E+02 -0.20050485925E+02  0.15197311259E+03  0.12500000000E+03 0.  0.
         25    1    1    2    0    0  0.67793988693E+02  0.19143727395E+03  0.18262979424E+03  0.30037126444E+03  0.12500000000E+03 0.  0.
</event>
<event>
 5    0  0.5660959E-005  0.4798830E+03  0.7546771E-02  0.1019167E+00
         21   -1    0    0  502  501  0.00000000000E+00  0.00000000000E+00  0.63442408600E+03  0.63442408600E+03  0.00000000000E+00 0. -1.
         21   -1    0    0  501  502 -0.00000000000E+00 -0.00000000000E+00 -0.36298693991E+03  0.36298693991E+03  0.00000000000E+00 0. -1.
         25    1    1    2    0    0  0.16201730950E+03 -0.12244187248E+03 -0.32717735607E+02  0.24070120676E+03  0.12500000000E+03 0.  0.
         25    1    1    2    0    0  0.10699477129E+03 -0.10127261207E+02 -0.13315514442E+03  0.21190973311E+03  0.12500000000E+03 0.  0.
         25    1    1    2    0    0 -0.26901208078E+03  0.13256913368E+03  0.43731002611E+03  0.54480008604E+03  0.12500000000E+03 0.  0.
</event>
<event>
 5    0  0.5716527E-005  0.3770373E+03  0.7546771E-02  0.1052034E+00
         21   -1    0    0  502  501  0.00000000000E+00  0.00000000000E+00  0.25934324769E+03  0.25934324769E+03  0.00000000000E+00 0. -1.
         21   -1    0    0  501  502 -0.00000000000E+00 -0.00000000000E+00 -0.54814265600E+03  0.54814265600E+03  0.00000000000E+00 0. -1.
         25    1    1    2    0    0 -0.12954999622E+03 -0.14088333075E+03 -0.10516572486E+03  0.25162699396E+03  0.12500000000E+03 0.  0.
         25    1    1    2    0    0 -0.69211659311E+02  0.23205877703E+03 -0.86853365465E+02  0.28602453894E+03  0.12500000000E+03 0.  0.
         25    1    1    2    0    0  0.19876165553E+03 -0.91175446283E+02 -0.96780317985E+02  0.26983437080E+03  0.12500000000E+03 0.  0.
</event>
<event>
 5    0  0.5660959E-005  0.2718383E+03  0.7546771E-02  0.1100232E+00
         21   -1    0    0  502  501  0.00000000000E+00  0.00000000000E+00  0.54725860572E+02  0.54725860572E+02  0.00000000000E+00 0.  1.
         21   -1    0    0  501  502 -0.00000000000E+00 -0.00000000000E+00 -0.13502955294E+04  0.13502955294E+04  0.00000000000E+00 0.  1.
         25    1    1    2    0    0 -0.94527919544E+02  0.12148278760E+03 -0.32179166004E+03  0.37797945411E+03  0.12500000000E+03 0.  0.
         25    1    1    2    0    0  0.77237735085E+02 -0.20868708539E+02 -0.30674375133E+03  0.34076076608E+03  0.12500000000E+03 0.  0.
         25    1    1    2    0    0  0.17290184459E+02 -0.10061407906E+03 -0.66703425750E+03  0.68628116983E+03  0.12500000000E+03 0.  0.
</event>
<event>
 5    0  0.5660959E-005  0.5333225E+03  0.7546771E-02  0.1005430E+00
         21   -1    0    0  502  501  0.00000000000E+00  0.00000000000E+00  0.25961749322E+03  0.25961749322E+03  0.00000000000E+00 0. -1.
         21   -1    0    0  501  502 -0.00000000000E+00 -0.00000000000E+00 -0.10955844492E+04  0.10955844492E+04  0.00000000000E+00 0. -1.
         25    1    1    2    0    0 -0.97667670993E+02 -0.75731416370E+02 -0.14301015722E+03  0.22660786935E+03  0.12500000000E+03 0.  0.
         25    1    1    2    0    0  0.33769793291E+03 -0.14888725968E+03 -0.67134278850E+03  0.77623028133E+03  0.12500000000E+03 0.  0.
         25    1    1    2    0    0 -0.24003026192E+03  0.22461867605E+03 -0.21614010236E+02  0.35236379171E+03  0.12500000000E+03 0.  0.
</event>
<event>
 5    0  0.5660959E-005  0.3320071E+03  0.7546771E-02  0.1070252E+00
         21   -1    0    0  502  501  0.00000000000E+00  0.00000000000E+00  0.12785026353E+03  0.12785026353E+03  0.00000000000E+00 0.  1.
         21   -1    0    0  501  502 -0.00000000000E+00 -0.00000000000E+00 -0.86217051857E+03  0.86217051857E+03  0.00000000000E+00 0.  1.
         25    1    1    2    0    0  0.19312690191E+03  0.84866935476E+02 -0.29038837420E+03  0.38006684261E+03  0.12500000000E+03 0.  0.
         25    1    1    2    0    0 -0.18030551974E+03  0.58160773299E+02 -0.26161133299E+03  0.34634988891E+03  0.12500000000E+03 0.  0.
         25    1    1    2    0    0 -0.12821382178E+02 -0.14302770877E+03 -0.18232054784E+03  0.26360405058E+03  0.12500000000E+03 0.  0.
</event>
<event>
 5    0  0.5660959E-005  0.2776273E+03  0.7546771E-02  0.1096992E+00
         21   -1    0    0  502  501  0.00000000000E+00  0.00000000000E+00  0.47459328787E+03  0.47459328787E+03  0.00000000000E+00 0.  1.
         21   -1    0    0  501  502 -0.00000000000E+00 -0.00000000000E+00 -0.16240621637E+03  0.16240621637E+03  0.00000000000E+00 0.  1.
         25    1    1    2    0    0  0.79147089506E+02  0.18252061519E+02  0.30738736013E+03  0.34162755846E+03  0.12500000000E+03 0.  0.
         25    1    1    2    0    0 -0.20375940508E+02 -0.51568229866E+02  0.51022348673E+02  0.14595458659E+03  0.12500000000E+03 0.  0.
         25    1    1    2    0    0 -0.58771148998E+02  0.33316168347E+02 -0.46222637312E+02  0.14941735919E+03  0.12500000000E+03 0.  0.
</event>
<event>
 5    0  0.5660959E-005  0.2777496E+03  0.7546771E-02  0.1096924E+00
         21   -1    0    0  502  501  0.00000000000E+00  0.00000000000E+00  0.24401333015E+03  0.24401333015E+03  0.00000000000E+00 0.  1.
         21   -1    0    0  501  502 -0.00000000000E+00 -0.00000000000E+00 -0.31615001036E+03  0.31615001036E+03  0.00000000000E+00 0.  1.
         25    1    1    2    0    0 -0.66249513819E+01 -0.19054678612E+03 -0.62163927402E+02  0.23630768407E+03  0.12500000000E+03 0.  0.
         25    1    1    2    0    0 -0.32321899463E+02  0.77763132917E+02 -0.99551248103E+01  0.15104937781E+03  0.12500000000E+03 0.  0.
         25    1    1    2    0    0  0.38946850845E+02  0.11278365320E+03 -0.17627996943E-01  0.17280627862E+03  0.12500000000E+03 0.  0.
</event>
<event>
 5    0  0.5660959E-005  0.2383855E+03  0.7546771E-02  0.1120873E+00
         21   -1    0    0  502  501  0.00000000000E+00  0.00000000000E+00  0.25099896309E+03  0.25099896309E+03  0.00000000000E+00 0.  1.
         21   -1    0    0  501  502 -0.00000000000E+00 -0.00000000000E+00 -0.22640590898E+03  0.22640590898E+03  0.00000000000E+00 0.  1.
         25    1    1    2    0    0  0.17033784249E+02  0.31649705324E+02  0.10247121183E+03  0.16558140870E+03  0.12500000000E+03 0.  0.
         25    1    1    2    0    0 -0.56704535572E+02 -0.40269349533E+02  0.24625772858E+02  0.14514976250E+03  0.12500000000E+03 0.  0.
         25    1    1    2    0    0  0.39670751323E+02  0.86196442092E+01 -0.10250393058E+03  0.16667370087E+03  0.12500000000E+03 0.  0.
</event>
<event>
 5    0  0.5660959E-005  0.2341227E+03  0.7546771E-02  0.1123771E+00
         21   -1    0    0  502  501  0.00000000000E+00  0.00000000000E+00  0.64938554681E+03  0.64938554681E+03  0.00000000000E+00 0. -1.
         21   -1    0    0  501  502 -0.00000000000E+00 -0.00000000000E+00 -0.84408163934E+02  0.84408163934E+02  0.00000000000E+00 0. -1.
         25    1    1    2    0    0  0.45875238364E+02  0.16714324496E+02  0.24400951063E+03  0.27847719371E+03  0.12500000000E+03 0.  0.
         25    1    1    2    0    0 -0.11833732767E+03 -0.37525001392E+02  0.19135397217E+03  0.26010227126E+03  0.12500000000E+03 0.  0.
         25    1    1    2    0    0  0.72462089308E+02  0.20810676896E+02  0.12961390007E+03  0.19521424577E+03  0.12500000000E+03 0.  0.
</event>
<event>
 5    0  0.5660959E-005  0.2295390E+03  0.7546771E-02  0.1126965E+00
         21   -1    0    0  502  501  0.00000000000E+00  0.00000000000E+00  0.62923470307E+02  0.62923470307E+02  0.00000000000E+00 0.  1.
         21   -1    0    0  501  502 -0.00000000000E+00 -0.00000000000E+00 -0.83733700636E+03  0.83733700636E+03  0.00000000000E+00 0.  1.
         25    1    1    2    0    0 -0.10355212442E+03  0.34917918305E+02 -0.25346149138E+03  0.30300170149E+03  0.12500000000E+03 0.  0.
         25    1    1    2    0    0  0.85671830137E+02 -0.20992334146E+02 -0.36732045725E+03  0.39790659568E+03  0.12500000000E+03 0.  0.
         25    1    1    2    0    0  0.17880294282E+02 -0.13925584159E+02 -0.15363158742E+03  0.19935217950E+03  0.12500000000E+03 0.  0.
</event>
<event>
 5    0  0.5660959E-005  0.3235290E+03  0.7546771E-02  0.1074037E+00
         21   -1    0    0  502  501  0.00000000000E+00  0.00000000000E+00  0.12761926645E+04  0.12761926645E+04  0.00000000000E+00 0.  1.
         21   -1    0    0  501  502 -0.00000000000E+00 -0.00000000000E+00 -0.82018182239E+02  0.82018182239E+02  0.00000000000E+00 0.  1.
         25    1    1    2    0    0  0.13412144961E+03  0.47777509906E+02  0.24307809247E+03  0.30819346641E+03  0.12500000000E+03 0.  0.
         25    1    1    2    0    0 -0.47443156233E+02 -0.19282760453E+03  0.49124987841E+03  0.54441232644E+03  0.12500000000E+03 0.  0.
         25    1    1    2    0    0 -0.86678293374E+02  0.14505009462E+03  0.45984651140E+03  0.50560505391E+03  0.12500000000E+03 0.  0.
</event>
<event>
 5    0  0.6411512E-005  0.2761586E+03  0.7546771E-02  0.1097806E+00
         21   -1    0    0  502  501  0.00000000000E+00  0.00000000000E+00  0.11089408259E+03  0.11089408259E+03  0.00000000000E+00 0.  1.
         21   -1    0    0  501  502 -0.00000000000E+00 -0.00000000000E+00 -0.68771537174E+03  0.68771537174E+03  0.00000000000E+00 0.  1.
         25    1    1    2    0    0  0.18565377954E+02  0.89257387916E+02 -0.12740422759E+03  0.20042053728E+03  0.12500000000E+03 0.  0.
         25    1    1    2    0    0 -0.40991521925E+02  0.65963712108E+02 -0.57609669217E+02  0.15803604074E+03  0.12500000000E+03 0.  0.
         25    1    1    2    0    0  0.22426143972E+02 -0.15522110002E+03 -0.39180739235E+03  0.44015287631E+03  0.12500000000E+03 0.  0.
</event>
<event>
 5    0  0.7778214E-005  0.4402195E+03  0.7546771E-02  0.1030679E+00
         21   -1    0    0  502  501  0.00000000000E+00  0.00000000000E+00  0.54662202538E+03  0.54662202538E+03  0.00000000000E+00 0. -1.
         21   -1    0    0  501  502 -0.00000000000E+00 -0.00000000000E+00 -0.35452879261E+03  0.35452879261E+03  0.00000000000E+00 0. -1.
         25    1    1    2    0    0 -0.10897239540E+03  0.48742465024E+02 -0.19478803884E+03  0.26041925991E+03  0.12500000000E+03 0.  0.
         25    1    1    2    0    0 -0.76180733278E+02 -0.19444089185E+03  0.16848279685E+03  0.29601050214E+03  0.12500000000E+03 0.  0.
         25    1    1    2    0    0  0.18515312868E+03  0.14569842682E+03  0.21839847475E+03  0.34472105595E+03  0.12500000000E+03 0.  0.
</event>
<event>
 5    0  0.5660959E-005  0.3056847E+03  0.7546771E-02  0.1082433E+00
         21   -1    0    0  502  501  0.00000000000E+00  0.00000000000E+00  0.17001477630E+03  0.17001477630E+03  0.00000000000E+00 0. -1.
         21   -1    0    0  501  502 -0.00000000000E+00 -0.00000000000E+00 -0.54961785626E+03  0.54961785626E+03  0.00000000000E+00 0. -1.
         25    1    1    2    0    0  0.96453202207E+02  0.71013313007E+02 -0.10671016520E+03  0.20336708239E+03  0.12500000000E+03 0.  0.
         25    1    1    2    0    0 -0.14791215535E+03  0.10163391920E+03 -0.14529599366E+03  0.26257072381E+03  0.12500000000E+03 0.  0.
         25    1    1    2    0    0  0.51458953140E+02 -0.17264723221E+03 -0.12759692110E+03  0.25369482636E+03  0.12500000000E+03 0.  0.
</event>
<event>
 5    0  0.5660959E-005  0.3721411E+03  0.7546771E-02  0.1053877E+00
         21   -1    0    0  502  501  0.00000000000E+00  0.00000000000E+00  0.74877117477E+03  0.74877117477E+03  0.00000000000E+00 0.  1.
         21   -1    0    0  501  502 -0.00000000000E+00 -0.00000000000E+00 -0.18495503255E+03  0.18495503255E+03  0.00000000000E+00 0.  1.
         25    1    1    2    0    0  0.17572469318E+02 -0.27108919486E+02  0.23388212013E+03  0.26715076513E+03  0.12500000000E+03 0.  0.
         25    1    1    2    0    0 -0.26127496247E+03  0.27788014778E+02  0.24337325224E+03  0.37933141141E+03  0.12500000000E+03 0.  0.
         25    1    1    2    0    0  0.24370249315E+03 -0.67909529185E+00  0.86560769850E+02  0.28724403077E+03  0.12500000000E+03 0.  0.
</event>
<event>
 5    0  0.5660959E-005  0.2109908E+03  0.7546771E-02  0.1140784E+00
         21   -1    0    0  502  501  0.00000000000E+00  0.00000000000E+00  0.49141082667E+02  0.49141082667E+02  0.00000000000E+00 0. -1.
         21   -1    0    0  501  502 -0.00000000000E+00 -0.00000000000E+00 -0.90590467678E+03  0.90590467678E+03  0.00000000000E+00 0. -1.
         25    1    1    2    0    0 -0.23848803521E+02 -0.31454995197E+02 -0.23738637721E+03  0.27117425069E+03  0.12500000000E+03 0.  0.
         25    1    1    2    0    0 -0.16378870197E+02  0.80465375372E+02 -0.33230436195E+03  0.36440929323E+03  0.12500000000E+03 0.  0.
         25    1    1    2    0    0  0.40227673718E+02 -0.49010380175E+02 -0.28707285495E+03  0.31946221553E+03  0.12500000000E+03 0.  0.
</event>
<event>
 5    0  0.5660959E-005  0.3921903E+03  0.7546771E-02  0.1046518E+00
         21   -1    0    0  502  501  0.00000000000E+00  0.00000000000E+00  0.36159394948E+03  0.36159394948E+03  0.00000000000E+00 0. -1.
         21   -1    0    0  501  502 -0.00000000000E+00 -0.00000000000E+00 -0.42537546281E+03  0.42537546281E+03  0.00000000000E+00 0. -1.
         25    1    1    2    0    0 -0.75192229230E+01 -0.27281494539E+02 -0.16469317062E+03  0.20868555078E+03  0.12500000000E+03 0.  0.
         25    1    1    2    0    0 -0.16287458491E+02 -0.38456882684E+02  0.30309650284E+03  0.33050976259E+03  0.12500000000E+03 0.  0.
         25    1    1    2    0    0  0.23806681414E+02  0.65738377223E+02 -0.20218484556E+03  0.24777409892E+03  0.12500000000E+03 0.  0.
</event>
<event>
 5    0  0.5660959E-005  0.3239197E+03  0.7546771E-02  0.1073859E+00
         21   -1    0    0  502  501  0.00000000000E+00  0.00000000000E+00  0.76563119116E+02  0.76563119116E+02  0.00000000000E+00 0. -1.
         21   -1    0    0  501  502 -0.00000000000E+00 -0.00000000000E+00 -0.13704247642E+04  0.13704247642E+04  0.00000000000E+00 0. -1.
         25    1    1    2    0    0 -0.27788606654E+02  0.10888129862E+03 -0.29010298707E+03  0.33527911798E+03  0.12500000000E+03 0.  0.
         25    1    1    2    0    0  0.12211083342E+03 -0.86852280729E+02 -0.90380694401E+03  0.92463309823E+03  0.12500000000E+03 0.  0.
         25    1    1    2    0    0 -0.94322226765E+02 -0.22029017889E+02 -0.99951714019E+02  0.18707566711E+03  0.12500000000E+03 0.  0.
</event>
<event>
 5    0  0.5660959E-005  0.3096633E+03  0.7546771E-02  0.1080507E+00
         21   -1    0    0  502  501  0.00000000000E+00  0.00000000000E+00  0.47131046782E+02  0.47131046782E+02  0.00000000000E+00 0. -1.
         21   -1    0    0  501  502 -0.00000000000E+00 -0.00000000000E+00 -0.20345687242E+04  0.20345687242E+04  0.00000000000E+00 0. -1.
         25    1    1    2    0    0  0.47459536752E+02 -0.22797238034E+03 -0.70571586455E+03  0.75358058315E+03  0.12500000000E+03 0.  0.
         25    1    1    2    0    0  0.38738323038E+00  0.92444939422E+02 -0.64802970978E+03  0.66641857841E+03  0.12500000000E+03 0.  0.
         25    1    1    2    0    0 -0.47846919982E+02  0.13552744092E+03 -0.63369210314E+03  0.66170060947E+03  0.12500000000E+03 0.  0.
</event>
<event>
 5    0  0.6252914E-005  0.2594861E+03  0.7546771E-02  0.1107452E+00
         21   -1    0    0  502  501  0.00000000000E+00  0.00000000000E+00  0.18922694404E+03  0.18922694404E+03  0.00000000000E+00 0. -1.
         21   -1    0    0  501  502 -0.00000000000E+00 -0.00000000000E+00 -0.35583215829E+03  0.35583215829E+03  0.00000000000E+00 0. -1.
         25    1    1    2    0    0  0.22305309358E+02 -0.73627122895E+02 -0.76747228522E+02  0.16563096672E+03  0.12500000000E+03 0.  0.
         25    1    1    2    0    0 -0.12898191726E+03  0.92665600804E+02 -0.63918491323E+02  0.21197599413E+03  0.12500000000E+03 0.  0.
         25    1    1    2    0    0  0.10667660790E+03 -0.19038477909E+02 -0.25939494404E+02  0.16745214148E+03  0.12500000000E+03 0.  0.
</event>
<event>
 5    0  0.5660959E-005  0.3534955E+03  0.7546771E-02  0.1061189E+00
         21   -1    0    0  502  501  0.00000000000E+00  0.00000000000E+00  0.75766357042E+03  0.75766357042E+03  0.00000000000E+00 0. -1.
         21   -1    0    0  501  502 -0.00000000000E+00 -0.00000000000E+00 -0.16492689613E+03  0.16492689613E+03  0.00000000000E+00 0. -1.
         25    1    1    2    0    0 -0.28223133345E+03  0.33831864761E+02  0.19392044093E+03  0.36610006565E+03  0.12500000000E+03 0.  0.
         25    1    1    2    0    0  0.88669235243E+02  0.37135262399E+01  0.13566123877E+03  0.20470709627E+03  0.12500000000E+03 0.  0.
         25    1    1    2    0    0  0.19356209821E+03 -0.37545391001E+02  0.26315499458E+03  0.35178330464E+03  0.12500000000E+03 0.  0.
</event>
<event>
 5    0  0.5660959E-005  0.3532868E+03  0.7546771E-02  0.1061274E+00
         21   -1    0    0  502  501  0.00000000000E+00  0.00000000000E+00  0.12333454577E+03  0.12333454577E+03  0.00000000000E+00 0.  1.
         21   -1    0    0  501  502 -0.00000000000E+00 -0.00000000000E+00 -0.10119755297E+04  0.10119755297E+04  0.00000000000E+00 0.  1.
         25    1    1    2    0    0  0.19904778819E+03 -0.23948131393E+02 -0.31174291906E+03  0.39115493422E+03  0.12500000000E+03 0.  0.
         25    1    1    2    0    0 -0.17010254481E+03 -0.11829897143E+02 -0.74132341483E+02  0.22404335802E+03  0.12500000000E+03 0.  0.
         25    1    1    2    0    0 -0.28945243384E+02  0.35778028537E+02 -0.50276572341E+03  0.52011178325E+03  0.12500000000E+03 0.  0.
</event>
<event>
 5    0  0.6250786E-005  0.2617897E+03  0.7546771E-02  0.1106073E+00
         21   -1    0    0  502  501  0.00000000000E+00  0.00000000000E+00  0.27347075454E+03  0.27347075454E+03  0.00000000000E+00 0.  1.
         21   -1    0    0  501  502 -0.00000000000E+00 -0.00000000000E+00 -0.25060755247E+03  0.25060755247E+03  0.00000000000E+00 0.  1.
         25    1    1    2    0    0  0.37047002920E+02  0.74799368684E+02  0.83303989279E+02  0.17184871431E+03  0.12500000000E+03 0.  0.
         25    1    1    2    0    0 -0.10213189199E+02  0.63678980579E+02  0.28996234728E+02  0.14361442626E+03  0.12500000000E+03 0.  0.
         25    1    1    2    0    0 -0.26833813721E+02 -0.13847834926E+03 -0.89437021946E+02  0.20861516644E+03  0.12500000000E+03 0.  0.
</event>
<event>
 5    0  0.5660959E-005  0.2355338E+03  0.7546771E-02  0.1122804E+00
         21   -1    0    0  502  501  0.00000000000E+00  0.00000000000E+00  0.18800907893E+03  0.18800907893E+03  0.00000000000E+00 0. -1.
         21   -1    0    0  501  502 -0.00000000000E+00 -0.00000000000E+00 -0.29507185701E+03  0.29507185701E+03  0.00000000000E+00 0. -1.
         25    1    1    2    0    0  0.75616307604E+02 -0.27318533070E+02 -0.14550021520E+02  0.14933462877E+03  0.12500000000E+03 0.  0.
         25    1    1    2    0    0  0.31370615802E+02  0.32166599749E+02 -0.10405962713E+03  0.16873710817E+03  0.12500000000E+03 0.  0.
         25    1    1    2    0    0 -0.10698692341E+03 -0.48480666796E+01  0.11546870574E+02  0.16500919899E+03  0.12500000000E+03 0.  0.
</event>
<event>
 5    0  0.5660959E-005  0.3672887E+03  0.7546771E-02  0.1055735E+00
         21   -1    0    0  502  501  0.00000000000E+00  0.00000000000E+00  0.18294664985E+04  0.18294664985E+04  0.00000000000E+00 0. -1.
         21   -1    0    0  501  502 -0.00000000000E+00 -0.00000000000E+00 -0.73737888560E+02  0.73737888560E+02  0.00000000000E+00 0. -1.
         25    1    1    2    0    0 -0.49970119562E+02 -0.11361266057E+03  0.11045142012E+04  0.11184728294E+04  0.12500000000E+03 0.  0.
         25    1    1    2    0    0 -0.61966024525E+02  0.11901267717E+03  0.10074792522E+03  0.20923419883E+03  0.12500000000E+03 0.  0.
         25    1    1    2    0    0  0.11193614409E+03 -0.54000165950E+01  0.55046648358E+03  0.57549735888E+03  0.12500000000E+03 0.  0.
</event>
<event>
 5    0  0.5660959E-005  0.3375361E+03  0.7546771E-02  0.1067850E+00
         21   -1    0    0  502  501  0.00000000000E+00  0.00000000000E+00  0.13107909959E+04  0.13107909959E+04  0.00000000000E+00 0.  1.
         21   -1    0    0  501  502 -0.00000000000E+00 -0.00000000000E+00 -0.86917432885E+02  0.86917432885E+02  0.00000000000E+00 0.  1.
         25    1    1    2    0    0 -0.75629809905E+02  0.22106033285E+02  0.57615917537E+03  0.59480495981E+03  0.12500000000E+03 0.  0.
         25    1    1    2    0    0  0.11446477192E+03  0.31769475420E+02  0.37481389444E+02  0.17646908549E+03  0.12500000000E+03 0.  0.
         25    1    1    2    0    0 -0.38834962018E+02 -0.53875508705E+02  0.61023299818E+03  0.62643438346E+03  0.12500000000E+03 0.  0.
</event>
<event>
 5    0  0.5660959E-005  0.2432389E+03  0.7546771E-02  0.1117654E+00
         21   -1    0    0  502  501  0.00000000000E+00  0.00000000000E+00  0.31650912323E+03  0.31650912323E+03  0.00000000000E+00 0.  1.
         21   -1    0    0  501  502 -0.00000000000E+00 -0.00000000000E+00 -0.18693037123E+03  0.18693037123E+03  0.00000000000E+00 0.  1.
         25    1    1    2    0    0 -0.45908419733E+02  0.72261863948E+02 -0.48440687398E+02  0.15906244113E+03  0.12500000000E+03 0.  0.
         25    1    1    2    0    0 -0.15468455596E+02 -0.72751897306E+02  0.13545944649E+03  0.19876210233E+03  0.12500000000E+03 0.  0.
         25    1    1    2    0    0  0.61376875329E+02  0.49003335766E+00  0.42559992912E+02  0.14561495100E+03  0.12500000000E+03 0.  0.
</event>
<event>
 5    0  0.5660959E-005  0.3201040E+03  0.7546771E-02  0.1075601E+00
         21   -1    0    0  502  501  0.00000000000E+00  0.00000000000E+00  0.18950499249E+03  0.18950499249E+03  0.00000000000E+00 0. -1.
         21   -1    0    0  501  502 -0.00000000000E+00 -0.00000000000E+00 -0.54070650029E+03  0.54070650029E+03  0.00000000000E+00 0. -1.
         25    1    1    2    0    0 -0.10120449002E+03  0.15643842575E+03 -0.21958622300E+02  0.22543848595E+03  0.12500000000E+03 0.  0.
         25    1    1    2    0    0  0.15434868672E+03 -0.14510400929E+03 -0.20156723370E+03  0.31801421400E+03  0.12500000000E+03 0.  0.
         25    1    1    2    0    0 -0.53144196704E+02 -0.11334416468E+02 -0.12767565180E+03  0.18675879284E+03  0.12500000000E+03 0.  0.
</event>
<event>
 5    0  0.5660959E-005  0.2350585E+03  0.7546771E-02  0.1123129E+00
         21   -1    0    0  502  501  0.00000000000E+00  0.00000000000E+00  0.17457109611E+03  0.17457109611E+03  0.00000000000E+00 0. -1.
         21   -1    0    0  501  502 -0.00000000000E+00 -0.00000000000E+00 -0.31650429556E+03  0.31650429556E+03  0.00000000000E+00 0. -1.
         25    1    1    2    0    0  0.55749377115E+02 -0.93078953610E+02 -0.83565572269E+02  0.18541814777E+03  0.12500000000E+03 0.  0.
         25    1    1    2    0    0  0.10415914008E+02  0.63381918957E+02 -0.76498582130E+02  0.16000872471E+03  0.12500000000E+03 0.  0.
         25    1    1    2    0    0 -0.66165291123E+02  0.29697034653E+02  0.18130954950E+02  0.14564851920E+03  0.12500000000E+03 0.  0.
</event>
<event>
 5    0  0.5660959E-005  0.2918538E+03  0.7546771E-02  0.1089385E+00
         21   -1    0    0  502  501  0.00000000000E+00  0.00000000000E+00  0.84548767365E+03  0.84548767365E+03  0.00000000000E+00 0.  1.
         21   -1    0    0  501  502 -0.00000000000E+00 -0.00000000000E+00 -0.10074498906E+03  0.10074498906E+03  0.00000000000E+00 0.  1.
         25    1    1    2    0    0  0.55803043589E+02 -0.14081229106E+03  0.47890132023E+03  0.51760366644E+03  0.12500000000E+03 0.  0.
         25    1    1    2    0    0  0.56130677894E+01  0.14669683352E+03  0.12115570640E+03  0.22771730871E+03  0.12500000000E+03 0.  0.
         25    1    1    2    0    0 -0.61416111379E+02 -0.58845424631E+01  0.14468565796E+03  0.20091168755E+03  0.12500000000E+03 0.  0.
</event>
<event>
 5    0  0.5660959E-005  0.2994514E+03  0.7546771E-02  0.1085515E+00
         21   -1    0    0  502  501  0.00000000000E+00  0.00000000000E+00  0.71480736595E+02  0.71480736595E+02  0.00000000000E+00 0.  1.
         21   -1    0    0  501  502 -0.00000000000E+00 -0.00000000000E+00 -0.12544799052E+04  0.12544799052E+04  0.00000000000E+00 0.  1.
         25    1    1    2    0    0 -0.11385351427E+03  0.45654211126E+02 -0.32955452960E+03  0.37319983612E+03  0.12500000000E+03 0.  0.
         25    1    1    2    0    0  0.12080290291E+03 -0.28714688566E+02 -0.13151715494E+03  0.21986276796E+03  0.12500000000E+03 0.  0.
         25    1    1    2    0    0 -0.69493886442E+01 -0.16939522559E+02 -0.72192748404E+03  0.73289803768E+03  0.12500000000E+03 0.  0.
</event>
<event>
 5    0  0.5660959E-005  0.7204962E+03  0.7546771E-02  0.9682809E-01
         21   -1    0    0  502  501  0.00000000000E+00  0.00000000000E+00  0.91031269096E+03  0.91031269096E+03  0.00000000000E+00 0. -1.
         21   -1    0    0  501  502 -0.00000000000E+00 -0.00000000000E+00 -0.57025977016E+03  0.57025977016E+03  0.00000000000E+00 0. -1.
         25    1    1    2    0    0  0.83788940144E+02  0.32678218696E+03 -0.34619522828E+03  0.49928280592E+03  0.12500000000E+03 0.  0.
         25    1    1    2    0    0  0.82148771424E+01  0.14641271661E+03  0.11907592509E+03  0.22651323080E+03  0.12500000000E+03 0.  0.
         25    1    1    2    0    0 -0.92003817286E+02 -0.47319490357E+03  0.56717222400E+03  0.75477642440E+03  0.12500000000E+03 0.  0.
</event>
<event>
 5    0  0.5660959E-005  0.2042116E+03  0.7546771E-02  0.1146234E+00
         21   -1    0    0  502  501  0.00000000000E+00  0.00000000000E+00  0.53268802591E+02  0.53268802591E+02  0.00000000000E+00 0.  1.
         21   -1    0    0  501  502 -0.00000000000E+00 -0.00000000000E+00 -0.78286647187E+03  0.78286647187E+03  0.00000000000E+00 0.  1.
         25    1    1    2    0    0  0.18351019860E+01  0.71973096375E+00 -0.20963770713E+03  0.24408370257E+03  0.12500000000E+03 0.  0.
         25    1    1    2    0    0 -0.41000112574E+02 -0.12079115374E+02 -0.36859725262E+03  0.39155567790E+03  0.12500000000E+03 0.  0.
         25    1    1    2    0    0  0.39165010588E+02  0.11359384411E+02 -0.15136270953E+03  0.20049589399E+03  0.12500000000E+03 0.  0.
</event>
<event>
 5    0  0.5660959E-005  0.4071342E+03  0.7546771E-02  0.1041337E+00
         21   -1    0    0  502  501  0.00000000000E+00  0.00000000000E+00  0.15796752450E+04  0.15796752450E+04  0.00000000000E+00 0. -1.
         21   -1    0    0  501  502 -0.00000000000E+00 -0.00000000000E+00 -0.10493186546E+03  0.10493186546E+03  0.00000000000E+00 0. -1.
         25    1    1    2    0    0  0.23682645983E+02 -0.12352875248E+03  0.69585299017E+03  0.71809233691E+03  0.12500000000E+03 0.  0.
         25    1    1    2    0    0  0.13484566994E+03 -0.10829314347E+03  0.52878616943E+03  0.57021975817E+03  0.12500000000E+03 0.  0.
         25    1    1    2    0    0 -0.15852831593E+03  0.23182189595E+03  0.25010421995E+03  0.39629501540E+03  0.12500000000E+03 0.  0.
</event>
<event>
 5    0  0.5660959E-005  0.3766449E+03  0.7546771E-02  0.1052181E+00
         21   -1    0    0  502  501  0.00000000000E+00  0.00000000000E+00  0.66791900917E+02  0.66791900917E+02  0.00000000000E+00 0.  1.
         21   -1    0    0  501  502 -0.00000000000E+00 -0.00000000000E+00 -0.21239314383E+04  0.21239314383E+04  0.00000000000E+00 0.  1.
         25    1    1    2    0    0  0.51754700367E+02  0.72511678394E+02 -0.13019345085E+03  0.20127550064E+03  0.12500000000E+03 0.  0.
         25    1    1    2    0    0 -0.12895866823E+03  0.12112830109E+03 -0.54837705104E+03  0.58961410561E+03  0.12500000000E+03 0.  0.
         25    1    1    2    0    0  0.77203967859E+02 -0.19363997948E+03 -0.13785690355E+04  0.13998337329E+04  0.12500000000E+03 0.  0.
</event>
<event>
 5    0  0.5660959E-005  0.4073197E+03  0.7546771E-02  0.1041274E+00
         21   -1    0    0  502  501  0.00000000000E+00  0.00000000000E+00  0.93033275356E+03  0.93033275356E+03  0.00000000000E+00 0. -1.
         21   -1    0    0  501  502 -0.00000000000E+00 -0.00000000000E+00 -0.17833329323E+03  0.17833329323E+03  0.00000000000E+00 0. -1.
         25    1    1    2    0    0 -0.67875857798E+02  0.20317074639E+03  0.19034796914E+03  0.31263850309E+03  0.12500000000E+03 0.  0.
         25    1    1    2    0    0 -0.36533128001E+01 -0.32377772078E+03  0.47717771123E+03  0.59005841004E+03  0.12500000000E+03 0.  0.
         25    1    1    2    0    0  0.71529170598E+02  0.12060697440E+03  0.84473779957E+02  0.20596913366E+03  0.12500000000E+03 0.  0.
</event>
<event>
 5    0  0.5660959E-005  0.2363096E+03  0.7546771E-02  0.1122276E+00
         21   -1    0    0  502  501  0.00000000000E+00  0.00000000000E+00  0.62854181556E+02  0.62854181556E+02  0.00000000000E+00 0. -1.
         21   -1    0    0  501  502 -0.00000000000E+00 -0.00000000000E+00 -0.88844076197E+03  0.88844076197E+03  0.00000000000E+00 0. -1.
         25    1    1    2    0    0  0.23854630077E+02  0.61074870333E+02 -0.23922463132E+03  0.27776358183E+03  0.12500000000E+03 0.  0.
         25    1    1    2    0    0 -0.81718900780E+02 -0.18174234358E+02 -0.45201940571E+03  0.47639775889E+03  0.12500000000E+03 0.  0.
         25    1    1    2    0    0  0.57864270703E+02 -0.42900635974E+02 -0.13434254339E+03  0.19713360281E+03  0.12500000000E+03 0.  0.
</event>
<event>
 5    0  0.5660959E-005  0.2983560E+03  0.7546771E-02  0.1086065E+00
         21   -1    0    0  502  501  0.00000000000E+00  0.00000000000E+00  0.47855834130E+03  0.47855834130E+03  0.00000000000E+00 0.  1.
         21   -1    0    0  501  502 -0.00000000000E+00 -0.00000000000E+00 -0.18600932441E+03  0.18600932441E+03  0.00000000000E+00 0.  1.
         25    1    1    2    0    0 -0.16695262461E+03 -0.85662961549E+02  0.15256224164E+03  0.27223438325E+03  0.12500000000E+03 0.  0.
         25    1    1    2    0    0  0.18682547283E+02 -0.39175386172E+02  0.77642824327E+02  0.15341824085E+03  0.12500000000E+03 0.  0.
         25    1    1    2    0    0  0.14827007733E+03  0.12483834772E+03  0.62343950928E+02  0.23891504162E+03  0.12500000000E+03 0.  0.
</event>
<event>
 5    0  0.5660959E-005  0.3224980E+03  0.7546771E-02  0.1074505E+00
         21   -1    0    0  502  501  0.00000000000E+00  0.00000000000E+00  0.13136673720E+03  0.13136673720E+03  0.00000000000E+00 0. -1.
         21   -1    0    0  501  502 -0.00000000000E+00 -0.00000000000E+00 -0.79171473362E+03  0.79171473362E+03  0.00000000000E+00 0. -1.
         25    1    1    2    0    0  0.11453490261E+02 -0.11914896769E+03 -0.46790634278E+03  0.49888776750E+03  0.12500000000E+03 0.  0.
         25    1    1    2    0    0  0.15968152175E+02 -0.64918257702E+02 -0.12784800000E+03  0.19089126007E+03  0.12500000000E+03 0.  0.
         25    1    1    2    0    0 -0.27421642436E+02  0.18406722540E+03 -0.64593653634E+02  0.23330244325E+03  0.12500000000E+03 0.  0.
</event>
<event>
 5    0  0.5660959E-005  0.3178515E+03  0.7546771E-02  0.1076642E+00
         21   -1    0    0  502  501  0.00000000000E+00  0.00000000000E+00  0.14667784972E+04  0.14667784972E+04  0.00000000000E+00 0.  1.
         21   -1    0    0  501  502 -0.00000000000E+00 -0.00000000000E+00 -0.68878566632E+02  0.68878566632E+02  0.00000000000E+00 0.  1.
         25    1    1    2    0    0  0.15096075706E+03  0.36514516547E+02  0.22190988601E+03  0.29831436036E+03  0.12500000000E+03 0.  0.
         25    1    1    2    0    0  0.53932803603E+02  0.20253965667E+02  0.45246156956E+03  0.47293280956E+03  0.12500000000E+03 0.  0.
         25    1    1    2    0    0 -0.20489356066E+03 -0.56768482214E+02  0.72352847505E+03  0.76440989396E+03  0.12500000000E+03 0.  0.
</event>
<event>
 5    0  0.5660959E-005  0.2975816E+03  0.7546771E-02  0.1086456E+00
         21   -1    0    0  502  501  0.00000000000E+00  0.00000000000E+00  0.18545960052E+03  0.18545960052E+03  0.00000000000E+00 0. -1.
         21   -1    0    0  501  502 -0.00000000000E+00 -0.00000000000E+00 -0.47748856196E+03  0.47748856196E+03  0.00000000000E+00 0. -1.
         25    1    1    2    0    0  0.56689083631E+02 -0.12742747858E+03  0.24282386937E+02  0.18885457055E+03  0.12500000000E+03 0.  0.
         25    1    1    2    0    0  0.59764396373E+02  0.11556738209E+03 -0.14064158878E+03  0.22876332610E+03  0.12500000000E+03 0.  0.
         25    1    1    2    0    0 -0.11645348000E+03  0.11860096497E+02 -0.17566975961E+03  0.24533026584E+03  0.12500000000E+03 0.  0.
</event>
<event>
 5    0  0.5660959E-005  0.3074812E+03  0.7546771E-02  0.1081560E+00
         21   -1    0    0  502  501  0.00000000000E+00  0.00000000000E+00  0.21424646043E+04  0.21424646043E+04  0.00000000000E+00 0.  1.
         21   -1    0    0  501  502 -0.00000000000E+00 -0.00000000000E+00 -0.44128938989E+02  0.44128938989E+02  0.00000000000E+00 0.  1.
         25    1    1    2    0    0 -0.42231962304E+02  0.28458833328E+02  0.28907601739E+03  0.31903508846E+03  0.12500000000E+03 0.  0.
         25    1    1    2    0    0  0.11639974217E+03  0.15040960604E+03  0.76331876309E+03  0.79652525613E+03  0.12500000000E+03 0.  0.
         25    1    1    2    0    0 -0.74167779869E+02 -0.17886843936E+03  0.10459408848E+04  0.10710331987E+04  0.12500000000E+03 0.  0.
</event>
<event>
 5    0  0.5660959E-005  0.3887588E+03  0.7546771E-02  0.1047743E+00
         21   -1    0    0  502  501  0.00000000000E+00  0.00000000000E+00  0.11783244363E+03  0.11783244363E+03  0.00000000000E+00 0. -1.
         21   -1    0    0  501  502 -0.00000000000E+00 -0.00000000000E+00 -0.12826127568E+04  0.12826127568E+04  0.00000000000E+00 0. -1.
         25    1    1    2    0    0  0.14394465851E+03 -0.74365291231E+02 -0.68838926042E+02  0.21590289250E+03  0.12500000000E+03 0.  0.
         25    1    1    2    0    0 -0.14271369595E+02  0.17813800683E+03 -0.37063877268E+03  0.43004060422E+03  0.12500000000E+03 0.  0.
         25    1    1    2    0    0 -0.12967328891E+03 -0.10377271560E+03 -0.72530261446E+03  0.75450170371E+03  0.12500000000E+03 0.  0.
</event>
<event>
 5    0  0.5660959E-005  0.2415256E+03  0.7546771E-02  0.1118781E+00
         21   -1    0    0  502  501  0.00000000000E+00  0.00000000000E+00  0.27134799490E+03  0.27134799490E+03  0.00000000000E+00 0. -1.
         21   -1    0    0  501  502 -0.00000000000E+00 -0.00000000000E+00 -0.21498085476E+03  0.21498085476E+03  0.00000000000E+00 0. -1.
         25    1    1    2    0    0 -0.10648837916E+02  0.14304281688E+02  0.82611458693E+02  0.15088957330E+03  0.12500000000E+03 0.  0.
         25    1    1    2    0    0  0.83196721506E+02  0.71480368821E+02 -0.10437619690E+02  0.16662857348E+03  0.12500000000E+03 0.  0.
         25    1    1    2    0    0 -0.72547883589E+02 -0.85784650510E+02 -0.15806698868E+02  0.16881070288E+03  0.12500000000E+03 0.  0.
</event>
<event>
 5    0  0.5660959E-005  0.3123662E+03  0.7546771E-02  0.1079217E+00
         21   -1    0    0  502  501  0.00000000000E+00  0.00000000000E+00  0.23083266616E+04  0.23083266616E+04  0.00000000000E+00 0.  1.
         21   -1    0    0  501  502 -0.00000000000E+00 -0.00000000000E+00 -0.42269864484E+02  0.42269864484E+02  0.00000000000E+00 0.  1.
         25    1    1    2    0    0  0.81896538686E+02 -0.14571196664E+02  0.13629978875E+04  0.13712430872E+04  0.12500000000E+03 0.  0.
         25    1    1    2    0    0 -0.73899404304E+02 -0.11063258108E+03  0.30337655891E+03  0.35406641531E+03  0.12500000000E+03 0.  0.
         25    1    1    2    0    0 -0.79971343818E+01  0.12520377775E+03  0.59968235068E+03  0.62528702356E+03  0.12500000000E+03 0.  0.
</event>
<event>
 5    0  0.5660959E-005  0.2227223E+03  0.7546771E-02  0.1131870E+00
         21   -1    0    0  502  501  0.00000000000E+00  0.00000000000E+00  0.14058806725E+03  0.14058806725E+03  0.00000000000E+00 0.  1.
         21   -1    0    0  501  502 -0.00000000000E+00 -0.00000000000E+00 -0.35284076325E+03  0.35284076325E+03  0.00000000000E+00 0.  1.
         25    1    1    2    0    0 -0.54488836098E+00 -0.44721887990E+01 -0.20315049508E+03  0.23856953080E+03  0.12500000000E+03 0.  0.
         25    1    1    2    0    0 -0.14515134100E+02 -0.14310060384E+02 -0.14302089260E+02  0.12745594024E+03  0.12500000000E+03 0.  0.
         25    1    1    2    0    0  0.15060022461E+02  0.18782249183E+02  0.51998883362E+01  0.12740335945E+03  0.12500000000E+03 0.  0.
</event>
<event>
 5    0  0.5660959E-005  0.2388142E+03  0.7546771E-02  0.1120585E+00
         21   -1    0    0  502  501  0.00000000000E+00  0.00000000000E+00  0.27490631452E+03  0.27490631452E+03  0.00000000000E+00 0.  1.
         21   -1    0    0  501  502 -0.00000000000E+00 -0.00000000000E+00 -0.20746051300E+03  0.20746051300E+03  0.00000000000E+00 0.  1.
         25    1    1    2    0    0  0.63724735360E+02 -0.17711983793E+01  0.42050074470E+02  0.14648272186E+03  0.12500000000E+03 0.  0.
         25    1    1    2    0    0 -0.13999997925E+03 -0.59269782707E+01  0.23446630690E+02  0.18923495383E+03  0.12500000000E+03 0.  0.
         25    1    1    2    0    0  0.76275243892E+02  0.76981766500E+01  0.19490963667E+01  0.14664915183E+03  0.12500000000E+03 0.  0.
</event>
<event>
 5    0  0.5660959E-005  0.3640872E+03  0.7546771E-02  0.1056977E+00
         21   -1    0    0  502  501  0.00000000000E+00  0.00000000000E+00  0.94546804062E+02  0.94546804062E+02  0.00000000000E+00 0. -1.
         21   -1    0    0  501  502 -0.00000000000E+00 -0.00000000000E+00 -0.14020511487E+04  0.14020511487E+04  0.00000000000E+00 0. -1.
         25    1    1    2    0    0 -0.83956818689E+02 -0.23651045393E+03 -0.84971308616E+03  0.89477554226E+03  0.12500000000E+03 0.  0.
         25    1    1    2    0    0  0.15566002366E+02  0.16843740336E+03 -0.15827835378E+03  0.26323088070E+03  0.12500000000E+03 0.  0.
         25    1    1    2    0    0  0.68390816323E+02  0.68073050566E+02 -0.29951290465E+03  0.33859152976E+03  0.12500000000E+03 0.  0.
</event>
<event>
 5    0  0.5800207E-005  0.5685623E+03  0.7546771E-02  0.9972865E-01
         21   -1    0    0  502  501  0.00000000000E+00  0.00000000000E+00  0.66522622109E+03  0.66522622109E+03  0.00000000000E+00 0. -1.
         21   -1    0    0  501  502 -0.00000000000E+00 -0.00000000000E+00 -0.48594457808E+03  0.48594457808E+03  0.00000000000E+00 0. -1.
         25    1    1    2    0    0 -0.45361690427E+02 -0.25032032313E+03  0.38576168112E+03  0.47870139101E+03  0.12500000000E+03 0.  0.
         25    1    1    2    0    0  0.11095132241E+03  0.29265209320E+03  0.83484029722E+02  0.34720314920E+03  0.12500000000E+03 0.  0.
         25    1    1    2    0    0 -0.65589631983E+02 -0.42331770069E+02 -0.28996406784E+03  0.32526625896E+03  0.12500000000E+03 0.  0.
</event>
<event>
 5    0  0.5660959E-005  0.3019538E+03  0.7546771E-02  0.1084268E+00
         21   -1    0    0  502  501  0.00000000000E+00  0.00000000000E+00  0.45641006578E+02  0.45641006578E+02  0.00000000000E+00 0. -1.
         21   -1    0    0  501  502 -0.00000000000E+00 -0.00000000000E+00 -0.19976788554E+04  0.19976788554E+04  0.00000000000E+00 0. -1.
         25    1    1    2    0    0 -0.11696223349E+03 -0.42134521350E+02 -0.76621035002E+03  0.78623074376E+03  0.12500000000E+03 0.  0.
         25    1    1    2    0    0 -0.29957754781E+02  0.12436642210E+03 -0.78050020500E+03  0.80073094359E+03  0.12500000000E+03 0.  0.
         25    1    1    2    0    0  0.14691998827E+03 -0.82231900754E+02 -0.40532729385E+03  0.45635817467E+03  0.12500000000E+03 0.  0.
</event>
<event>
 5    0  0.5660959E-005  0.3621992E+03  0.7546771E-02  0.1057716E+00
         21   -1    0    0  502  501  0.00000000000E+00  0.00000000000E+00  0.40045802861E+03  0.40045802861E+03  0.00000000000E+00 0.  1.
         21   -1    0    0  501  502 -0.00000000000E+00 -0.00000000000E+00 -0.32759548400E+03  0.32759548400E+03  0.00000000000E+00 0.  1.
         25    1    1    2    0    0 -0.58318357525E+02  0.10091379520E+03  0.16907568116E+03  0.24040842507E+03  0.12500000000E+03 0.  0.
         25    1    1    2    0    0  0.81861526638E+02 -0.16077941141E+03 -0.21227280896E+03  0.30534582705E+03  0.12500000000E+03 0.  0.
         25    1    1    2    0    0 -0.23543169114E+02  0.59865616202E+02  0.11605967241E+03  0.18229926049E+03  0.12500000000E+03 0.  0.
</event>
<event>
 5    0  0.6033507E-005  0.3580014E+03  0.7546771E-02  0.1059378E+00
         21   -1    0    0  502  501  0.00000000000E+00  0.00000000000E+00  0.79933738752E+02  0.79933738752E+02  0.00000000000E+00 0. -1.
         21   -1    0    0  501  502 -0.00000000000E+00 -0.00000000000E+00 -0.16033903868E+04  0.16033903868E+04  0.00000000000E+00 0. -1.
         25    1    1    2    0    0  0.65383052330E+02  0.45236071501E+02 -0.91960042463E+02  0.17436425983E+03  0.12500000000E+03 0.  0.
         25    1    1    2    0    0 -0.21232346894E+03 -0.11125127604E+03 -0.73079765128E+03  0.77919722086E+03  0.12500000000E+03 0.  0.
         25    1    1    2    0    0  0.14694041661E+03  0.66015204542E+02 -0.70069895430E+03  0.72976264485E+03  0.12500000000E+03 0.  0.
</event>
<event>
 5    0  0.5660959E-005  0.3727128E+03  0.7546771E-02  0.1053660E+00
         21   -1    0    0  502  501  0.00000000000E+00  0.00000000000E+00  0.51607277843E+03  0.51607277843E+03  0.00000000000E+00 0. -1.
         21   -1    0    0  501  502 -0.00000000000E+00 -0.00000000000E+00 -0.26917683045E+03  0.26917683045E+03  0.00000000000E+00 0. -1.
         25    1    1    2    0    0  0.40364909693E+02 -0.10922476669E+03  0.17203001832E+03  0.24244319499E+03  0.12500000000E+03 0.  0.
         25    1    1    2    0    0 -0.24014434019E+03  0.26220050014E+02 -0.26267326386E+02  0.27326135398E+03  0.12500000000E+03 0.  0.
         25    1    1    2    0    0  0.19977943049E+03  0.83004716673E+02  0.10113325605E+03  0.26954505990E+03  0.12500000000E+03 0.  0.
</event>
<event>
 5    0  0.5660959E-005  0.2508548E+03  0.7546771E-02  0.1112766E+00
         21   -1    0    0  502  501  0.00000000000E+00  0.00000000000E+00  0.11675001939E+03  0.11675001939E+03  0.00000000000E+00 0. -1.
         21   -1    0    0  501  502 -0.00000000000E+00 -0.00000000000E+00 -0.53899895478E+03  0.53899895478E+03  0.00000000000E+00 0. -1.
         25    1    1    2    0    0  0.51785985575E+00 -0.13548707116E+03 -0.72165381155E+02  0.19796428180E+03  0.12500000000E+03 0.  0.
         25    1    1    2    0    0 -0.11381816627E+02  0.99883247343E+02 -0.15458136399E+03  0.22277030086E+03  0.12500000000E+03 0.  0.
         25    1    1    2    0    0  0.10863956771E+02  0.35603823817E+02 -0.19550219025E+03  0.23501439152E+03  0.12500000000E+03 0.  0.
</event>
<event>
 5    0  0.5660959E-005  0.5265896E+03  0.7546771E-02  0.1007063E+00
         21   -1    0    0  502  501  0.00000000000E+00  0.00000000000E+00  0.50026194142E+03  0.50026194142E+03  0.00000000000E+00 0.  1.
         21   -1    0    0  501  502 -0.00000000000E+00 -0.00000000000E+00 -0.55430272048E+03  0.55430272048E+03  0.00000000000E+00 0.  1.
         25    1    1    2    0    0 -0.59160610533E+02 -0.18336608981E+03  0.13876249641E+03  0.26833399178E+03  0.12500000000E+03 0.  0.
         25    1    1    2    0    0 -0.97801319481E+02  0.40701731086E+03 -0.15063617058E+02  0.43712710050E+03  0.12500000000E+03 0.  0.
         25    1    1    2    0    0  0.15696193001E+03 -0.22365122105E+03 -0.17773965842E+03  0.34910356962E+03  0.12500000000E+03 0.  0.
</event>
<event>
 5    0  0.5660959E-005  0.2982735E+03  0.7546771E-02  0.1086107E+00
         21   -1    0    0  502  501  0.00000000000E+00  0.00000000000E+00  0.75965980114E+02  0.75965980114E+02  0.00000000000E+00 0. -1.
         21   -1    0    0  501  502 -0.00000000000E+00 -0.00000000000E+00 -0.11711433789E+04  0.11711433789E+04  0.00000000000E+00 0. -1.
         25    1    1    2    0    0 -0.96263107183E+02  0.35503966736E+02 -0.41783343425E+03  0.44803671305E+03  0.12500000000E+03 0.  0.
         25    1    1    2    0    0 -0.52551417474E+02 -0.90133807973E+02 -0.51466158094E+03  0.53980301751E+03  0.12500000000E+03 0.  0.
         25    1    1    2    0    0  0.14881452466E+03  0.54629841237E+02 -0.16268238356E+03  0.25926962843E+03  0.12500000000E+03 0.  0.
</event>
<event>
 5    0  0.5660959E-005  0.2558076E+03  0.7546771E-02  0.1109689E+00
         21   -1    0    0  502  501  0.00000000000E+00  0.00000000000E+00  0.55739951092E+03  0.55739951092E+03  0.00000000000E+00 0.  1.
         21   -1    0    0  501  502 -0.00000000000E+00 -0.00000000000E+00 -0.11739788588E+03  0.11739788588E+03  0.00000000000E+00 0.  1.
         25    1    1    2    0    0 -0.25220256271E+02 -0.81794973944E+02  0.26558796304E+03  0.30575880233E+03  0.12500000000E+03 0.  0.
         25    1    1    2    0    0  0.61807997439E+02  0.99032716878E+02  0.29718730656E+02  0.17359697725E+03  0.12500000000E+03 0.  0.
         25    1    1    2    0    0 -0.36587741167E+02 -0.17237742934E+02  0.14469493134E+03  0.19544161722E+03  0.12500000000E+03 0.  0.
</event>
<event>
 5    0  0.6027976E-005  0.3003145E+03  0.7546771E-02  0.1085084E+00
         21   -1    0    0  502  501  0.00000000000E+00  0.00000000000E+00  0.12946150436E+03  0.12946150436E+03  0.00000000000E+00 0. -1.
         21   -1    0    0  501  502 -0.00000000000E+00 -0.00000000000E+00 -0.69664550592E+03  0.69664550592E+03  0.00000000000E+00 0. -1.
         25    1    1    2    0    0  0.89160895905E+02  0.83161920738E+02 -0.84447527116E+02  0.19396379883E+03  0.12500000000E+03 0.  0.
         25    1    1    2    0    0 -0.29305279200E+02  0.25913321612E+02 -0.14482534650E+02  0.13177649045E+03  0.12500000000E+03 0.  0.
         25    1    1    2    0    0 -0.59855616705E+02 -0.10907524235E+03 -0.46825393980E+03  0.50036672100E+03  0.12500000000E+03 0.  0.
</event>
<event>
 5    0  0.5660959E-005  0.2996222E+03  0.7546771E-02  0.1085430E+00
         21   -1    0    0  502  501  0.00000000000E+00  0.00000000000E+00  0.11101077157E+03  0.11101077157E+03  0.00000000000E+00 0. -1.
         21   -1    0    0  501  502 -0.00000000000E+00 -0.00000000000E+00 -0.80869138562E+03  0.80869138562E+03  0.00000000000E+00 0. -1.
         25    1    1    2    0    0 -0.41622669566E+02 -0.24868094668E+02 -0.14434494315E+03  0.19700591709E+03  0.12500000000E+03 0.  0.
         25    1    1    2    0    0  0.17388122092E+03  0.31208108385E+01 -0.10537027903E+03  0.23868873906E+03  0.12500000000E+03 0.  0.
         25    1    1    2    0    0 -0.13225855135E+03  0.21747283829E+02 -0.44796539187E+03  0.48400750105E+03  0.12500000000E+03 0.  0.
</event>
<event>
 5    0  0.5660959E-005  0.2851172E+03  0.7546771E-02  0.1092926E+00
         21   -1    0    0  502  501  0.00000000000E+00  0.00000000000E+00  0.63309560862E+02  0.63309560862E+02  0.00000000000E+00 0. -1.
         21   -1    0    0  501  502 -0.00000000000E+00 -0.00000000000E+00 -0.12840372085E+04  0.12840372085E+04  0.00000000000E+00 0. -1.
         25    1    1    2    0    0 -0.33806999006E+02  0.24941283854E+02 -0.26834493217E+03  0.29899662781E+03  0.12500000000E+03 0.  0.
         25    1    1    2    0    0  0.52938895411E+02 -0.37747386133E+02 -0.70863741705E+02  0.15771512830E+03  0.12500000000E+03 0.  0.
         25    1    1    2    0    0 -0.19131896405E+02  0.12806102279E+02 -0.88151897380E+03  0.89063501328E+03  0.12500000000E+03 0.  0.
</event>
<event>
 5    0  0.5660959E-005  0.3214467E+03  0.7546771E-02  0.1074985E+00
         21   -1    0    0  502  501  0.00000000000E+00  0.00000000000E+00  0.16081671775E+03  0.16081671775E+03  0.00000000000E+00 0.  1.
         21   -1    0    0  501  502 -0.00000000000E+00 -0.00000000000E+00 -0.64252009212E+03  0.64252009212E+03  0.00000000000E+00 0.  1.
         25    1    1    2    0    0 -0.20326924869E+03  0.47002553895E+01 -0.82786076246E+02  0.25262425514E+03  0.12500000000E+03 0.  0.
         25    1    1    2    0    0  0.16149730166E+03  0.24617621576E+02 -0.35214974027E+03  0.40782575361E+03  0.12500000000E+03 0.  0.
         25    1    1    2    0    0  0.41771947030E+02 -0.29317876965E+02 -0.46767557856E+02  0.14288680113E+03  0.12500000000E+03 0.  0.
</event>
<event>
 5    0  0.5660959E-005  0.3307543E+03  0.7546771E-02  0.1070804E+00
         21   -1    0    0  502  501  0.00000000000E+00  0.00000000000E+00  0.16799566511E+03  0.16799566511E+03  0.00000000000E+00 0.  1.
         21   -1    0    0  501  502 -0.00000000000E+00 -0.00000000000E+00 -0.65119767320E+03  0.65119767320E+03  0.00000000000E+00 0.  1.
         25    1    1    2    0    0  0.20840200483E+02  0.14403867805E+03  0.26237623592E+02  0.19363591511E+03  0.12500000000E+03 0.  0.
         25    1    1    2    0    0  0.81592174031E+02 -0.16408366734E+02 -0.27645667411E+03  0.31461056883E+03  0.12500000000E+03 0.  0.
         25    1    1    2    0    0 -0.10243237451E+03 -0.12763031131E+03 -0.23298295758E+03  0.31094685436E+03  0.12500000000E+03 0.  0.
</event>
<event>
 5    0  0.5660959E-005  0.3467318E+03  0.7546771E-02  0.1063964E+00
         21   -1    0    0  502  501  0.00000000000E+00  0.00000000000E+00  0.11384824871E+04  0.11384824871E+04  0.00000000000E+00 0.  1.
         21   -1    0    0  501  502 -0.00000000000E+00 -0.00000000000E+00 -0.10559928695E+03  0.10559928695E+03  0.00000000000E+00 0.  1.
         25    1    1    2    0    0 -0.18511785242E+03 -0.12163482552E+03  0.24623661122E+03  0.35400722982E+03  0.12500000000E+03 0.  0.
         25    1    1    2    0    0  0.15952635929E+03 -0.26535263946E+02  0.27733771980E+03  0.34451994190E+03  0.12500000000E+03 0.  0.
         25    1    1    2    0    0  0.25591493124E+02  0.14817008947E+03  0.50930886908E+03  0.54555460227E+03  0.12500000000E+03 0.  0.
</event>
<event>
 5    0  0.5660959E-005  0.4577770E+03  0.7546771E-02  0.1025428E+00
         21   -1    0    0  502  501  0.00000000000E+00  0.00000000000E+00  0.85184040041E+03  0.85184040041E+03  0.00000000000E+00 0.  1.
         21   -1    0    0  501  502 -0.00000000000E+00 -0.00000000000E+00 -0.24600822570E+03  0.24600822570E+03  0.00000000000E+00 0.  1.
         25    1    1    2    0    0  0.18563048903E+03 -0.18261908654E+03 -0.14398929422E+02  0.28920708566E+03  0.12500000000E+03 0.  0.
         25    1    1    2    0    0  0.33836151891E+02  0.14017342252E+03  0.72776906215E+02  0.20424238452E+03  0.12500000000E+03 0.  0.
         25    1    1    2    0    0 -0.21946664092E+03  0.42445664022E+02  0.54745419792E+03  0.60439915594E+03  0.12500000000E+03 0.  0.
</event>
<event>
 5    0  0.5660959E-005  0.2142796E+03  0.7546771E-02  0.1138221E+00
         21   -1    0    0  502  501  0.00000000000E+00  0.00000000000E+00  0.89626735584E+03  0.89626735584E+03  0.00000000000E+00 0. -1.
         21   -1    0    0  501  502 -0.00000000000E+00 -0.00000000000E+00 -0.51229987147E+02  0.51229987147E+02  0.00000000000E+00 0. -1.
         25    1    1    2    0    0 -0.36216613776E+02  0.53841948654E+02  0.29374468858E+03  0.32576301296E+03  0.12500000000E+03 0.  0.
         25    1    1    2    0    0  0.21181936438E+01 -0.13180559740E+02  0.39583256219E+03  0.41531509867E+03  0.12500000000E+03 0.  0.
         25    1    1    2    0    0  0.34098420132E+02 -0.40661388914E+02  0.15546011793E+03  0.20641923135E+03  0.12500000000E+03 0.  0.
</event>
<event>
 5    0  0.5660959E-005  0.5230346E+03  0.7546771E-02  0.1007935E+00
         21   -1    0    0  502  501  0.00000000000E+00  0.00000000000E+00  0.40712770173E+03  0.40712770173E+03  0.00000000000E+00 0. -1.
         21   -1    0    0  501  502 -0.00000000000E+00 -0.00000000000E+00 -0.67193941512E+03  0.67193941512E+03  0.00000000000E+00 0. -1.
         25    1    1    2    0    0 -0.55497774414E+02 -0.41164613885E+02  0.22877791678E+03  0.26970143419E+03  0.12500000000E+03 0.  0.
         25    1    1    2    0    0  0.18350324159E+03 -0.47975226333E+02 -0.55546457994E+03  0.60011745649E+03  0.12500000000E+03 0.  0.
         25    1    1    2    0    0 -0.12800546718E+03  0.89139840218E+02  0.61874949773E+02  0.20924822616E+03  0.12500000000E+03 0.  0.
</event>
<event>
 5    0  0.5660959E-005  0.3305684E+03  0.7546771E-02  0.1070886E+00
         21   -1    0    0  502  501  0.00000000000E+00  0.00000000000E+00  0.91926664545E+03  0.91926664545E+03  0.00000000000E+00 0. -1.
         21   -1    0    0  501  502 -0.00000000000E+00 -0.00000000000E+00 -0.11887241263E+03  0.11887241263E+03  0.00000000000E+00 0. -1.
         25    1    1    2    0    0  0.80667583341E+02  0.17406028596E+03  0.57709853270E+03  0.62086388089E+03  0.12500000000E+03 0.  0.
         25    1    1    2    0    0 -0.11086369054E+03 -0.13771131958E+03  0.11434984079E+03  0.24485924836E+03  0.12500000000E+03 0.  0.
         25    1    1    2    0    0  0.30196107197E+02 -0.36348966381E+02  0.10894585934E+03  0.17241592883E+03  0.12500000000E+03 0.  0.
</event>
<event>
 5    0  0.5660959E-005  0.3168808E+03  0.7546771E-02  0.1077094E+00
         21   -1    0    0  502  501  0.00000000000E+00  0.00000000000E+00  0.36513001924E+03  0.36513001924E+03  0.00000000000E+00 0. -1.
         21   -1    0    0  501  502 -0.00000000000E+00 -0.00000000000E+00 -0.27500731867E+03  0.27500731867E+03  0.00000000000E+00 0. -1.
         25    1    1    2    0    0 -0.67205670048E+02  0.24139093441E+02 -0.67356029908E+02  0.15893751188E+03  0.12500000000E+03 0.  0.
         25    1    1    2    0    0  0.46319635374E+02 -0.18920478886E+03  0.21145878130E+02  0.23241365905E+03  0.12500000000E+03 0.  0.
         25    1    1    2    0    0  0.20886034674E+02  0.16506569542E+03  0.13633285235E+03  0.24878616697E+03  0.12500000000E+03 0.  0.
</event>
<event>
 5    0  0.6065010E-005  0.2908609E+03  0.7546771E-02  0.1089901E+00
         21   -1    0    0  502  501  0.00000000000E+00  0.00000000000E+00  0.10307656195E+03  0.10307656195E+03  0.00000000000E+00 0.  1.
         21   -1    0    0  501  502 -0.00000000000E+00 -0.00000000000E+00 -0.82074958744E+03  0.82074958744E+03  0.00000000000E+00 0.  1.
         25    1    1    2    0    0 -0.82689213859E+02 -0.18749636471E+03 -0.38122305031E+03  0.45049795444E+03  0.12500000000E+03 0.  0.
         25    1    1    2    0    0  0.18557399817E+02  0.12115986210E+03 -0.14924516266E+03  0.23005044631E+03  0.12500000000E+03 0.  0.
         25    1    1    2    0    0  0.64131814042E+02  0.66336502612E+02 -0.18720481252E+03  0.24327774864E+03  0.12500000000E+03 0.  0.
</event>
<event>
 5    0  0.5660959E-005  0.3681083E+03  0.7546771E-02  0.1055419E+00
         21   -1    0    0  502  501  0.00000000000E+00  0.00000000000E+00  0.50870952088E+03  0.50870952088E+03  0.00000000000E+00 0.  1.
         21   -1    0    0  501  502 -0.00000000000E+00 -0.00000000000E+00 -0.26636756708E+03  0.26636756708E+03  0.00000000000E+00 0.  1.
         25    1    1    2    0    0 -0.20224554203E+02 -0.13347417251E+02  0.16078851902E+03  0.20509786442E+03  0.12500000000E+03 0.  0.
         25    1    1    2    0    0  0.21633013106E+02  0.25674471460E+03  0.76050852510E+02  0.29630148143E+03  0.12500000000E+03 0.  0.
         25    1    1    2    0    0 -0.14084589032E+01 -0.24339729735E+03  0.55025822676E+01  0.27367774211E+03  0.12500000000E+03 0.  0.
</event>
<event>
 5    0  0.7107011E-005  0.2798481E+03  0.7546771E-02  0.1095772E+00
         21   -1    0    0  502  501  0.00000000000E+00  0.00000000000E+00  0.50900449805E+03  0.50900449805E+03  0.00000000000E+00 0. -1.
         21   -1    0    0  501  502 -0.00000000000E+00 -0.00000000000E+00 -0.15385907100E+03  0.15385907100E+03  0.00000000000E+00 0. -1.
         25    1    1    2    0    0  0.51180426222E+02 -0.70776022528E+02  0.21289974553E+03  0.26187780173E+03  0.12500000000E+03 0.  0.
         25    1    1    2    0    0 -0.69195056747E+02  0.16175895615E+03  0.55707556697E+02  0.22289514945E+03  0.12500000000E+03 0.  0.
         25    1    1    2    0    0  0.18014630525E+02 -0.90982933627E+02  0.86538124818E+02  0.17809061786E+03  0.12500000000E+03 0.  0.
</event>
<event>
 5    0  0.5660959E-005  0.2846013E+03  0.7546771E-02  0.1093202E+00
         21   -1    0    0  502  501  0.00000000000E+00  0.00000000000E+00  0.18142373335E+04  0.18142373335E+04  0.00000000000E+00 0.  1.
         21   -1    0    0  501  502 -0.00000000000E+00 -0.00000000000E+00 -0.44645699905E+02  0.44645699905E+02  0.00000000000E+00 0.  1.
         25    1    1    2    0    0  0.15223936088E+03  0.34986412356E+02  0.39205735305E+03  0.44015320075E+03  0.12500000000E+03 0.  0.
         25    1    1    2    0    0 -0.15361269861E+03 -0.77626462573E+01  0.63363457096E+03  0.66390879597E+03  0.12500000000E+03 0.  0.
         25    1    1    2    0    0  0.13733377265E+01 -0.27223766098E+02  0.74389970958E+03  0.75482103667E+03  0.12500000000E+03 0.  0.
</event>
<event>
 5    0  0.6003860E-005  0.4613176E+03  0.7546771E-02  0.1024400E+00
         21   -1    0    0  502  501  0.00000000000E+00  0.00000000000E+00  0.19110206241E+04  0.19110206241E+04  0.00000000000E+00 0. -1.
         21   -1    0    0  501  502 -0.00000000000E+00 -0.00000000000E+00 -0.11136138673E+03  0.11136138673E+03  0.00000000000E+00 0. -1.
         25    1    1    2    0    0  0.24744719498E+03 -0.18313691691E+02  0.66669719353E+03  0.72227117724E+03  0.12500000000E+03 0.  0.
         25    1    1    2    0    0 -0.12453453597E+03  0.12500855368E+03  0.10607300502E+04  0.10825475641E+04  0.12500000000E+03 0.  0.
         25    1    1    2    0    0 -0.12291265901E+03 -0.10669486199E+03  0.72231993616E+02  0.21756326947E+03  0.12500000000E+03 0.  0.
</event>
<event>
 5    0  0.5660959E-005  0.2511854E+03  0.7546771E-02  0.1112558E+00
         21   -1    0    0  502  501  0.00000000000E+00  0.00000000000E+00  0.69086573129E+02  0.69086573129E+02  0.00000000000E+00 0. -1.
         21   -1    0    0  501  502 -0.00000000000E+00 -0.00000000000E+00 -0.91326171697E+03  0.91326171697E+03  0.00000000000E+00 0. -1.
         25    1    1    2    0    0 -0.92240316232E+02 -0.79560329342E+00 -0.46701086670E+03  0.49217177747E+03  0.12500000000E+03 0.  0.
         25    1    1    2    0    0  0.10713569910E+03 -0.93101698551E+01 -0.29957295938E+03  0.34195569198E+03  0.12500000000E+03 0.  0.
         25    1    1    2    0    0 -0.14895382869E+02  0.10105773149E+02 -0.77591317757E+02  0.14822082065E+03  0.12500000000E+03 0.  0.
</event>
<event>
 5    0  0.5660959E-005  0.2746422E+03  0.7546771E-02  0.1098652E+00
         21   -1    0    0  502  501  0.00000000000E+00  0.00000000000E+00  0.28641636975E+03  0.28641636975E+03  0.00000000000E+00 0.  1.
         21   -1    0    0  501  502 -0.00000000000E+00 -0.00000000000E+00 -0.26335198992E+03  0.26335198992E+03  0.00000000000E+00 0.  1.
         25    1    1    2    0    0 -0.10695316798E+03  0.13410012585E+03  0.13308857297E+02  0.21265923346E+03  0.12500000000E+03 0.  0.
         25    1    1    2    0    0  0.24229018965E+02 -0.65614711298E+02  0.72782748719E+02  0.16066942525E+03  0.12500000000E+03 0.  0.
         25    1    1    2    0    0  0.82724149013E+02 -0.68485414548E+02 -0.63027226183E+02  0.17643970096E+03  0.12500000000E+03 0.  0.
</event>
<event>
 5    0  0.5660959E-005  0.2296563E+03  0.7546771E-02  0.1126882E+00
         21   -1    0    0  502  501  0.00000000000E+00  0.00000000000E+00  0.17026024540E+03  0.17026024540E+03  0.00000000000E+00 0.  1.
         21   -1    0    0  501  502 -0.00000000000E+00 -0.00000000000E+00 -0.30977288085E+03  0.30977288085E+03  0.00000000000E+00 0.  1.
         25    1    1    2    0    0 -0.46498255784E+02 -0.34205143140E+01 -0.90534726090E+01  0.13371893312E+03  0.12500000000E+03 0.  0.
         25    1    1    2    0    0  0.74701774205E+02 -0.22904155557E+02  0.17926410422E+02  0.14849684038E+03  0.12500000000E+03 0.  0.
         25    1    1    2    0    0 -0.28203518421E+02  0.26324669871E+02 -0.14838557326E+03  0.19781735274E+03  0.12500000000E+03 0.  0.
</event>
<event>
 5    0  0.5660959E-005  0.3692872E+03  0.7546771E-02  0.1054966E+00
         21   -1    0    0  502  501  0.00000000000E+00  0.00000000000E+00  0.93710775167E+03  0.93710775167E+03  0.00000000000E+00 0.  1.
         21   -1    0    0  501  502 -0.00000000000E+00 -0.00000000000E+00 -0.14552543083E+03  0.14552543083E+03  0.00000000000E+00 0.  1.
         25    1    1    2    0    0  0.22638412086E+03  0.46920627867E+02  0.55947057742E+03  0.61812914710E+03  0.12500000000E+03 0.  0.
         25    1    1    2    0    0 -0.34552744771E+02 -0.20206650679E+02 -0.81971123608E+01  0.13150815014E+03  0.12500000000E+03 0.  0.
         25    1    1    2    0    0 -0.19183137609E+03 -0.26713977189E+02  0.24030885578E+03  0.33299588526E+03  0.12500000000E+03 0.  0.
</event>
<event>
 5    0  0.5660959E-005  0.3877982E+03  0.7546771E-02  0.1048089E+00
         21   -1    0    0  502  501  0.00000000000E+00  0.00000000000E+00  0.58945563197E+02  0.58945563197E+02  0.00000000000E+00 0. -1.
         21   -1    0    0  501  502 -0.00000000000E+00 -0.00000000000E+00 -0.25512930992E+04  0.25512930992E+04  0.00000000000E+00 0. -1.
         25    1    1    2    0    0 -0.14996021387E+03 -0.22474967515E+03 -0.14959487939E+04  0.15252830152E+04  0.12500000000E+03 0.  0.
         25    1    1    2    0    0  0.15541746163E+03  0.21848413124E+03 -0.59538581937E+03  0.66483018651E+03  0.12500000000E+03 0.  0.
         25    1    1    2    0    0 -0.54572477557E+01  0.62655439108E+01 -0.40101292271E+03  0.42012546076E+03  0.12500000000E+03 0.  0.
</event>
<event>
 5    0  0.5660959E-005  0.2660319E+03  0.7546771E-02  0.1103572E+00
         21   -1    0    0  502  501  0.00000000000E+00  0.00000000000E+00  0.45469929455E+03  0.45469929455E+03  0.00000000000E+00 0. -1.
         21   -1    0    0  501  502 -0.00000000000E+00 -0.00000000000E+00 -0.15564788816E+03  0.15564788816E+03  0.00000000000E+00 0. -1.
         25    1    1    2    0    0  0.62518053205E+01 -0.25699584184E+02  0.31544330064E+03  0.34033664160E+03  0.12500000000E+03 0.  0.
         25    1    1    2    0    0 -0.50696862529E+01  0.26917124772E+02 -0.54837808909E+02  0.13922075496E+03  0.12500000000E+03 0.  0.
         25    1    1    2    0    0 -0.11821190676E+01 -0.12175405876E+01  0.38445914662E+02  0.13078978616E+03  0.12500000000E+03 0.  0.
</event>
<event>
 5    0  0.6400829E-005  0.3819162E+03  0.7546771E-02  0.1050228E+00
         21   -1    0    0  502  501  0.00000000000E+00  0.00000000000E+00  0.41539602802E+03  0.41539602802E+03  0.00000000000E+00 0. -1.
         21   -1    0    0  501  502 -0.00000000000E+00 -0.00000000000E+00 -0.35113479466E+03  0.35113479466E+03  0.00000000000E+00 0. -1.
         25    1    1    2    0    0 -0.24332816230E+03 -0.85365492865E+02  0.77298391926E+02  0.29680954051E+03  0.12500000000E+03 0.  0.
         25    1    1    2    0    0  0.60311742529E+02  0.40257599901E+02  0.13633670753E+03  0.19867279244E+03  0.12500000000E+03 0.  0.
         25    1    1    2    0    0  0.18301641977E+03  0.45107892964E+02 -0.14937386610E+03  0.27104848974E+03  0.12500000000E+03 0.  0.
</event>
<event>
 5    0  0.5660959E-005  0.2753569E+03  0.7546771E-02  0.1098252E+00
         21   -1    0    0  502  501  0.00000000000E+00  0.00000000000E+00  0.52791317295E+02  0.52791317295E+02  0.00000000000E+00 0.  1.
         21   -1    0    0  501  502 -0.00000000000E+00 -0.00000000000E+00 -0.14362475433E+04  0.14362475433E+04  0.00000000000E+00 0.  1.
         25    1    1    2    0    0  0.57299703792E+02  0.46348690152E+02 -0.15500431468E+03  0.21232709366E+03  0.12500000000E+03 0.  0.
         25    1    1    2    0    0 -0.60587743038E+01  0.90469832946E+02 -0.59579502476E+03  0.61548209637E+03  0.12500000000E+03 0.  0.
         25    1    1    2    0    0 -0.51240929489E+02 -0.13681852310E+03 -0.63265688656E+03  0.66122967056E+03  0.12500000000E+03 0.  0.
</event>
<event>
 5    0  0.5660959E-005  0.4525304E+03  0.7546771E-02  0.1026970E+00
         21   -1    0    0  502  501  0.00000000000E+00  0.00000000000E+00  0.92087929412E+03  0.92087929412E+03  0.00000000000E+00 0.  1.
         21   -1    0    0  501  502 -0.00000000000E+00 -0.00000000000E+00 -0.22237851508E+03  0.22237851508E+03  0.00000000000E+00 0.  1.
         25    1    1    2    0    0  0.66435673074E+02 -0.66860987987E+01  0.71403830816E+03  0.72796573277E+03  0.12500000000E+03 0.  0.
         25    1    1    2    0    0 -0.11221154630E+03  0.30776024845E+02 -0.14798336729E+03  0.22597051095E+03  0.12500000000E+03 0.  0.
         25    1    1    2    0    0  0.45775873223E+02 -0.24089926047E+02  0.13244583816E+03  0.18932156547E+03  0.12500000000E+03 0.  0.
</event>
<event>
 5    0  0.5660959E-005  0.2897521E+03  0.7546771E-02  0.1090479E+00
         21   -1    0    0  502  501  0.00000000000E+00  0.00000000000E+00  0.68850410387E+03  0.68850410387E+03  0.00000000000E+00 0.  1.
         21   -1    0    0  501  502 -0.00000000000E+00 -0.00000000000E+00 -0.12194009882E+03  0.12194009882E+03  0.00000000000E+00 0.  1.
         25    1    1    2    0    0  0.67464331811E+02  0.27623070301E+02  0.64889946337E+02  0.15858806769E+03  0.12500000000E+03 0.  0.
         25    1    1    2    0    0  0.37878878609E+02  0.13017315663E+02  0.45996003826E+03  0.47832258649E+03  0.12500000000E+03 0.  0.
         25    1    1    2    0    0 -0.10534321042E+03 -0.40640385964E+02  0.41714020454E+02  0.17353354850E+03  0.12500000000E+03 0.  0.
</event>
<event>
 5    0  0.6653954E-005  0.3865483E+03  0.7546771E-02  0.1048540E+00
         21   -1    0    0  502  501  0.00000000000E+00  0.00000000000E+00  0.13685697879E+03  0.13685697879E+03  0.00000000000E+00 0.  1.
         21   -1    0    0  501  502 -0.00000000000E+00 -0.00000000000E+00 -0.10917937592E+04  0.10917937592E+04  0.00000000000E+00 0.  1.
         25    1    1    2    0    0  0.26426483955E+02 -0.15184111788E+03 -0.74191906113E+02  0.21185731771E+03  0.12500000000E+03 0.  0.
         25    1    1    2    0    0 -0.18495243696E+03 -0.11018143779E+02 -0.25306951396E+03  0.33763587240E+03  0.12500000000E+03 0.  0.
         25    1    1    2    0    0  0.15852595301E+03  0.16285926166E+03 -0.62767536035E+03  0.67915754791E+03  0.12500000000E+03 0.  0.
</event>
<event>
 5    0  0.5660959E-005  0.3983550E+03  0.7546771E-02  0.1044351E+00
         21   -1    0    0  502  501  0.00000000000E+00  0.00000000000E+00  0.16807675080E+03  0.16807675080E+03  0.00000000000E+00 0. -1.
         21   -1    0    0  501  502 -0.00000000000E+00 -0.00000000000E+00 -0.94413245196E+03  0.94413245196E+03  0.00000000000E+00 0. -1.
         25    1    1    2    0    0  0.37115082060E+02 -0.23345428021E+03 -0.23421617558E+03  0.35547242814E+03  0.12500000000E+03 0.  0.
         25    1    1    2    0    0 -0.10503399744E+03 -0.77234804269E+02 -0.24309581860E+03  0.30284968653E+03  0.12500000000E+03 0.  0.
         25    1    1    2    0    0  0.67918915381E+02  0.31068908448E+03 -0.29874370698E+03  0.45388708810E+03  0.12500000000E+03 0.  0.
</event>
<event>
 5    0  0.5660959E-005  0.3645906E+03  0.7546771E-02  0.1056781E+00
         21   -1    0    0  502  501  0.00000000000E+00  0.00000000000E+00  0.10487940813E+04  0.10487940813E+04  0.00000000000E+00 0. -1.
         21   -1    0    0  501  502 -0.00000000000E+00 -0.00000000000E+00 -0.12674204769E+03  0.12674204769E+03  0.00000000000E+00 0. -1.
         25    1    1    2    0    0  0.98851857757E+02  0.72530502939E+02  0.20463761358E+03  0.26932121441E+03  0.12500000000E+03 0.  0.
         25    1    1    2    0    0  0.70204350146E+02 -0.19312565561E+03  0.57929552117E+03  0.62724354957E+03  0.12500000000E+03 0.  0.
         25    1    1    2    0    0 -0.16905620790E+03  0.12059515267E+03  0.13811889890E+03  0.27897136504E+03  0.12500000000E+03 0.  0.
</event>
<event>
 5    0  0.5660959E-005  0.3129253E+03  0.7546771E-02  0.1078952E+00
         21   -1    0    0  502  501  0.00000000000E+00  0.00000000000E+00  0.16494506444E+03  0.16494506444E+03  0.00000000000E+00 0.  1.
         21   -1    0    0  501  502 -0.00000000000E+00 -0.00000000000E+00 -0.59366587162E+03  0.59366587162E+03  0.00000000000E+00 0.  1.
         25    1    1    2    0    0  0.30808088195E+02 -0.16705119253E+03 -0.29921274747E+03  0.36607172449E+03  0.12500000000E+03 0.  0.
         25    1    1    2    0    0  0.24198966092E+02 -0.95766048440E+01 -0.10980836269E+03  0.16840480349E+03  0.12500000000E+03 0.  0.
         25    1    1    2    0    0 -0.55007054287E+02  0.17662779737E+03 -0.19699697015E+02  0.22413440808E+03  0.12500000000E+03 0.  0.
</event>
<event>
 5    0  0.5660959E-005  0.4852436E+03  0.7546771E-02  0.1017704E+00
         21   -1    0    0  502  501  0.00000000000E+00  0.00000000000E+00  0.79152669948E+03  0.79152669948E+03  0.00000000000E+00 0. -1.
         21   -1    0    0  501  502 -0.00000000000E+00 -0.00000000000E+00 -0.29747743311E+03  0.29747743311E+03  0.00000000000E+00 0. -1.
         25    1    1    2    0    0 -0.81977097171E+02  0.15378305997E+03  0.64128117020E+03  0.67619229015E+03  0.12500000000E+03 0.  0.
         25    1    1    2    0    0  0.32210953102E+01 -0.17189943461E+03 -0.13969775641E+02  0.21302569260E+03  0.12500000000E+03 0.  0.
         25    1    1    2    0    0  0.78756001861E+02  0.18116374637E+02 -0.13326212820E+03  0.19978614985E+03  0.12500000000E+03 0.  0.
</event>
<event>
 5    0  0.5660959E-005  0.3532504E+03  0.7546771E-02  0.1061289E+00
         21   -1    0    0  502  501  0.00000000000E+00  0.00000000000E+00  0.11277849056E+04  0.11277849056E+04  0.00000000000E+00 0.  1.
         21   -1    0    0  501  502 -0.00000000000E+00 -0.00000000000E+00 -0.11064682659E+03  0.11064682659E+03  0.00000000000E+00 0.  1.
         25    1    1    2    0    0  0.10671870079E+03  0.95238299600E+00  0.20371755543E+03  0.26175490544E+03  0.12500000000E+03 0.  0.
         25    1    1    2    0    0 -0.11763552611E+03 -0.94976739439E+02  0.79494997386E+03  0.81879738579E+03  0.12500000000E+03 0.  0.
         25    1    1    2    0    0  0.10916825318E+02  0.94024356443E+02  0.18470549757E+02  0.15787944099E+03  0.12500000000E+03 0.  0.
</event>
<event>
 5    0  0.5660959E-005  0.2177166E+03  0.7546771E-02  0.1135597E+00
         21   -1    0    0  502  501  0.00000000000E+00  0.00000000000E+00  0.14869874831E+03  0.14869874831E+03  0.00000000000E+00 0. -1.
         21   -1    0    0  501  502 -0.00000000000E+00 -0.00000000000E+00 -0.31876878829E+03  0.31876878829E+03  0.00000000000E+00 0. -1.
         25    1    1    2    0    0  0.16986606531E+02  0.24587810639E+02 -0.77711542205E+02  0.15019050911E+03  0.12500000000E+03 0.  0.
         25    1    1    2    0    0  0.33522808321E+02 -0.60069729797E+02 -0.10521178237E+03  0.17727569000E+03  0.12500000000E+03 0.  0.
         25    1    1    2    0    0 -0.50509414852E+02  0.35481919158E+02  0.12853284590E+02  0.14000133750E+03  0.12500000000E+03 0.  0.
</event>
<event>
 5    0  0.5660959E-005  0.3648304E+03  0.7546771E-02  0.1056687E+00
         21   -1    0    0  502  501  0.00000000000E+00  0.00000000000E+00  0.11922722824E+03  0.11922722824E+03  0.00000000000E+00 0.  1.
         21   -1    0    0  501  502 -0.00000000000E+00 -0.00000000000E+00 -0.11163660871E+04  0.11163660871E+04  0.00000000000E+00 0.  1.
         25    1    1    2    0    0 -0.12616960439E+03  0.11690739752E+03 -0.27068604791E+03  0.34421220954E+03  0.12500000000E+03 0.  0.
         25    1    1    2    0    0  0.12853515197E+03 -0.16243800714E+03 -0.71844336195E+03  0.75808525628E+03  0.12500000000E+03 0.  0.
         25    1    1    2    0    0 -0.23655475750E+01  0.45530609622E+02 -0.80094490110E+01  0.13329584953E+03  0.12500000000E+03 0.  0.
</event>
<event>
 5    0  0.5660959E-005  0.3007074E+03  0.7546771E-02  0.1084888E+00
         21   -1    0    0  502  501  0.00000000000E+00  0.00000000000E+00  0.91868635737E+03  0.91868635737E+03  0.00000000000E+00 0.  1.
         21   -1    0    0  501  502 -0.00000000000E+00 -0.00000000000E+00 -0.98428504830E+02  0.98428504830E+02  0.00000000000E+00 0.  1.
         25    1    1    2    0    0 -0.80495086984E+02  0.46823041580E+02  0.21270584616E+03  0.26370558061E+03  0.12500000000E+03 0.  0.
         25    1    1    2    0    0  0.30633911460E+02  0.11041371492E+03  0.81564989131E+02  0.18816873392E+03  0.12500000000E+03 0.  0.
         25    1    1    2    0    0  0.49861175524E+02 -0.15723675650E+03  0.52598701725E+03  0.56524054767E+03  0.12500000000E+03 0.  0.
</event>
<event>
 5    0  0.5660959E-005  0.2885068E+03  0.7546771E-02  0.1091131E+00
         21   -1    0    0  502  501  0.00000000000E+00  0.00000000000E+00  0.10563225356E+03  0.10563225356E+03  0.00000000000E+00 0.  1.
         21   -1    0    0  501  502 -0.00000000000E+00 -0.00000000000E+00 -0.78798040814E+03  0.78798040814E+03  0.00000000000E+00 0.  1.
         25    1    1    2    0    0 -0.53047593653E+02 -0.15619480157E+02 -0.25485603786E+03  0.28919649961E+03  0.12500000000E+03 0.  0.
         25    1    1    2    0    0 -0.87104104494E+02  0.10910689968E+03 -0.92055863604E+02  0.20878391366E+03  0.12500000000E+03 0.  0.
         25    1    1    2    0    0  0.14015169815E+03 -0.93487419525E+02 -0.33543625311E+03  0.39563224844E+03  0.12500000000E+03 0.  0.
</event>
<event>
 5    0  0.5660959E-005  0.3985516E+03  0.7546771E-02  0.1044282E+00
         21   -1    0    0  502  501  0.00000000000E+00  0.00000000000E+00  0.12459775624E+04  0.12459775624E+04  0.00000000000E+00 0. -1.
         21   -1    0    0  501  502 -0.00000000000E+00 -0.00000000000E+00 -0.12748495560E+03  0.12748495560E+03  0.00000000000E+00 0. -1.
         25    1    1    2    0    0  0.26289769801E+03  0.15852793049E+03  0.34091818542E+03  0.47549607098E+03  0.12500000000E+03 0.  0.
         25    1    1    2    0    0 -0.63391650234E+02 -0.13143226612E+03  0.21984041587E+03  0.29197217392E+03  0.12500000000E+03 0.  0.
         25    1    1    2    0    0 -0.19950604778E+03 -0.27095664377E+02  0.55773400550E+03  0.60599427309E+03  0.12500000000E+03 0.  0.
</event>
<event>
 5    0  0.5660959E-005  0.3238287E+03  0.7546771E-02  0.1073901E+00
         21   -1    0    0  502  501  0.00000000000E+00  0.00000000000E+00  0.11224418531E+03  0.11224418531E+03  0.00000000000E+00 0. -1.
         21   -1    0    0  501  502 -0.00000000000E+00 -0.00000000000E+00 -0.93425798388E+03  0.93425798388E+03  0.00000000000E+00 0. -1.
         25    1    1    2    0    0  0.18451560678E+03  0.13252976339E+03 -0.42877126337E+03  0.50107877986E+03  0.12500000000E+03 0.  0.
         25    1    1    2    0    0 -0.11945521219E+03  0.12704524744E+02 -0.21106155891E+03  0.27313537728E+03  0.12500000000E+03 0.  0.
         25    1    1    2    0    0 -0.65060394584E+02 -0.14523428813E+03 -0.18218097629E+03  0.27228801206E+03  0.12500000000E+03 0.  0.
</event>
<event>
 5    0  0.5660959E-005  0.2647914E+03  0.7546771E-02  0.1104298E+00
         21   -1    0    0  502  501  0.00000000000E+00  0.00000000000E+00  0.10544372069E+03  0.10544372069E+03  0.00000000000E+00 0.  1.
         21   -1    0    0  501  502 -0.00000000000E+00 -0.00000000000E+00 -0.66494677230E+03  0.66494677230E+03  0.00000000000E+00 0.  1.
         25    1    1    2    0    0 -0.44079510330E+02 -0.67899825136E+02 -0.22112678790E+03  0.26659978584E+03  0.12500000000E+03 0.  0.
         25    1    1    2    0    0 -0.33427465170E+02  0.61316678968E+02 -0.32598277580E+03  0.35604339716E+03  0.12500000000E+03 0.  0.
         25    1    1    2    0    0  0.77506975500E+02  0.65831461676E+01 -0.12393487914E+02  0.14774730998E+03  0.12500000000E+03 0.  0.
</event>
<event>
 5    0  0.5660959E-005  0.2636528E+03  0.7546771E-02  0.1104968E+00
         21   -1    0    0  502  501  0.00000000000E+00  0.00000000000E+00  0.18531473949E+03  0.18531473949E+03  0.00000000000E+00 0. -1.
         21   -1    0    0  501  502 -0.00000000000E+00 -0.00000000000E+00 -0.37510671571E+03  0.37510671571E+03  0.00000000000E+00 0. -1.
         25    1    1    2    0    0  0.10223138732E+03  0.11627392456E+03 -0.40584338070E+02  0.20308365415E+03  0.12500000000E+03 0.  0.
         25    1    1    2    0    0 -0.82089966032E+02 -0.10680111881E+03 -0.13812552932E+03  0.22988889349E+03  0.12500000000E+03 0.  0.
         25    1    1    2    0    0 -0.20141421292E+02 -0.94728057576E+01 -0.11082108833E+02  0.12744890755E+03  0.12500000000E+03 0.  0.
</event>
<event>
 5    0  0.5660959E-005  0.5116365E+03  0.7546771E-02  0.1010785E+00
         21   -1    0    0  502  501  0.00000000000E+00  0.00000000000E+00  0.21474635822E+04  0.21474635822E+04  0.00000000000E+00 0. -1.
         21   -1    0    0  501  502 -0.00000000000E+00 -0.00000000000E+00 -0.12189818894E+03  0.12189818894E+03  0.00000000000E+00 0. -1.
         25    1    1    2    0    0 -0.83855162827E+02 -0.12279146900E+03  0.58183330052E+03  0.61340396379E+03  0.12500000000E+03 0.  0.
         25    1    1    2    0    0 -0.12109821144E+03  0.21691296231E+03  0.11252106881E+03  0.30000333491E+03  0.12500000000E+03 0.  0.
         25    1    1    2    0    0  0.20495337427E+03 -0.94121493311E+02  0.13312110240E+04  0.13559544725E+04  0.12500000000E+03 0.  0.
</event>
<event>
 5    0  0.5660959E-005  0.2550530E+03  0.7546771E-02  0.1110152E+00
         21   -1    0    0  502  501  0.00000000000E+00  0.00000000000E+00  0.64561012783E+02  0.64561012783E+02  0.00000000000E+00 0.  1.
         21   -1    0    0  501  502 -0.00000000000E+00 -0.00000000000E+00 -0.10076057321E+04  0.10076057321E+04  0.00000000000E+00 0.  1.
         25    1    1    2    0    0 -0.44109462302E+02  0.50544274757E+02 -0.14443652326E+03  0.20245314921E+03  0.12500000000E+03 0.  0.
         25    1    1    2    0    0  0.41154824536E+02 -0.74809038059E+01 -0.11972282659E+03  0.17806807325E+03  0.12500000000E+03 0.  0.
         25    1    1    2    0    0  0.29546377657E+01 -0.43063370951E+02 -0.67888536943E+03  0.69164552238E+03  0.12500000000E+03 0.  0.
</event>
<event>
 5    0  0.5660959E-005  0.2940084E+03  0.7546771E-02  0.1088275E+00
         21   -1    0    0  502  501  0.00000000000E+00  0.00000000000E+00  0.81974723151E+02  0.81974723151E+02  0.00000000000E+00 0.  1.
         21   -1    0    0  501  502 -0.00000000000E+00 -0.00000000000E+00 -0.10544825041E+04  0.10544825041E+04  0.00000000000E+00 0.  1.
         25    1    1    2    0    0 -0.14073458274E+03  0.33390859553E+02 -0.29683142158E+03  0.35306524202E+03  0.12500000000E+03 0.  0.
         25    1    1    2    0    0 -0.66000543068E+02  0.18756318731E+02 -0.18109637253E+03  0.23049678376E+03  0.12500000000E+03 0.  0.
         25    1    1    2    0    0  0.20673512581E+03 -0.52147178284E+02 -0.49457998688E+03  0.55289520153E+03  0.12500000000E+03 0.  0.
</event>
<event>
 5    0  0.5660959E-005  0.2394785E+03  0.7546771E-02  0.1120141E+00
         21   -1    0    0  502  501  0.00000000000E+00  0.00000000000E+00  0.44166066849E+02  0.44166066849E+02  0.00000000000E+00 0.  1.
         21   -1    0    0  501  502 -0.00000000000E+00 -0.00000000000E+00 -0.12985076543E+04  0.12985076543E+04  0.00000000000E+00 0.  1.
         25    1    1    2    0    0 -0.11232419019E+02  0.10046817168E+03 -0.36406601190E+03  0.39798125808E+03  0.12500000000E+03 0.  0.
         25    1    1    2    0    0  0.12553214268E+02 -0.10483262484E+03 -0.68532691855E+03  0.70458885012E+03  0.12500000000E+03 0.  0.
         25    1    1    2    0    0 -0.13207952495E+01  0.43644531565E+01 -0.20494865704E+03  0.24010361300E+03  0.12500000000E+03 0.  0.
</event>
<event>
 5    0  0.5660959E-005  0.2857155E+03  0.7546771E-02  0.1092608E+00
         21   -1    0    0  502  501  0.00000000000E+00  0.00000000000E+00  0.10323740822E+04  0.10323740822E+04  0.00000000000E+00 0. -1.
         21   -1    0    0  501  502 -0.00000000000E+00 -0.00000000000E+00 -0.79073418346E+02  0.79073418346E+02  0.00000000000E+00 0. -1.
         25    1    1    2    0    0  0.70290945478E+02  0.65224961547E+02  0.44129883909E+03  0.46857739809E+03  0.12500000000E+03 0.  0.
         25    1    1    2    0    0 -0.35673987420E+02  0.64491740243E+02  0.63672844898E+02  0.15846466204E+03  0.12500000000E+03 0.  0.
         25    1    1    2    0    0 -0.34616958058E+02 -0.12971670179E+03  0.44832897983E+03  0.48440544038E+03  0.12500000000E+03 0.  0.
</event>
<event>
 5    0  0.5660959E-005  0.3490184E+03  0.7546771E-02  0.1063019E+00
         21   -1    0    0  502  501  0.00000000000E+00  0.00000000000E+00  0.53584195511E+02  0.53584195511E+02  0.00000000000E+00 0. -1.
         21   -1    0    0  501  502 -0.00000000000E+00 -0.00000000000E+00 -0.22733164968E+04  0.22733164968E+04  0.00000000000E+00 0. -1.
         25    1    1    2    0    0  0.89049003676E+01 -0.14195460775E+02 -0.16329323569E+03  0.20632617183E+03  0.12500000000E+03 0.  0.
         25    1    1    2    0    0 -0.19135092253E+03  0.54742624759E+02 -0.15326478288E+04  0.15505632195E+04  0.12500000000E+03 0.  0.
         25    1    1    2    0    0  0.18244602217E+03 -0.40547163984E+02 -0.52379123675E+03  0.57001130095E+03  0.12500000000E+03 0.  0.
</event>
<event>
 5    0  0.5660959E-005  0.3749374E+03  0.7546771E-02  0.1052821E+00
         21   -1    0    0  502  501  0.00000000000E+00  0.00000000000E+00  0.94173175889E+02  0.94173175889E+02  0.00000000000E+00 0.  1.
         21   -1    0    0  501  502 -0.00000000000E+00 -0.00000000000E+00 -0.14927614834E+04  0.14927614834E+04  0.00000000000E+00 0.  1.
         25    1    1    2    0    0 -0.12707664530E+03  0.34680409080E+01 -0.11503011048E+04  0.11640352799E+04  0.12500000000E+03 0.  0.
         25    1    1    2    0    0  0.85981633408E+01 -0.74366143324E+02 -0.16121973258E+03  0.21730405854E+03  0.12500000000E+03 0.  0.
         25    1    1    2    0    0  0.11847848196E+03  0.70898102416E+02 -0.87067470150E+02  0.20559532089E+03  0.12500000000E+03 0.  0.
</event>
<event>
 5    0  0.6296187E-005  0.3165929E+03  0.7546771E-02  0.1077228E+00
         21   -1    0    0  502  501  0.00000000000E+00  0.00000000000E+00  0.47419282126E+03  0.47419282126E+03  0.00000000000E+00 0. -1.
         21   -1    0    0  501  502 -0.00000000000E+00 -0.00000000000E+00 -0.21137201758E+03  0.21137201758E+03  0.00000000000E+00 0. -1.
         25    1    1    2    0    0  0.98281079638E+01  0.78438783197E+01 -0.81572623220E+02  0.14979055709E+03  0.12500000000E+03 0.  0.
         25    1    1    2    0    0  0.15215884664E+03  0.30104941946E+02  0.20144265106E+03  0.28330683685E+03  0.12500000000E+03 0.  0.
         25    1    1    2    0    0 -0.16198695460E+03 -0.37948820265E+02  0.14295077584E+03  0.25246744490E+03  0.12500000000E+03 0.  0.
</event>
<event>
 5    0  0.5660959E-005  0.2748874E+03  0.7546771E-02  0.1098515E+00
         21   -1    0    0  502  501  0.00000000000E+00  0.00000000000E+00  0.47014854000E+03  0.47014854000E+03  0.00000000000E+00 0.  1.
         21   -1    0    0  501  502 -0.00000000000E+00 -0.00000000000E+00 -0.16072173192E+03  0.16072173192E+03  0.00000000000E+00 0.  1.
         25    1    1    2    0    0  0.10035019467E+03  0.16586976561E+03  0.14018097115E+03  0.26992340652E+03  0.12500000000E+03 0.  0.
         25    1    1    2    0    0 -0.54389870897E+02 -0.89694532030E+02  0.10834169807E+03  0.19587314944E+03  0.12500000000E+03 0.  0.
         25    1    1    2    0    0 -0.45960323769E+02 -0.76175233579E+02  0.60904138855E+02  0.16507371596E+03  0.12500000000E+03 0.  0.
</event>
<event>
 5    0  0.5660959E-005  0.2213925E+03  0.7546771E-02  0.1132849E+00
         21   -1    0    0  502  501  0.00000000000E+00  0.00000000000E+00  0.11818695503E+03  0.11818695503E+03  0.00000000000E+00 0. -1.
         21   -1    0    0  501  502 -0.00000000000E+00 -0.00000000000E+00 -0.41472134961E+03  0.41472134961E+03  0.00000000000E+00 0. -1.
         25    1    1    2    0    0  0.29703045512E+02 -0.70982713315E+02 -0.13316079050E+03  0.19818580329E+03  0.12500000000E+03 0.  0.
         25    1    1    2    0    0 -0.59466685772E+02 -0.39152267430E+01 -0.48257266270E+02  0.14664712566E+03  0.12500000000E+03 0.  0.
         25    1    1    2    0    0  0.29763640260E+02  0.74897940058E+02 -0.11511633782E+03  0.18807537569E+03  0.12500000000E+03 0.  0.
</event>
<event>
 5    0  0.6070190E-005  0.2943585E+03  0.7546771E-02  0.1088095E+00
         21   -1    0    0  502  501  0.00000000000E+00  0.00000000000E+00  0.31621632906E+03  0.31621632906E+03  0.00000000000E+00 0. -1.
         21   -1    0    0  501  502 -0.00000000000E+00 -0.00000000000E+00 -0.27401148005E+03  0.27401148005E+03  0.00000000000E+00 0. -1.
         25    1    1    2    0    0  0.13620022996E+03  0.73294525656E+02 -0.87029872090E+02  0.21707553701E+03  0.12500000000E+03 0.  0.
         25    1    1    2    0    0  0.43837993101E+01 -0.14937676093E+02  0.12304929971E+03  0.17609225430E+03  0.12500000000E+03 0.  0.
         25    1    1    2    0    0 -0.14058402927E+03 -0.58356849563E+02  0.61854213935E+01  0.19706001780E+03  0.12500000000E+03 0.  0.
</event>
<event>
 5    0  0.5660959E-005  0.4086990E+03  0.7546771E-02  0.1040808E+00
         21   -1    0    0  502  501  0.00000000000E+00  0.00000000000E+00  0.41421843081E+03  0.41421843081E+03  0.00000000000E+00 0. -1.
         21   -1    0    0  501  502 -0.00000000000E+00 -0.00000000000E+00 -0.40325311446E+03  0.40325311446E+03  0.00000000000E+00 0. -1.
         25    1    1    2    0    0  0.30103845508E+03 -0.91232409139E+02  0.68106271385E+02  0.34526941382E+03  0.12500000000E+03 0.  0.
         25    1    1    2    0    0 -0.98183865841E+02  0.54824510656E+02 -0.13846235781E+03  0.21781327556E+03  0.12500000000E+03 0.  0.
         25    1    1    2    0    0 -0.20285458924E+03  0.36407898483E+02  0.81321402787E+02  0.25438885589E+03  0.12500000000E+03 0.  0.
</event>
<event>
 5    0  0.5660959E-005  0.3619816E+03  0.7546771E-02  0.1057802E+00
         21   -1    0    0  502  501  0.00000000000E+00  0.00000000000E+00  0.10767762233E+04  0.10767762233E+04  0.00000000000E+00 0. -1.
         21   -1    0    0  501  502 -0.00000000000E+00 -0.00000000000E+00 -0.12168793223E+03  0.12168793223E+03  0.00000000000E+00 0. -1.
         25    1    1    2    0    0 -0.75259096153E+02  0.40779004326E+02  0.11738474309E+03  0.19165342850E+03  0.12500000000E+03 0.  0.
         25    1    1    2    0    0  0.23137843216E+03  0.94393421180E+02  0.26405652803E+03  0.38444368486E+03  0.12500000000E+03 0.  0.
         25    1    1    2    0    0 -0.15611933601E+03 -0.13517242551E+03  0.57364701996E+03  0.62236704219E+03  0.12500000000E+03 0.  0.
</event>
<event>
 5    0  0.5660959E-005  0.2408896E+03  0.7546771E-02  0.1119202E+00
         21   -1    0    0  502  501  0.00000000000E+00  0.00000000000E+00  0.64722161285E+02  0.64722161285E+02  0.00000000000E+00 0. -1.
         21   -1    0    0  501  502 -0.00000000000E+00 -0.00000000000E+00 -0.89656782666E+03  0.89656782666E+03  0.00000000000E+00 0. -1.
         25    1    1    2    0    0 -0.34345130947E+02 -0.85646622983E+02 -0.16893612156E+03  0.22951981443E+03  0.12500000000E+03 0.  0.
         25    1    1    2    0    0 -0.22573823353E+02  0.76234464723E+02 -0.20043811964E+03  0.24924227354E+03  0.12500000000E+03 0.  0.
         25    1    1    2    0    0  0.56918954300E+02  0.94121582596E+01 -0.46247142417E+03  0.48252789997E+03  0.12500000000E+03 0.  0.
</event>
<event>
 5    0  0.6970299E-005  0.4003738E+03  0.7546771E-02  0.1043650E+00
         21   -1    0    0  502  501  0.00000000000E+00  0.00000000000E+00  0.33101002602E+03  0.33101002602E+03  0.00000000000E+00 0.  1.
         21   -1    0    0  501  502 -0.00000000000E+00 -0.00000000000E+00 -0.48427296986E+03  0.48427296986E+03  0.00000000000E+00 0.  1.
         25    1    1    2    0    0 -0.17684550509E+03 -0.50825739504E+02 -0.15223645613E+03  0.26955245694E+03  0.12500000000E+03 0.  0.
         25    1    1    2    0    0  0.82675836273E+02  0.24236213478E+03  0.59471090091E+02  0.29109536038E+03  0.12500000000E+03 0.  0.
         25    1    1    2    0    0  0.94169668818E+02 -0.19153639528E+03 -0.60497577802E+02  0.25463517856E+03  0.12500000000E+03 0.  0.
</event>
<event>
 5    0  0.5718718E-005  0.2496653E+03  0.7546771E-02  0.1113517E+00
         21   -1    0    0  502  501  0.00000000000E+00  0.00000000000E+00  0.22042031691E+03  0.22042031691E+03  0.00000000000E+00 0.  1.
         21   -1    0    0  501  502 -0.00000000000E+00 -0.00000000000E+00 -0.28279051328E+03  0.28279051328E+03  0.00000000000E+00 0.  1.
         25    1    1    2    0    0  0.24263999341E+02 -0.66850487257E+02 -0.50772784125E+02  0.15251427775E+03  0.12500000000E+03 0.  0.
         25    1    1    2    0    0 -0.95094649963E+02  0.11587750416E+03 -0.31092843655E+02  0.19764198276E+03  0.12500000000E+03 0.  0.
         25    1    1    2    0    0  0.70830650622E+02 -0.49027016899E+02  0.19495431416E+02  0.15305456968E+03  0.12500000000E+03 0.  0.
</event>
<event>
 5    0  0.5660959E-005  0.2885275E+03  0.7546771E-02  0.1091120E+00
         21   -1    0    0  502  501  0.00000000000E+00  0.00000000000E+00  0.31519581159E+03  0.31519581159E+03  0.00000000000E+00 0.  1.
         21   -1    0    0  501  502 -0.00000000000E+00 -0.00000000000E+00 -0.26411562215E+03  0.26411562215E+03  0.00000000000E+00 0.  1.
         25    1    1    2    0    0  0.24076447647E+02  0.20543888258E+02  0.10142968645E+03  0.16405702658E+03  0.12500000000E+03 0.  0.
         25    1    1    2    0    0 -0.41262061458E+02 -0.16761818810E+03  0.67537123130E+01  0.21323467666E+03  0.12500000000E+03 0.  0.
         25    1    1    2    0    0  0.17185613811E+02  0.14707429985E+03 -0.57103209333E+02  0.20201973051E+03  0.12500000000E+03 0.  0.
</event>
<event>
 5    0  0.5660959E-005  0.3411561E+03  0.7546771E-02  0.1066305E+00
         21   -1    0    0  502  501  0.00000000000E+00  0.00000000000E+00  0.13582219355E+04  0.13582219355E+04  0.00000000000E+00 0. -1.
         21   -1    0    0  501  502 -0.00000000000E+00 -0.00000000000E+00 -0.85691085032E+02  0.85691085032E+02  0.00000000000E+00 0. -1.
         25    1    1    2    0    0 -0.30385708177E+02  0.11561422223E+02  0.94594291868E+02  0.16009384060E+03  0.12500000000E+03 0.  0.
         25    1    1    2    0    0 -0.15489698768E+03 -0.14454031851E+03  0.48799665290E+03  0.54648944520E+03  0.12500000000E+03 0.  0.
         25    1    1    2    0    0  0.18528269586E+03  0.13297889629E+03  0.68993990570E+03  0.73732973473E+03  0.12500000000E+03 0.  0.
</event>
<event>
 5    0  0.5660959E-005  0.2372528E+03  0.7546771E-02  0.1121637E+00
         21   -1    0    0  502  501  0.00000000000E+00  0.00000000000E+00  0.43759694749E+03  0.43759694749E+03  0.00000000000E+00 0.  1.
         21   -1    0    0  501  502 -0.00000000000E+00 -0.00000000000E+00 -0.12863186089E+03  0.12863186089E+03  0.00000000000E+00 0.  1.
         25    1    1    2    0    0 -0.64120891887E+02  0.60333933121E+02  0.58697680916E+02  0.16377450964E+03  0.12500000000E+03 0.  0.
         25    1    1    2    0    0  0.51352867183E+02 -0.11552450254E+03  0.13502669842E+03  0.22324927086E+03  0.12500000000E+03 0.  0.
         25    1    1    2    0    0  0.12768024704E+02  0.55190569422E+02  0.11524070727E+03  0.17920502789E+03  0.12500000000E+03 0.  0.
</event>
<event>
 5    0  0.5660959E-005  0.3752790E+03  0.7546771E-02  0.1052693E+00
         21   -1    0    0  502  501  0.00000000000E+00  0.00000000000E+00  0.40284723272E+03  0.40284723272E+03  0.00000000000E+00 0. -1.
         21   -1    0    0  501  502 -0.00000000000E+00 -0.00000000000E+00 -0.34959729859E+03  0.34959729859E+03  0.00000000000E+00 0. -1.
         25    1    1    2    0    0  0.23223572044E+03 -0.10592909272E+03 -0.83213263949E+01  0.28433896498E+03  0.12500000000E+03 0.  0.
         25    1    1    2    0    0 -0.83837737757E+01 -0.37111246461E+02  0.10968748751E+03  0.17059858497E+03  0.12500000000E+03 0.  0.
         25    1    1    2    0    0 -0.22385194667E+03  0.14304033918E+03 -0.48116226983E+02  0.29750698136E+03  0.12500000000E+03 0.  0.
</event>
<event>
 5    0  0.5660959E-005  0.3868396E+03  0.7546771E-02  0.1048434E+00
         21   -1    0    0  502  501  0.00000000000E+00  0.00000000000E+00  0.32379144745E+03  0.32379144745E+03  0.00000000000E+00 0.  1.
         21   -1    0    0  501  502 -0.00000000000E+00 -0.00000000000E+00 -0.46216444812E+03  0.46216444812E+03  0.00000000000E+00 0.  1.
         25    1    1    2    0    0  0.30590103563E+02 -0.54230656717E+02 -0.43147169765E+02  0.14616222776E+03  0.12500000000E+03 0.  0.
         25    1    1    2    0    0 -0.16247223357E+03 -0.16476056092E+03  0.11394969344E+03  0.28662310052E+03  0.12500000000E+03 0.  0.
         25    1    1    2    0    0  0.13188213001E+03  0.21899121764E+03 -0.20917552434E+03  0.35317056729E+03  0.12500000000E+03 0.  0.
</event>
<event>
 5    0  0.5660959E-005  0.3364756E+03  0.7546771E-02  0.1068307E+00
         21   -1    0    0  502  501  0.00000000000E+00  0.00000000000E+00  0.17590076218E+03  0.17590076218E+03  0.00000000000E+00 0.  1.
         21   -1    0    0  501  502 -0.00000000000E+00 -0.00000000000E+00 -0.64363477742E+03  0.64363477742E+03  0.00000000000E+00 0.  1.
         25    1    1    2    0    0  0.14801033267E+03  0.57926487503E+02  0.47967112033E+02  0.20781814254E+03  0.12500000000E+03 0.  0.
         25    1    1    2    0    0 -0.77014100672E+02 -0.73206666870E+02 -0.37799611411E+03  0.41206364807E+03  0.12500000000E+03 0.  0.
         25    1    1    2    0    0 -0.70996231998E+02  0.15280179367E+02 -0.13770501316E+03  0.19965374899E+03  0.12500000000E+03 0.  0.
</event>
<event>
 5    0  0.5660959E-005  0.3038198E+03  0.7546771E-02  0.1083347E+00
         21   -1    0    0  502  501  0.00000000000E+00  0.00000000000E+00  0.92818856200E+02  0.92818856200E+02  0.00000000000E+00 0.  1.
         21   -1    0    0  501  502 -0.00000000000E+00 -0.00000000000E+00 -0.99447963563E+03  0.99447963563E+03  0.00000000000E+00 0.  1.
         25    1    1    2    0    0  0.32697277133E+02  0.20715037092E+02 -0.32958472768E+03  0.35461150209E+03  0.12500000000E+03 0.  0.
         25    1    1    2    0    0  0.16058271158E+03 -0.29488360673E+02 -0.15976916224E+03  0.26039884001E+03  0.12500000000E+03 0.  0.
         25    1    1    2    0    0 -0.19327998871E+03  0.87733235812E+01 -0.41230688951E+03  0.47228814974E+03  0.12500000000E+03 0.  0.
</event>
<event>
 5    0  0.6063289E-005  0.2661957E+03  0.7546771E-02  0.1103477E+00
         21   -1    0    0  502  501  0.00000000000E+00  0.00000000000E+00  0.79504297624E+03  0.79504297624E+03  0.00000000000E+00 0.  1.
         21   -1    0    0  501  502 -0.00000000000E+00 -0.00000000000E+00 -0.89127475947E+02  0.89127475947E+02  0.00000000000E+00 0.  1.
         25    1    1    2    0    0  0.18959655207E+01  0.91754775284E+02  0.30942081066E+03  0.34610514521E+03  0.12500000000E+03 0.  0.
         25    1    1    2    0    0 -0.71137546312E+02 -0.15126437790E+03  0.23689139126E+03  0.31572772094E+03  0.12500000000E+03 0.  0.
         25    1    1    2    0    0  0.69241580791E+02  0.59509602613E+02  0.15960329837E+03  0.22233758604E+03  0.12500000000E+03 0.  0.
</event>
<event>
 5    0  0.5660959E-005  0.2785144E+03  0.7546771E-02  0.1096503E+00
         21   -1    0    0  502  501  0.00000000000E+00  0.00000000000E+00  0.24259234180E+03  0.24259234180E+03  0.00000000000E+00 0.  1.
         21   -1    0    0  501  502 -0.00000000000E+00 -0.00000000000E+00 -0.31975554063E+03  0.31975554063E+03  0.00000000000E+00 0.  1.
         25    1    1    2    0    0  0.52157668008E+02  0.67393671003E+02 -0.94923828112E+02  0.17859972667E+03  0.12500000000E+03 0.  0.
         25    1    1    2    0    0 -0.13005123105E+03 -0.12891755366E+03  0.29645257219E+02  0.22368929258E+03  0.12500000000E+03 0.  0.
         25    1    1    2    0    0  0.77893563042E+02  0.61523882662E+02 -0.11884627930E+02  0.16005886318E+03  0.12500000000E+03 0.  0.
</event>
<event>
 5    0  0.7170669E-005  0.4142951E+03  0.7546771E-02  0.1038939E+00
         21   -1    0    0  502  501  0.00000000000E+00  0.00000000000E+00  0.56122167010E+03  0.56122167010E+03  0.00000000000E+00 0.  1.
         21   -1    0    0  501  502 -0.00000000000E+00 -0.00000000000E+00 -0.30583354745E+03  0.30583354745E+03  0.00000000000E+00 0.  1.
         25    1    1    2    0    0  0.10488680197E+03  0.73272346154E+02 -0.11278404227E+03  0.21145996815E+03  0.12500000000E+03 0.  0.
         25    1    1    2    0    0  0.14920434078E+03  0.28962610614E+02  0.27934559981E+03  0.34170123245E+03  0.12500000000E+03 0.  0.
         25    1    1    2    0    0 -0.25409114275E+03 -0.10223495677E+03  0.88826565111E+02  0.31389401695E+03  0.12500000000E+03 0.  0.
</event>
<event>
 5    0  0.5660959E-005  0.3013046E+03  0.7546771E-02  0.1084590E+00
         21   -1    0    0  502  501  0.00000000000E+00  0.00000000000E+00  0.36688647913E+03  0.36688647913E+03  0.00000000000E+00 0. -1.
         21   -1    0    0  501  502 -0.00000000000E+00 -0.00000000000E+00 -0.24744559847E+03  0.24744559847E+03  0.00000000000E+00 0. -1.
         25    1    1    2    0    0  0.97773526318E+02 -0.63187459623E+02 -0.70144980310E+02  0.18465545149E+03  0.12500000000E+03 0.  0.
         25    1    1    2    0    0 -0.40228183978E+02  0.15290522477E+03  0.17106844057E+03  0.26436286787E+03  0.12500000000E+03 0.  0.
         25    1    1    2    0    0 -0.57545342340E+02 -0.89717765148E+02  0.18517420399E+02  0.16531375825E+03  0.12500000000E+03 0.  0.
</event>
<event>
 5    0  0.7101956E-005  0.2756014E+03  0.7546771E-02  0.1098116E+00
         21   -1    0    0  502  501  0.00000000000E+00  0.00000000000E+00  0.59514055576E+03  0.59514055576E+03  0.00000000000E+00 0. -1.
         21   -1    0    0  501  502 -0.00000000000E+00 -0.00000000000E+00 -0.12762725695E+03  0.12762725695E+03  0.00000000000E+00 0. -1.
         25    1    1    2    0    0  0.59029997682E+02  0.51596320725E+02 -0.31526769395E+02  0.15088292855E+03  0.12500000000E+03 0.  0.
         25    1    1    2    0    0 -0.71175121156E+02 -0.26574736655E+01  0.23812284948E+03  0.27820936628E+03  0.12500000000E+03 0.  0.
         25    1    1    2    0    0  0.12145123473E+02 -0.48938847059E+02  0.26091721873E+03  0.29367551789E+03  0.12500000000E+03 0.  0.
</event>
<event>
 5    0  0.6652419E-005  0.3941257E+03  0.7546771E-02  0.1045833E+00
         21   -1    0    0  502  501  0.00000000000E+00  0.00000000000E+00  0.33515283682E+03  0.33515283682E+03  0.00000000000E+00 0.  1.
         21   -1    0    0  501  502 -0.00000000000E+00 -0.00000000000E+00 -0.46347534380E+03  0.46347534380E+03  0.00000000000E+00 0.  1.
         25    1    1    2    0    0  0.16706497768E+03  0.25859567721E+03 -0.67841293438E+02  0.33913105451E+03  0.12500000000E+03 0.  0.
         25    1    1    2    0    0 -0.50984898223E+02 -0.17052011474E+03  0.68721182239E+02  0.22808807568E+03  0.12500000000E+03 0.  0.
         25    1    1    2    0    0 -0.11608007946E+03 -0.88075562467E+02 -0.12920239578E+03  0.23140905044E+03  0.12500000000E+03 0.  0.
</event>
<event>
 5    0  0.5660959E-005  0.3001058E+03  0.7546771E-02  0.1085188E+00
         21   -1    0    0  502  501  0.00000000000E+00  0.00000000000E+00  0.10475128363E+03  0.10475128363E+03  0.00000000000E+00 0.  1.
         21   -1    0    0  501  502 -0.00000000000E+00 -0.00000000000E+00 -0.85978425406E+03  0.85978425406E+03  0.00000000000E+00 0.  1.
         25    1    1    2    0    0 -0.11918027708E+03  0.30615478458E+02 -0.42313143062E+03  0.45804634432E+03  0.12500000000E+03 0.  0.
         25    1    1    2    0    0  0.29033129867E+02 -0.10282236425E+03 -0.28651355735E+03  0.33034887584E+03  0.12500000000E+03 0.  0.
         25    1    1    2    0    0  0.90147147211E+02  0.72206885792E+02 -0.45387982451E+02  0.17614031752E+03  0.12500000000E+03 0.  0.
</event>
<event>
 5    0  0.5950387E-005  0.3136192E+03  0.7546771E-02  0.1078624E+00
         21   -1    0    0  502  501  0.00000000000E+00  0.00000000000E+00  0.14045508431E+03  0.14045508431E+03  0.00000000000E+00 0. -1.
         21   -1    0    0  501  502 -0.00000000000E+00 -0.00000000000E+00 -0.70027370889E+03  0.70027370889E+03  0.00000000000E+00 0. -1.
         25    1    1    2    0    0 -0.43465535998E+02 -0.38765400308E+02  0.15885591385E+02  0.13881412426E+03  0.12500000000E+03 0.  0.
         25    1    1    2    0    0  0.27500837504E+02 -0.13032864408E+03 -0.19846502819E+03  0.26973175369E+03  0.12500000000E+03 0.  0.
         25    1    1    2    0    0  0.15964698494E+02  0.16909404439E+03 -0.37723918777E+03  0.43218291525E+03  0.12500000000E+03 0.  0.
</event>
<event>
 5    0  0.5660959E-005  0.2337037E+03  0.7546771E-02  0.1124060E+00
         21   -1    0    0  502  501  0.00000000000E+00  0.00000000000E+00  0.40851807250E+03  0.40851807250E+03  0.00000000000E+00 0. -1.
         21   -1    0    0  501  502 -0.00000000000E+00 -0.00000000000E+00 -0.13369640452E+03  0.13369640452E+03  0.00000000000E+00 0. -1.
         25    1    1    2    0    0  0.20280317210E+02  0.30996820093E+02  0.62380429180E+02  0.14452823969E+03  0.12500000000E+03 0.  0.
         25    1    1    2    0    0  0.63609489224E+02 -0.89401321305E+02  0.63569896256E+02  0.17805868437E+03  0.12500000000E+03 0.  0.
         25    1    1    2    0    0 -0.83889806434E+02  0.58404501213E+02  0.14887134254E+03  0.21962755295E+03  0.12500000000E+03 0.  0.
</event>
<event>
 5    0  0.5660959E-005  0.2937915E+03  0.7546771E-02  0.1088386E+00
         21   -1    0    0  502  501  0.00000000000E+00  0.00000000000E+00  0.91455800372E+02  0.91455800372E+02  0.00000000000E+00 0.  1.
         21   -1    0    0  501  502 -0.00000000000E+00 -0.00000000000E+00 -0.94377240519E+03  0.94377240519E+03  0.00000000000E+00 0.  1.
         25    1    1    2    0    0 -0.17310376105E+02  0.57557294426E+02 -0.61320438367E+02  0.15164988435E+03  0.12500000000E+03 0.  0.
         25    1    1    2    0    0  0.66414821612E+02  0.15654984254E+02 -0.95516760257E+02  0.17147728290E+03  0.12500000000E+03 0.  0.
         25    1    1    2    0    0 -0.49104445507E+02 -0.73212278679E+02 -0.69547940619E+03  0.71210103831E+03  0.12500000000E+03 0.  0.
</event>
<event>
 5    0  0.5660959E-005  0.3414636E+03  0.7546771E-02  0.1066174E+00
         21   -1    0    0  502  501  0.00000000000E+00  0.00000000000E+00  0.12507080381E+04  0.12507080381E+04  0.00000000000E+00 0. -1.
         21   -1    0    0  501  502 -0.00000000000E+00 -0.00000000000E+00 -0.93225122523E+02  0.93225122523E+02  0.00000000000E+00 0. -1.
         25    1    1    2    0    0  0.59022585175E+02  0.13256502854E+03  0.25331702518E+03  0.31757151572E+03  0.12500000000E+03 0.  0.
         25    1    1    2    0    0 -0.19739450825E+03 -0.15076771617E+03  0.38884944770E+03  0.47804224615E+03  0.12500000000E+03 0.  0.
         25    1    1    2    0    0  0.13837192307E+03  0.18202687629E+02  0.51531644268E+03  0.54831939873E+03  0.12500000000E+03 0.  0.
</event>
<event>
 5    0  0.6238173E-005  0.3646887E+03  0.7546771E-02  0.1056743E+00
         21   -1    0    0  502  501  0.00000000000E+00  0.00000000000E+00  0.24647471421E+03  0.24647471421E+03  0.00000000000E+00 0.  1.
         21   -1    0    0  501  502 -0.00000000000E+00 -0.00000000000E+00 -0.53960051284E+03  0.53960051284E+03  0.00000000000E+00 0.  1.
         25    1    1    2    0    0  0.15979534432E+03 -0.21279421345E+03 -0.20877362233E+03  0.36059305973E+03  0.12500000000E+03 0.  0.
         25    1    1    2    0    0 -0.15409103851E+03  0.55471411237E+02  0.36231088594E+01  0.20605643046E+03  0.12500000000E+03 0.  0.
         25    1    1    2    0    0 -0.57043058042E+01  0.15732280221E+03 -0.87975285152E+02  0.21942573687E+03  0.12500000000E+03 0.  0.
</event>
<event>
 5    0  0.5660959E-005  0.3308421E+03  0.7546771E-02  0.1070765E+00
         21   -1    0    0  502  501  0.00000000000E+00  0.00000000000E+00  0.13280507070E+03  0.13280507070E+03  0.00000000000E+00 0. -1.
         21   -1    0    0  501  502 -0.00000000000E+00 -0.00000000000E+00 -0.82418919116E+03  0.82418919116E+03  0.00000000000E+00 0. -1.
         25    1    1    2    0    0 -0.66796307415E+02  0.24199883744E+03 -0.22026916426E+03  0.35660719108E+03  0.12500000000E+03 0.  0.
         25    1    1    2    0    0 -0.10351764797E+02 -0.16190096985E+03 -0.25372922761E+03  0.32607147072E+03  0.12500000000E+03 0.  0.
         25    1    1    2    0    0  0.77148072212E+02 -0.80097867587E+02 -0.21738572860E+03  0.27431560006E+03  0.12500000000E+03 0.  0.
</event>
<event>
 5    0  0.5660959E-005  0.4341689E+03  0.7546771E-02  0.1032551E+00
         21   -1    0    0  502  501  0.00000000000E+00  0.00000000000E+00  0.28444313222E+03  0.28444313222E+03  0.00000000000E+00 0.  1.
         21   -1    0    0  501  502 -0.00000000000E+00 -0.00000000000E+00 -0.66270761917E+03  0.66270761917E+03  0.00000000000E+00 0.  1.
         25    1    1    2    0    0  0.84701624606E+02  0.61374970601E+02 -0.22256583393E+03  0.27586555178E+03  0.12500000000E+03 0.  0.
         25    1    1    2    0    0 -0.45027230574E+02 -0.32665082688E+03 -0.12339923137E+03  0.37360485074E+03  0.12500000000E+03 0.  0.
         25    1    1    2    0    0 -0.39674394032E+02  0.26527585628E+03 -0.32299421658E+02  0.29768034887E+03  0.12500000000E+03 0.  0.
</event>
<event>
 5    0  0.5660959E-005  0.6026865E+03  0.7546771E-02  0.9899848E-01
         21   -1    0    0  502  501  0.00000000000E+00  0.00000000000E+00  0.25170295945E+04  0.25170295945E+04  0.00000000000E+00 0.  1.
         21   -1    0    0  501  502 -0.00000000000E+00 -0.00000000000E+00 -0.14430937298E+03  0.14430937298E+03  0.00000000000E+00 0.  1.
         25    1    1    2    0    0 -0.98458143048E+02  0.26400020474E+03  0.17054240394E+04  0.17330569143E+04  0.12500000000E+03 0.  0.
         25    1    1    2    0    0  0.10309049335E+03 -0.56358382573E+02  0.66405170622E+03  0.68585245180E+03  0.12500000000E+03 0.  0.
         25    1    1    2    0    0 -0.46323502994E+01 -0.20764182217E+03  0.32444758544E+01  0.24242960134E+03  0.12500000000E+03 0.  0.
</event>
<event>
 5    0  0.5660959E-005  0.2666626E+03  0.7546771E-02  0.1103205E+00
         21   -1    0    0  502  501  0.00000000000E+00  0.00000000000E+00  0.40686056728E+03  0.40686056728E+03  0.00000000000E+00 0.  1.
         21   -1    0    0  501  502 -0.00000000000E+00 -0.00000000000E+00 -0.17477471569E+03  0.17477471569E+03  0.00000000000E+00 0.  1.
         25    1    1    2    0    0 -0.27681384829E+02  0.10535075605E+03 -0.28171673887E+02  0.16817753737E+03  0.12500000000E+03 0.  0.
         25    1    1    2    0    0  0.23784511504E+02 -0.13681385360E+03  0.11580407861E+03  0.21981655567E+03  0.12500000000E+03 0.  0.
         25    1    1    2    0    0  0.38968733253E+01  0.31463097549E+02  0.14445344687E+03  0.19364118994E+03  0.12500000000E+03 0.  0.
</event>
<event>
 5    0  0.5660959E-005  0.4145768E+03  0.7546771E-02  0.1038846E+00
         21   -1    0    0  502  501  0.00000000000E+00  0.00000000000E+00  0.20117725964E+03  0.20117725964E+03  0.00000000000E+00 0.  1.
         21   -1    0    0  501  502 -0.00000000000E+00 -0.00000000000E+00 -0.85434066802E+03  0.85434066802E+03  0.00000000000E+00 0.  1.
         25    1    1    2    0    0  0.24691106101E+02 -0.22578647537E+03 -0.46942604071E+03  0.53626018953E+03  0.12500000000E+03 0.  0.
         25    1    1    2    0    0  0.79072477122E+02  0.30979479833E+02 -0.21593872478E+03  0.26356539543E+03  0.12500000000E+03 0.  0.
         25    1    1    2    0    0 -0.10376358322E+03  0.19480699554E+03  0.32201357114E+02  0.25569234270E+03  0.12500000000E+03 0.  0.
</event>
<event>
 5    0  0.5660959E-005  0.2863431E+03  0.7546771E-02  0.1092274E+00
         21   -1    0    0  502  501  0.00000000000E+00  0.00000000000E+00  0.88065517482E+03  0.88065517482E+03  0.00000000000E+00 0.  1.
         21   -1    0    0  501  502 -0.00000000000E+00 -0.00000000000E+00 -0.93103830991E+02  0.93103830991E+02  0.00000000000E+00 0.  1.
         25    1    1    2    0    0  0.31227036535E+01  0.14076568411E+03  0.10222496716E+03  0.21424208973E+03  0.12500000000E+03 0.  0.
         25    1    1    2    0    0 -0.29245938725E+02  0.15792719633E+01  0.19764929610E+03  0.23568636635E+03  0.12500000000E+03 0.  0.
         25    1    1    2    0    0  0.26123235072E+02 -0.14234495607E+03  0.48767708056E+03  0.52383054973E+03  0.12500000000E+03 0.  0.
</event>
<event>
 5    0  0.5660959E-005  0.2563493E+03  0.7546771E-02  0.1109357E+00
         21   -1    0    0  502  501  0.00000000000E+00  0.00000000000E+00  0.47353445127E+02  0.47353445127E+02  0.00000000000E+00 0.  1.
         21   -1    0    0  501  502 -0.00000000000E+00 -0.00000000000E+00 -0.13877543747E+04  0.13877543747E+04  0.00000000000E+00 0.  1.
         25    1    1    2    0    0 -0.33097836052E+02  0.63879620533E+01 -0.36577269523E+03  0.38800893982E+03  0.12500000000E+03 0.  0.
         25    1    1    2    0    0 -0.46545690914E+02  0.12606369024E+03 -0.44206813536E+03  0.47865205697E+03  0.12500000000E+03 0.  0.
         25    1    1    2    0    0  0.79643526966E+02 -0.13245165229E+03 -0.53256009894E+03  0.56844682299E+03  0.12500000000E+03 0.  0.
</event>
<event>
 5    0  0.5660959E-005  0.5982290E+03  0.7546771E-02  0.9909087E-01
         21   -1    0    0  502  501  0.00000000000E+00  0.00000000000E+00  0.28244363971E+03  0.28244363971E+03  0.00000000000E+00 0.  1.
         21   -1    0    0  501  502 -0.00000000000E+00 -0.00000000000E+00 -0.12670774965E+04  0.12670774965E+04  0.00000000000E+00 0.  1.
         25    1    1    2    0    0  0.20801218859E+03 -0.31783968514E+03 -0.56638009172E+03  0.69332715535E+03  0.12500000000E+03 0.  0.
         25    1    1    2    0    0 -0.87110749254E+02  0.43616485395E+03 -0.96805150230E+02  0.47204268829E+03  0.12500000000E+03 0.  0.
         25    1    1    2    0    0 -0.12090143934E+03 -0.11832516881E+03 -0.32144861487E+03  0.38415129260E+03  0.12500000000E+03 0.  0.
</event>
<event>
 5    0  0.5660959E-005  0.3005172E+03  0.7546771E-02  0.1084982E+00
         21   -1    0    0  502  501  0.00000000000E+00  0.00000000000E+00  0.40901300435E+03  0.40901300435E+03  0.00000000000E+00 0. -1.
         21   -1    0    0  501  502 -0.00000000000E+00 -0.00000000000E+00 -0.22080121819E+03  0.22080121819E+03  0.00000000000E+00 0. -1.
         25    1    1    2    0    0 -0.55524573407E+02 -0.23961976913E+02  0.84800173725E+02  0.16270594351E+03  0.12500000000E+03 0.  0.
         25    1    1    2    0    0 -0.11165320217E+03 -0.11631516594E+03  0.47725888658E+02  0.20951948795E+03  0.12500000000E+03 0.  0.
         25    1    1    2    0    0  0.16717777558E+03  0.14027714286E+03  0.55685723781E+02  0.25758879108E+03  0.12500000000E+03 0.  0.
</event>
<event>
 5    0  0.5660959E-005  0.2888641E+03  0.7546771E-02  0.1090944E+00
         21   -1    0    0  502  501  0.00000000000E+00  0.00000000000E+00  0.11879942882E+03  0.11879942882E+03  0.00000000000E+00 0. -1.
         21   -1    0    0  501  502 -0.00000000000E+00 -0.00000000000E+00 -0.70238124147E+03  0.70238124147E+03  0.00000000000E+00 0. -1.
         25    1    1    2    0    0  0.64161385044E+02  0.27215736415E+01  0.15740680605E+02  0.14141025182E+03  0.12500000000E+03 0.  0.
         25    1    1    2    0    0  0.17821634296E+02 -0.18387352348E+02 -0.45062212519E+03  0.46833855819E+03  0.12500000000E+03 0.  0.
         25    1    1    2    0    0 -0.81983019340E+02  0.15665778706E+02 -0.14870036806E+03  0.21143186029E+03  0.12500000000E+03 0.  0.
</event>
<event>
 5    0  0.7096641E-005  0.3301167E+03  0.7546771E-02  0.1071085E+00
         21   -1    0    0  502  501  0.00000000000E+00  0.00000000000E+00  0.31323708893E+03  0.31323708893E+03  0.00000000000E+00 0.  1.
         21   -1    0    0  501  502 -0.00000000000E+00 -0.00000000000E+00 -0.34790588958E+03  0.34790588958E+03  0.00000000000E+00 0.  1.
         25    1    1    2    0    0  0.11640368281E+03  0.10778705367E+03 -0.51914936934E+02  0.20853783107E+03  0.12500000000E+03 0.  0.
         25    1    1    2    0    0 -0.29342211211E+02 -0.89525415137E+02 -0.15613801476E+03  0.22108786707E+03  0.12500000000E+03 0.  0.
         25    1    1    2    0    0 -0.87061471595E+02 -0.18261638538E+02  0.17338415104E+03  0.23151728037E+03  0.12500000000E+03 0.  0.
</event>
<event>
 5    0  0.5660959E-005  0.3651393E+03  0.7546771E-02  0.1056567E+00
         21   -1    0    0  502  501  0.00000000000E+00  0.00000000000E+00  0.13083426771E+03  0.13083426771E+03  0.00000000000E+00 0.  1.
         21   -1    0    0  501  502 -0.00000000000E+00 -0.00000000000E+00 -0.10190504595E+04  0.10190504595E+04  0.00000000000E+00 0.  1.
         25    1    1    2    0    0  0.14003718582E+03  0.45285666597E+02 -0.92201933292E+02  0.21397990914E+03  0.12500000000E+03 0.  0.
         25    1    1    2    0    0 -0.13860718554E+03  0.32310936058E+02 -0.81179684544E+02  0.20608515146E+03  0.12500000000E+03 0.  0.
         25    1    1    2    0    0 -0.14300002819E+01 -0.77596602655E+02 -0.71483457393E+03  0.72981966658E+03  0.12500000000E+03 0.  0.
</event>
<event>
 5    0  0.5660959E-005  0.3972422E+03  0.7546771E-02  0.1044739E+00
         21   -1    0    0  502  501  0.00000000000E+00  0.00000000000E+00  0.55390246230E+03  0.55390246230E+03  0.00000000000E+00 0.  1.
         21   -1    0    0  501  502 -0.00000000000E+00 -0.00000000000E+00 -0.28489015880E+03  0.28489015880E+03  0.00000000000E+00 0.  1.
         25    1    1    2    0    0  0.10167751786E+03  0.10765148938E+03  0.21691087811E+03  0.29086507155E+03  0.12500000000E+03 0.  0.
         25    1    1    2    0    0 -0.76761580802E+02 -0.35315407161E+02 -0.20347615472E+03  0.25331218646E+03  0.12500000000E+03 0.  0.
         25    1    1    2    0    0 -0.24915937056E+02 -0.72336082221E+02  0.25557758011E+03  0.29461536309E+03  0.12500000000E+03 0.  0.
</event>
<event>
 5    0  0.6450136E-005  0.3275146E+03  0.7546771E-02  0.1072242E+00
         21   -1    0    0  502  501  0.00000000000E+00  0.00000000000E+00  0.72093863082E+03  0.72093863082E+03  0.00000000000E+00 0.  1.
         21   -1    0    0  501  502 -0.00000000000E+00 -0.00000000000E+00 -0.14878632644E+03  0.14878632644E+03  0.00000000000E+00 0.  1.
         25    1    1    2    0    0 -0.28780634674E+02  0.79451352988E+02  0.42052209807E+03  0.44677139276E+03  0.12500000000E+03 0.  0.
         25    1    1    2    0    0  0.12535295686E+03  0.50533932334E+02  0.34741838279E+02  0.18734737105E+03  0.12500000000E+03 0.  0.
         25    1    1    2    0    0 -0.96572322189E+02 -0.12998528532E+03  0.11688836803E+03  0.23560619345E+03  0.12500000000E+03 0.  0.
</event>
<event>
 5    0  0.5660959E-005  0.2388673E+03  0.7546771E-02  0.1120550E+00
         21   -1    0    0  502  501  0.00000000000E+00  0.00000000000E+00  0.94703982867E+03  0.94703982867E+03  0.00000000000E+00 0. -1.
         21   -1    0    0  501  502 -0.00000000000E+00 -0.00000000000E+00 -0.60248332095E+02  0.60248332095E+02  0.00000000000E+00 0. -1.
         25    1    1    2    0    0  0.53906771907E+02 -0.91136244298E+02  0.28159534123E+03  0.32578012721E+03  0.12500000000E+03 0.  0.
         25    1    1    2    0    0 -0.28793445089E+02  0.12673571204E+03  0.32699607186E+03  0.37341991672E+03  0.12500000000E+03 0.  0.
         25    1    1    2    0    0 -0.25113326818E+02 -0.35599467746E+02  0.27820008348E+03  0.30808811684E+03  0.12500000000E+03 0.  0.
</event>
<event>
 5    0  0.5660959E-005  0.2601145E+03  0.7546771E-02  0.1107074E+00
         21   -1    0    0  502  501  0.00000000000E+00  0.00000000000E+00  0.33624690882E+02  0.33624690882E+02  0.00000000000E+00 0.  1.
         21   -1    0    0  501  502 -0.00000000000E+00 -0.00000000000E+00 -0.20121979608E+04  0.20121979608E+04  0.00000000000E+00 0.  1.
         25    1    1    2    0    0  0.97825902602E+01  0.10312763666E+03 -0.48471717416E+03  0.51118171665E+03  0.12500000000E+03 0.  0.
         25    1    1    2    0    0 -0.45794595991E+02  0.12017623674E+02 -0.10420212669E+04  0.10505593220E+04  0.12500000000E+03 0.  0.
         25    1    1    2    0    0  0.36012005731E+02 -0.11514526033E+03 -0.45183482884E+03  0.48408161304E+03  0.12500000000E+03 0.  0.
</event>
<event>
 5    0  0.5660959E-005  0.2779141E+03  0.7546771E-02  0.1096834E+00
         21   -1    0    0  502  501  0.00000000000E+00  0.00000000000E+00  0.69189137504E+02  0.69189137504E+02  0.00000000000E+00 0. -1.
         21   -1    0    0  501  502 -0.00000000000E+00 -0.00000000000E+00 -0.11163061879E+04  0.11163061879E+04  0.00000000000E+00 0. -1.
         25    1    1    2    0    0  0.81703020810E+02  0.12089336197E+02 -0.29901067003E+03  0.33444568535E+03  0.12500000000E+03 0.  0.
         25    1    1    2    0    0 -0.26707787387E+02 -0.15064124233E+03 -0.48612232283E+03  0.52473422087E+03  0.12500000000E+03 0.  0.
         25    1    1    2    0    0 -0.54995233422E+02  0.13855190613E+03 -0.26198405752E+03  0.32631541917E+03  0.12500000000E+03 0.  0.
</event>
<event>
 5    0  0.5745188E-005  0.3849776E+03  0.7546771E-02  0.1049109E+00
         21   -1    0    0  502  501  0.00000000000E+00  0.00000000000E+00  0.26901938184E+03  0.26901938184E+03  0.00000000000E+00 0.  1.
         21   -1    0    0  501  502 -0.00000000000E+00 -0.00000000000E+00 -0.55091853827E+03  0.55091853827E+03  0.00000000000E+00 0.  1.
         25    1    1    2    0    0  0.11860571174E+03 -0.10372166701E+03  0.31304934927E+02  0.20354483048E+03  0.12500000000E+03 0.  0.
         25    1    1    2    0    0 -0.11572549925E+03 -0.16278458363E+03 -0.15704565313E+03  0.28315993539E+03  0.12500000000E+03 0.  0.
         25    1    1    2    0    0 -0.28802124838E+01  0.26650625064E+03 -0.15615843823E+03  0.33323315424E+03  0.12500000000E+03 0.  0.
</event>
<event>
 5    0  0.5660959E-005  0.4480845E+03  0.7546771E-02  0.1028295E+00
         21   -1    0    0  502  501  0.00000000000E+00  0.00000000000E+00  0.13761529632E+03  0.13761529632E+03  0.00000000000E+00 0.  1.
         21   -1    0    0  501  502 -0.00000000000E+00 -0.00000000000E+00 -0.14589928130E+04  0.14589928130E+04  0.00000000000E+00 0.  1.
         25    1    1    2    0    0  0.33737075997E+03  0.13082959471E+03 -0.33065750750E+03  0.50586045487E+03  0.12500000000E+03 0.  0.
         25    1    1    2    0    0 -0.16136533035E+03 -0.50487263587E+00 -0.43944767616E+03  0.48453925003E+03  0.12500000000E+03 0.  0.
         25    1    1    2    0    0 -0.17600542962E+03 -0.13032472208E+03 -0.55127233303E+03  0.60620840443E+03  0.12500000000E+03 0.  0.
</event>
<event>
 5    0  0.5660959E-005  0.3053623E+03  0.7546771E-02  0.1082590E+00
         21   -1    0    0  502  501  0.00000000000E+00  0.00000000000E+00  0.11458507254E+04  0.11458507254E+04  0.00000000000E+00 0. -1.
         21   -1    0    0  501  502 -0.00000000000E+00 -0.00000000000E+00 -0.81377231905E+02  0.81377231905E+02  0.00000000000E+00 0. -1.
         25    1    1    2    0    0  0.12829438518E+03  0.52654195644E+02  0.22903547445E+03  0.29548969888E+03  0.12500000000E+03 0.  0.
         25    1    1    2    0    0  0.31221816272E+02 -0.29244898989E+02  0.62436654480E+03  0.63819170175E+03  0.12500000000E+03 0.  0.
         25    1    1    2    0    0 -0.15951620145E+03 -0.23409296656E+02  0.21107147428E+03  0.29354655670E+03  0.12500000000E+03 0.  0.
</event>
<event>
 5    0  0.5660959E-005  0.2424736E+03  0.7546771E-02  0.1118156E+00
         21   -1    0    0  502  501  0.00000000000E+00  0.00000000000E+00  0.96918772778E+03  0.96918772778E+03  0.00000000000E+00 0.  1.
         21   -1    0    0  501  502 -0.00000000000E+00 -0.00000000000E+00 -0.60662590803E+02  0.60662590803E+02  0.00000000000E+00 0. -1.
         25    1    1    2    0    0 -0.63199011107E+02  0.40290076340E+01  0.27918539104E+03  0.31237770483E+03  0.12500000000E+03 0.  0.
         25    1    1    2    0    0 -0.66578491644E+02 -0.42328367080E+02  0.37784850167E+03  0.40573251832E+03  0.12500000000E+03 0.  0.
         25    1    1    2    0    0  0.12977750275E+03  0.38299359446E+02  0.25149124427E+03  0.31174009543E+03  0.12500000000E+03 0.  0.
</event>
<event>
 5    0  0.5660959E-005  0.3219305E+03  0.7546771E-02  0.1074764E+00
         21   -1    0    0  502  501  0.00000000000E+00  0.00000000000E+00  0.40506692428E+03  0.40506692428E+03  0.00000000000E+00 0. -1.
         21   -1    0    0  501  502 -0.00000000000E+00 -0.00000000000E+00 -0.25585713312E+03  0.25585713312E+03  0.00000000000E+00 0. -1.
         25    1    1    2    0    0 -0.73022681631E+02  0.25416979151E+02  0.49343026347E+02  0.15504215269E+03  0.12500000000E+03 0.  0.
         25    1    1    2    0    0  0.90714899586E+02 -0.19682075572E+03  0.14372861057E+03  0.28853165578E+03  0.12500000000E+03 0.  0.
         25    1    1    2    0    0 -0.17692217955E+02  0.17140377657E+03 -0.43861845753E+02  0.21735024893E+03  0.12500000000E+03 0.  0.
</event>
<event>
 5    0  0.5660959E-005  0.2822067E+03  0.7546771E-02  0.1094490E+00
         21   -1    0    0  502  501  0.00000000000E+00  0.00000000000E+00  0.35376851376E+02  0.35376851376E+02  0.00000000000E+00 0. -1.
         21   -1    0    0  501  502 -0.00000000000E+00 -0.00000000000E+00 -0.22512065417E+04  0.22512065417E+04  0.00000000000E+00 0. -1.
         25    1    1    2    0    0 -0.14922614957E+02  0.54793581894E+02 -0.79484166253E+03  0.80661222998E+03  0.12500000000E+03 0.  0.
         25    1    1    2    0    0  0.11816816256E+03  0.28226224734E+02 -0.10742691893E+04  0.10883196798E+04  0.12500000000E+03 0.  0.
         25    1    1    2    0    0 -0.10324554760E+03 -0.83019806628E+02 -0.34671883854E+03  0.39165148333E+03  0.12500000000E+03 0.  0.
</event>
<event>
 5    0  0.5660959E-005  0.2085620E+03  0.7546771E-02  0.1142710E+00
         21   -1    0    0  502  501  0.00000000000E+00  0.00000000000E+00  0.73702167685E+02  0.73702167685E+02  0.00000000000E+00 0.  1.
         21   -1    0    0  501  502 -0.00000000000E+00 -0.00000000000E+00 -0.59018767033E+03  0.59018767033E+03  0.00000000000E+00 0.  1.
         25    1    1    2    0    0 -0.11242524276E+02  0.37751661234E+02 -0.15505280294E+03  0.20302205294E+03  0.12500000000E+03 0.  0.
         25    1    1    2    0    0  0.26197106258E+02 -0.19241885693E+02 -0.79792605492E+02  0.15181698993E+03  0.12500000000E+03 0.  0.
         25    1    1    2    0    0 -0.14954581982E+02 -0.18509775541E+02 -0.28164009421E+03  0.30905079514E+03  0.12500000000E+03 0.  0.
</event>
<event>
 5    0  0.5660959E-005  0.3328490E+03  0.7546771E-02  0.1069883E+00
         21   -1    0    0  502  501  0.00000000000E+00  0.00000000000E+00  0.36989800771E+03  0.36989800771E+03  0.00000000000E+00 0.  1.
         21   -1    0    0  501  502 -0.00000000000E+00 -0.00000000000E+00 -0.29951080495E+03  0.29951080495E+03  0.00000000000E+00 0.  1.
         25    1    1    2    0    0  0.10357255453E+03 -0.78460318558E+01  0.19942067483E+03  0.25725947955E+03  0.12500000000E+03 0.  0.
         25    1    1    2    0    0 -0.16952033807E+02  0.55813917095E+02 -0.19560133683E+03  0.23934796377E+03  0.12500000000E+03 0.  0.
         25    1    1    2    0    0 -0.86620520725E+02 -0.47967885239E+02  0.66567864753E+02  0.17280136933E+03  0.12500000000E+03 0.  0.
</event>
<event>
 5    0  0.5660959E-005  0.3404250E+03  0.7546771E-02  0.1066615E+00
         21   -1    0    0  502  501  0.00000000000E+00  0.00000000000E+00  0.12658605793E+03  0.12658605793E+03  0.00000000000E+00 0. -1.
         21   -1    0    0  501  502 -0.00000000000E+00 -0.00000000000E+00 -0.91549733197E+03  0.91549733197E+03  0.00000000000E+00 0. -1.
         25    1    1    2    0    0  0.31564002716E+01  0.10341367233E+03 -0.51484796854E+03  0.53981272790E+03  0.12500000000E+03 0.  0.
         25    1    1    2    0    0  0.14467694214E+03  0.15475649876E+02 -0.10182368257E+03  0.21717268626E+03  0.12500000000E+03 0.  0.
         25    1    1    2    0    0 -0.14783334241E+03 -0.11888932221E+03 -0.17223962293E+03  0.28509797574E+03  0.12500000000E+03 0.  0.
</event>
<event>
 5    0  0.5660959E-005  0.2648999E+03  0.7546771E-02  0.1104235E+00
         21   -1    0    0  502  501  0.00000000000E+00  0.00000000000E+00  0.87628409490E+03  0.87628409490E+03  0.00000000000E+00 0.  1.
         21   -1    0    0  501  502 -0.00000000000E+00 -0.00000000000E+00 -0.80078983625E+02  0.80078983625E+02  0.00000000000E+00 0.  1.
         25    1    1    2    0    0  0.88142888702E+02 -0.56370920462E+02  0.16557843446E+03  0.23235332462E+03  0.12500000000E+03 0.  0.
         25    1    1    2    0    0 -0.10266486435E+03 -0.64924860627E+01  0.14134533283E+03  0.21490865469E+03  0.12500000000E+03 0.  0.
         25    1    1    2    0    0  0.14521975643E+02  0.62863406525E+02  0.48928134398E+03  0.50910109922E+03  0.12500000000E+03 0.  0.
</event>
<event>
 5    0  0.5660959E-005  0.2956496E+03  0.7546771E-02  0.1087436E+00
         21   -1    0    0  502  501  0.00000000000E+00  0.00000000000E+00  0.64218647528E+02  0.64218647528E+02  0.00000000000E+00 0. -1.
         21   -1    0    0  501  502 -0.00000000000E+00 -0.00000000000E+00 -0.13611104468E+04  0.13611104468E+04  0.00000000000E+00 0. -1.
         25    1    1    2    0    0  0.74139003018E+02  0.23187212296E+02 -0.12721951973E+03  0.19453545894E+03  0.12500000000E+03 0.  0.
         25    1    1    2    0    0 -0.70943045162E+02 -0.71832736577E+02 -0.10078779281E+04  0.10206055926E+04  0.12500000000E+03 0.  0.
         25    1    1    2    0    0 -0.31959578560E+01  0.48645524282E+02 -0.16179435150E+03  0.21018804285E+03  0.12500000000E+03 0.  0.
</event>
<event>
 5    0  0.5660959E-005  0.4155271E+03  0.7546771E-02  0.1038532E+00
         21   -1    0    0  502  501  0.00000000000E+00  0.00000000000E+00  0.60380982137E+03  0.60380982137E+03  0.00000000000E+00 0.  1.
         21   -1    0    0  501  502 -0.00000000000E+00 -0.00000000000E+00 -0.28595557303E+03  0.28595557303E+03  0.00000000000E+00 0.  1.
         25    1    1    2    0    0  0.89882269582E+02  0.43071435776E+00  0.10007448120E+03  0.18362709410E+03  0.12500000000E+03 0.  0.
         25    1    1    2    0    0 -0.13124023732E+03 -0.28186233014E+03  0.20973230610E+03  0.39532646416E+03  0.12500000000E+03 0.  0.
         25    1    1    2    0    0  0.41357967739E+02  0.28143161578E+03  0.80474610442E+01  0.31081183614E+03  0.12500000000E+03 0.  0.
</event>
<event>
 5    0  0.5660959E-005  0.3360635E+03  0.7546771E-02  0.1068485E+00
         21   -1    0    0  502  501  0.00000000000E+00  0.00000000000E+00  0.72605670449E+03  0.72605670449E+03  0.00000000000E+00 0. -1.
         21   -1    0    0  501  502 -0.00000000000E+00 -0.00000000000E+00 -0.15555075109E+03  0.15555075109E+03  0.00000000000E+00 0. -1.
         25    1    1    2    0    0 -0.98133199305E+02 -0.84621768887E+02  0.19212934907E+03  0.26330525128E+03  0.12500000000E+03 0.  0.
         25    1    1    2    0    0  0.79592954216E+02  0.18358145411E+03  0.34009010436E+02  0.23836694705E+03  0.12500000000E+03 0.  0.
         25    1    1    2    0    0  0.18540245090E+02 -0.98959685223E+02  0.34436759389E+03  0.37993525726E+03  0.12500000000E+03 0.  0.
</event>
<event>
 5    0  0.5660959E-005  0.2138195E+03  0.7546771E-02  0.1138577E+00
         21   -1    0    0  502  501  0.00000000000E+00  0.00000000000E+00  0.77713975745E+02  0.77713975745E+02  0.00000000000E+00 0. -1.
         21   -1    0    0  501  502 -0.00000000000E+00 -0.00000000000E+00 -0.58829555570E+03  0.58829555570E+03  0.00000000000E+00 0. -1.
         25    1    1    2    0    0 -0.33332194534E-02 -0.56930150103E+02 -0.15553168320E+03  0.20749975056E+03  0.12500000000E+03 0.  0.
         25    1    1    2    0    0  0.48416616138E+02  0.47593262655E+02 -0.11302035245E+03  0.18168072940E+03  0.12500000000E+03 0.  0.
         25    1    1    2    0    0 -0.48413282918E+02  0.93368874475E+01 -0.24202954430E+03  0.27682905148E+03  0.12500000000E+03 0.  0.
</event>
<event>
 5    0  0.5660959E-005  0.2300032E+03  0.7546771E-02  0.1126637E+00
         21   -1    0    0  502  501  0.00000000000E+00  0.00000000000E+00  0.57243947964E+02  0.57243947964E+02  0.00000000000E+00 0. -1.
         21   -1    0    0  501  502 -0.00000000000E+00 -0.00000000000E+00 -0.92414113673E+03  0.92414113673E+03  0.00000000000E+00 0. -1.
         25    1    1    2    0    0  0.31848677840E+02 -0.31185066615E+02 -0.10039112589E+03  0.16640380049E+03  0.12500000000E+03 0.  0.
         25    1    1    2    0    0 -0.14774727824E+02 -0.38104419292E+02 -0.32477501947E+03  0.35039128503E+03  0.12500000000E+03 0.  0.
         25    1    1    2    0    0 -0.17073950016E+02  0.69289485907E+02 -0.44173104341E+03  0.46458999918E+03  0.12500000000E+03 0.  0.
</event>
<event>
 5    0  0.5660959E-005  0.3949898E+03  0.7546771E-02  0.1045528E+00
         21   -1    0    0  502  501  0.00000000000E+00  0.00000000000E+00  0.10286826258E+04  0.10286826258E+04  0.00000000000E+00 0. -1.
         21   -1    0    0  501  502 -0.00000000000E+00 -0.00000000000E+00 -0.15166670982E+03  0.15166670982E+03  0.00000000000E+00 0. -1.
         25    1    1    2    0    0 -0.71354414827E+02 -0.14079632957E+03  0.19035753909E+03  0.27708491771E+03  0.12500000000E+03 0.  0.
         25    1    1    2    0    0  0.26588007616E+03  0.17809817162E+03  0.48400864331E+03  0.59354910532E+03  0.12500000000E+03 0.  0.
         25    1    1    2    0    0 -0.19452566133E+03 -0.37301842059E+02  0.20264973363E+03  0.30971531263E+03  0.12500000000E+03 0.  0.
</event>
<event>
 5    0  0.5660959E-005  0.2261253E+03  0.7546771E-02  0.1129397E+00
         21   -1    0    0  502  501  0.00000000000E+00  0.00000000000E+00  0.45041686244E+02  0.45041686244E+02  0.00000000000E+00 0.  1.
         21   -1    0    0  501  502 -0.00000000000E+00 -0.00000000000E+00 -0.11352294747E+04  0.11352294747E+04  0.00000000000E+00 0.  1.
         25    1    1    2    0    0 -0.29994457348E+02 -0.31923268974E+02 -0.32931379345E+03  0.35495258434E+03  0.12500000000E+03 0.  0.
         25    1    1    2    0    0  0.18422786395E+02 -0.57341964344E+02 -0.19820305777E+03  0.24194410933E+03  0.12500000000E+03 0.  0.
         25    1    1    2    0    0  0.11571670952E+02  0.89265233318E+02 -0.56267093722E+03  0.58337446725E+03  0.12500000000E+03 0.  0.
</event>
<event>
 5    0  0.5935051E-005  0.3487935E+03  0.7546771E-02  0.1063111E+00
         21   -1    0    0  502  501  0.00000000000E+00  0.00000000000E+00  0.16814978156E+03  0.16814978156E+03  0.00000000000E+00 0.  1.
         21   -1    0    0  501  502 -0.00000000000E+00 -0.00000000000E+00 -0.72350322266E+03  0.72350322266E+03  0.00000000000E+00 0.  1.
         25    1    1    2    0    0 -0.16323286214E+03 -0.11023891883E+03 -0.17842762467E+03  0.29369883172E+03  0.12500000000E+03 0.  0.
         25    1    1    2    0    0  0.13662107151E+03  0.14574341093E+03 -0.44195351918E+02  0.23975964661E+03  0.12500000000E+03 0.  0.
         25    1    1    2    0    0  0.26611790632E+02 -0.35504492104E+02 -0.33273046451E+03  0.35819452589E+03  0.12500000000E+03 0.  0.
</event>
<event>
 5    0  0.5660959E-005  0.2496486E+03  0.7546771E-02  0.1113527E+00
         21   -1    0    0  502  501  0.00000000000E+00  0.00000000000E+00  0.62762340238E+03  0.62762340238E+03  0.00000000000E+00 0.  1.
         21   -1    0    0  501  502 -0.00000000000E+00 -0.00000000000E+00 -0.99302283022E+02  0.99302283022E+02  0.00000000000E+00 0.  1.
         25    1    1    2    0    0  0.25742964999E+02  0.11519056928E+02  0.43197490154E+02  0.13522726084E+03  0.12500000000E+03 0.  0.
         25    1    1    2    0    0  0.11451823752E+02 -0.11402181863E+03  0.20393916875E+03  0.26523254691E+03  0.12500000000E+03 0.  0.
         25    1    1    2    0    0 -0.37194788751E+02  0.10250276170E+03  0.28118446046E+03  0.32646587765E+03  0.12500000000E+03 0.  0.
</event>
<event>
 5    0  0.5660959E-005  0.3007799E+03  0.7546771E-02  0.1084851E+00
         21   -1    0    0  502  501  0.00000000000E+00  0.00000000000E+00  0.18042632303E+03  0.18042632303E+03  0.00000000000E+00 0. -1.
         21   -1    0    0  501  502 -0.00000000000E+00 -0.00000000000E+00 -0.50141551526E+03  0.50141551526E+03  0.00000000000E+00 0.  1.
         25    1    1    2    0    0  0.58285361443E+02 -0.11797418409E+02 -0.30613302025E+02  0.14176930803E+03  0.12500000000E+03 0.  0.
         25    1    1    2    0    0  0.12024027750E+03 -0.56509601902E+02 -0.16056699013E+02  0.18312257377E+03  0.12500000000E+03 0.  0.
         25    1    1    2    0    0 -0.17852563894E+03  0.68307020311E+02 -0.27431919120E+03  0.35694995649E+03  0.12500000000E+03 0.  0.
</event>
<event>
 5    0  0.5660959E-005  0.2641611E+03  0.7546771E-02  0.1104669E+00
         21   -1    0    0  502  501  0.00000000000E+00  0.00000000000E+00  0.14611961833E+03  0.14611961833E+03  0.00000000000E+00 0.  1.
         21   -1    0    0  501  502 -0.00000000000E+00 -0.00000000000E+00 -0.47756128331E+03  0.47756128331E+03  0.00000000000E+00 0.  1.
         25    1    1    2    0    0  0.39975865450E+01  0.67123328098E+02 -0.15775837047E+03  0.21221268889E+03  0.12500000000E+03 0.  0.
         25    1    1    2    0    0  0.86028743705E+02 -0.69938908243E+02 -0.19403391154E+03  0.25605966972E+03  0.12500000000E+03 0.  0.
         25    1    1    2    0    0 -0.90026330250E+02  0.28155801452E+01  0.20350617032E+02  0.15540854302E+03  0.12500000000E+03 0.  0.
</event>
<event>
 5    0  0.5859761E-005  0.3474125E+03  0.7546771E-02  0.1063682E+00
         21   -1    0    0  502  501  0.00000000000E+00  0.00000000000E+00  0.41138355073E+03  0.41138355073E+03  0.00000000000E+00 0.  1.
         21   -1    0    0  501  502 -0.00000000000E+00 -0.00000000000E+00 -0.29338907993E+03  0.29338907993E+03  0.00000000000E+00 0.  1.
         25    1    1    2    0    0 -0.20275106784E+03  0.18589648654E+02  0.15180513477E+03  0.28306071697E+03  0.12500000000E+03 0.  0.
         25    1    1    2    0    0  0.31785596945E+01 -0.57540147788E+01 -0.11728889365E+03  0.17153686630E+03  0.12500000000E+03 0.  0.
         25    1    1    2    0    0  0.19957250814E+03 -0.12835633875E+02  0.83478229673E+02  0.25017504738E+03  0.12500000000E+03 0.  0.
</event>
<event>
 5    0  0.5660959E-005  0.3470856E+03  0.7546771E-02  0.1063818E+00
         21   -1    0    0  502  501  0.00000000000E+00  0.00000000000E+00  0.18713797586E+03  0.18713797586E+03  0.00000000000E+00 0.  1.
         21   -1    0    0  501  502 -0.00000000000E+00 -0.00000000000E+00 -0.64374108540E+03  0.64374108540E+03  0.00000000000E+00 0.  1.
         25    1    1    2    0    0  0.48115616402E+02  0.85785593996E+02 -0.46099619569E+03  0.48766461130E+03  0.12500000000E+03 0.  0.
         25    1    1    2    0    0 -0.83563197105E+02  0.60434246548E+01  0.76180711420E+02  0.16866485017E+03  0.12500000000E+03 0.  0.
         25    1    1    2    0    0  0.35447580704E+02 -0.91829018651E+02 -0.71787625267E+02  0.17454959979E+03  0.12500000000E+03 0.  0.
</event>
<event>
 5    0  0.5660959E-005  0.4423477E+03  0.7546771E-02  0.1030029E+00
         21   -1    0    0  502  501  0.00000000000E+00  0.00000000000E+00  0.79582533783E+03  0.79582533783E+03  0.00000000000E+00 0. -1.
         21   -1    0    0  501  502 -0.00000000000E+00 -0.00000000000E+00 -0.24587235875E+03  0.24587235875E+03  0.00000000000E+00 0. -1.
         25    1    1    2    0    0  0.20620407092E+03 -0.24222531907E+03  0.24637618509E+03  0.42133056931E+03  0.12500000000E+03 0.  0.
         25    1    1    2    0    0 -0.28587818024E+03  0.11301648635E+03  0.25309224333E+03  0.41734846802E+03  0.12500000000E+03 0.  0.
         25    1    1    2    0    0  0.79674109319E+02  0.12920883272E+03  0.50484550658E+02  0.20301865925E+03  0.12500000000E+03 0.  0.
</event>
<event>
 5    0  0.5660959E-005  0.2730069E+03  0.7546771E-02  0.1099571E+00
         21   -1    0    0  502  501  0.00000000000E+00  0.00000000000E+00  0.24312787903E+02  0.24312787903E+02  0.00000000000E+00 0. -1.
         21   -1    0    0  501  502 -0.00000000000E+00 -0.00000000000E+00 -0.30655788971E+04  0.30655788971E+04  0.00000000000E+00 0. -1.
         25    1    1    2    0    0  0.19226301551E+02 -0.67973904589E+02 -0.12441627636E+04  0.12524200912E+04  0.12500000000E+03 0.  0.
         25    1    1    2    0    0 -0.13900305983E+03 -0.19093114098E+02 -0.96175288188E+03  0.97993877536E+03  0.12500000000E+03 0.  0.
         25    1    1    2    0    0  0.11977675828E+03  0.87067018688E+02 -0.83535046370E+03  0.85753281848E+03  0.12500000000E+03 0.  0.
</event>
<event>
 5    0  0.5660959E-005  0.3418624E+03  0.7546771E-02  0.1066005E+00
         21   -1    0    0  502  501  0.00000000000E+00  0.00000000000E+00  0.11854690298E+04  0.11854690298E+04  0.00000000000E+00 0. -1.
         21   -1    0    0  501  502 -0.00000000000E+00 -0.00000000000E+00 -0.98585343435E+02  0.98585343435E+02  0.00000000000E+00 0. -1.
         25    1    1    2    0    0  0.23393073200E+03 -0.97529839923E+02  0.44072468367E+03  0.52354455765E+03  0.12500000000E+03 0.  0.
         25    1    1    2    0    0 -0.15058031771E+03 -0.37261217250E+02  0.31929092637E+03  0.37634362762E+03  0.12500000000E+03 0.  0.
         25    1    1    2    0    0 -0.83350414286E+02  0.13479105717E+03  0.32686807636E+03  0.38416618800E+03  0.12500000000E+03 0.  0.
</event>
<event>
 5    0  0.5660959E-005  0.4710450E+03  0.7546771E-02  0.1021626E+00
         21   -1    0    0  502  501  0.00000000000E+00  0.00000000000E+00  0.10745425419E+04  0.10745425419E+04  0.00000000000E+00 0. -1.
         21   -1    0    0  501  502 -0.00000000000E+00 -0.00000000000E+00 -0.20649102968E+03  0.20649102968E+03  0.00000000000E+00 0. -1.
         25    1    1    2    0    0 -0.11876501925E+02  0.18983483153E+03  0.27170248026E+03  0.35443695115E+03  0.12500000000E+03 0.  0.
         25    1    1    2    0    0 -0.26098418106E+03 -0.98466204793E+02  0.69592266711E+02  0.31349070135E+03  0.12500000000E+03 0.  0.
         25    1    1    2    0    0  0.27286068299E+03 -0.91368626742E+02  0.52675676530E+03  0.61310591912E+03  0.12500000000E+03 0.  0.
</event>
<event>
 5    0  0.5660959E-005  0.2999297E+03  0.7546771E-02  0.1085276E+00
         21   -1    0    0  502  501  0.00000000000E+00  0.00000000000E+00  0.24988161650E+04  0.24988161650E+04  0.00000000000E+00 0.  1.
         21   -1    0    0  501  502 -0.00000000000E+00 -0.00000000000E+00 -0.36000182581E+02  0.36000182581E+02  0.00000000000E+00 0.  1.
         25    1    1    2    0    0 -0.11261954548E+03 -0.96925168354E+01  0.16358921848E+04  0.16445501960E+04  0.12500000000E+03 0.  0.
         25    1    1    2    0    0  0.12389150967E+03 -0.69425453194E+01  0.64505886744E+03  0.66867275073E+03  0.12500000000E+03 0.  0.
         25    1    1    2    0    0 -0.11271964187E+02  0.16635062155E+02  0.18186493019E+03  0.22159340086E+03  0.12500000000E+03 0.  0.
</event>
<event>
 5    0  0.5660959E-005  0.2616519E+03  0.7546771E-02  0.1106155E+00
         21   -1    0    0  502  501  0.00000000000E+00  0.00000000000E+00  0.30134914602E+03  0.30134914602E+03  0.00000000000E+00 0.  1.
         21   -1    0    0  501  502 -0.00000000000E+00 -0.00000000000E+00 -0.22718411968E+03  0.22718411968E+03  0.00000000000E+00 0.  1.
         25    1    1    2    0    0 -0.20696211458E+02 -0.10698435340E+03  0.15027816017E+03  0.22379122071E+03  0.12500000000E+03 0.  0.
         25    1    1    2    0    0 -0.27241254001E+02  0.72944394249E+01 -0.35054128598E+02  0.13284986525E+03  0.12500000000E+03 0.  0.
         25    1    1    2    0    0  0.47937465459E+02  0.99689913975E+02 -0.41059005239E+02  0.17189217974E+03  0.12500000000E+03 0.  0.
</event>
<event>
 5    0  0.5660959E-005  0.2486692E+03  0.7546771E-02  0.1114149E+00
         21   -1    0    0  502  501  0.00000000000E+00  0.00000000000E+00  0.30735088071E+02  0.30735088071E+02  0.00000000000E+00 0.  1.
         21   -1    0    0  501  502 -0.00000000000E+00 -0.00000000000E+00 -0.20119138288E+04  0.20119138288E+04  0.00000000000E+00 0.  1.
         25    1    1    2    0    0  0.75621285262E+02 -0.72125111195E+02 -0.78357937736E+03  0.80033883517E+03  0.12500000000E+03 0.  0.
         25    1    1    2    0    0 -0.57061140205E+02 -0.52083902300E+02 -0.42620809494E+03  0.45082928786E+03  0.12500000000E+03 0.  0.
         25    1    1    2    0    0 -0.18560145056E+02  0.12420901349E+03 -0.77139126846E+03  0.79148079387E+03  0.12500000000E+03 0.  0.
</event>
<event>
 5    0  0.6210961E-005  0.3205301E+03  0.7546771E-02  0.1075406E+00
         21   -1    0    0  502  501  0.00000000000E+00  0.00000000000E+00  0.74669388258E+03  0.74669388258E+03  0.00000000000E+00 0.  1.
         21   -1    0    0  501  502 -0.00000000000E+00 -0.00000000000E+00 -0.13759262413E+03  0.13759262413E+03  0.00000000000E+00 0.  1.
         25    1    1    2    0    0  0.11042428327E+03  0.83776041219E+02  0.17523334798E+02  0.18746736964E+03  0.12500000000E+03 0.  0.
         25    1    1    2    0    0 -0.81493593384E+02  0.64713618838E+02  0.34713203051E+03  0.38334671621E+03  0.12500000000E+03 0.  0.
         25    1    1    2    0    0 -0.28930689890E+02 -0.14848966006E+03  0.24444589315E+03  0.31347242086E+03  0.12500000000E+03 0.  0.
</event>
<event>
 5    0  0.5660959E-005  0.3264634E+03  0.7546771E-02  0.1072713E+00
         21   -1    0    0  502  501  0.00000000000E+00  0.00000000000E+00  0.38401880724E+03  0.38401880724E+03  0.00000000000E+00 0.  1.
         21   -1    0    0  501  502 -0.00000000000E+00 -0.00000000000E+00 -0.27753414202E+03  0.27753414202E+03  0.00000000000E+00 0.  1.
         25    1    1    2    0    0  0.19290739294E+03  0.11664179391E+03  0.56001330509E+02  0.26377967958E+03  0.12500000000E+03 0.  0.
         25    1    1    2    0    0 -0.19700446547E+03 -0.16007825898E+02  0.35604495680E+02  0.23655800561E+03  0.12500000000E+03 0.  0.
         25    1    1    2    0    0  0.40970725251E+01 -0.10063396802E+03  0.14878839030E+02  0.16121526408E+03  0.12500000000E+03 0.  0.
</event>
<event>
 5    0  0.5660959E-005  0.8278027E+03  0.7546771E-02  0.9520623E-01
         21   -1    0    0  502  501  0.00000000000E+00  0.00000000000E+00  0.28840832512E+03  0.28840832512E+03  0.00000000000E+00 0.  1.
         21   -1    0    0  501  502 -0.00000000000E+00 -0.00000000000E+00 -0.23759970998E+04  0.23759970998E+04  0.00000000000E+00 0.  1.
         25    1    1    2    0    0 -0.86847178960E+02 -0.31131434642E+02  0.75441197790E+02  0.17270776775E+03  0.12500000000E+03 0.  0.
         25    1    1    2    0    0  0.53849272555E+03  0.48158375589E+02 -0.44641008705E+03  0.71218018115E+03  0.12500000000E+03 0.  0.
         25    1    1    2    0    0 -0.45164554659E+03 -0.17026940947E+02 -0.17166198854E+04  0.17795174760E+04  0.12500000000E+03 0.  0.
</event>
<event>
 5    0  0.5660959E-005  0.2720944E+03  0.7546771E-02  0.1100087E+00
         21   -1    0    0  502  501  0.00000000000E+00  0.00000000000E+00  0.14734509927E+03  0.14734509927E+03  0.00000000000E+00 0. -1.
         21   -1    0    0  501  502 -0.00000000000E+00 -0.00000000000E+00 -0.50246225980E+03  0.50246225980E+03  0.00000000000E+00 0. -1.
         25    1    1    2    0    0  0.76123584974E+02  0.97826661839E+02  0.54359172192E+01  0.17612326692E+03  0.12500000000E+03 0.  0.
         25    1    1    2    0    0 -0.88952386681E+02 -0.90009662983E+02 -0.24525146871E+03  0.30296460095E+03  0.12500000000E+03 0.  0.
         25    1    1    2    0    0  0.12828801707E+02 -0.78169988555E+01 -0.11530160904E+03  0.17071949119E+03  0.12500000000E+03 0.  0.
</event>
<event>
 5    0  0.5660959E-005  0.2099822E+03  0.7546771E-02  0.1141580E+00
         21   -1    0    0  502  501  0.00000000000E+00  0.00000000000E+00  0.31674035866E+03  0.31674035866E+03  0.00000000000E+00 0. -1.
         21   -1    0    0  501  502 -0.00000000000E+00 -0.00000000000E+00 -0.13920715839E+03  0.13920715839E+03  0.00000000000E+00 0. -1.
         25    1    1    2    0    0  0.47376865547E+01 -0.10965040310E+02  0.62219249139E+02  0.14013890518E+03  0.12500000000E+03 0.  0.
         25    1    1    2    0    0 -0.32639895678E+02  0.64359857375E+02  0.16105592360E+02  0.14523065839E+03  0.12500000000E+03 0.  0.
         25    1    1    2    0    0  0.27902209124E+02 -0.53394817065E+02  0.99208358773E+02  0.17057795348E+03  0.12500000000E+03 0.  0.
</event>
<event>
 5    0  0.5660959E-005  0.2672357E+03  0.7546771E-02  0.1102872E+00
         21   -1    0    0  502  501  0.00000000000E+00  0.00000000000E+00  0.13885719963E+03  0.13885719963E+03  0.00000000000E+00 0.  1.
         21   -1    0    0  501  502 -0.00000000000E+00 -0.00000000000E+00 -0.51430482303E+03  0.51430482303E+03  0.00000000000E+00 0.  1.
         25    1    1    2    0    0 -0.49504033250E+02  0.28821961554E+02  0.31188953463E+02  0.14099328209E+03  0.12500000000E+03 0.  0.
         25    1    1    2    0    0  0.96919209188E+02  0.36775570588E+02 -0.20624385713E+03  0.26250200819E+03  0.12500000000E+03 0.  0.
         25    1    1    2    0    0 -0.47415175937E+02 -0.65597532142E+02 -0.20039271974E+03  0.24966673238E+03  0.12500000000E+03 0.  0.
</event>
<event>
 5    0  0.6096643E-005  0.3939912E+03  0.7546771E-02  0.1045880E+00
         21   -1    0    0  502  501  0.00000000000E+00  0.00000000000E+00  0.43169262017E+03  0.43169262017E+03  0.00000000000E+00 0. -1.
         21   -1    0    0  501  502 -0.00000000000E+00 -0.00000000000E+00 -0.35958234436E+03  0.35958234436E+03  0.00000000000E+00 0. -1.
         25    1    1    2    0    0  0.12879288351E+03 -0.11811378025E+03  0.15305321342E+03  0.26379681208E+03  0.12500000000E+03 0.  0.
         25    1    1    2    0    0 -0.23513106401E+03  0.18352117756E+03  0.19969704833E+02  0.32402226619E+03  0.12500000000E+03 0.  0.
         25    1    1    2    0    0  0.10633818050E+03 -0.65407397307E+02 -0.10091264244E+03  0.20345588627E+03  0.12500000000E+03 0.  0.
</event>
<event>
 5    0  0.5783389E-005  0.2645863E+03  0.7546771E-02  0.1104419E+00
         21   -1    0    0  502  501  0.00000000000E+00  0.00000000000E+00  0.43080560930E+03  0.43080560930E+03  0.00000000000E+00 0.  1.
         21   -1    0    0  501  502 -0.00000000000E+00 -0.00000000000E+00 -0.16250000595E+03  0.16250000595E+03  0.00000000000E+00 0.  1.
         25    1    1    2    0    0  0.81098586985E+01  0.14938106221E+03  0.14556922423E+03  0.24330201519E+03  0.12500000000E+03 0.  0.
         25    1    1    2    0    0 -0.61000296157E+02 -0.36855116979E+02  0.18205166006E+02  0.14503711197E+03  0.12500000000E+03 0.  0.
         25    1    1    2    0    0  0.52890437458E+02 -0.11252594523E+03  0.10453121312E+03  0.20496648809E+03  0.12500000000E+03 0.  0.
</event>
<event>
 5    0  0.6822678E-005  0.3726993E+03  0.7546771E-02  0.1053666E+00
         21   -1    0    0  502  501  0.00000000000E+00  0.00000000000E+00  0.23011362710E+03  0.23011362710E+03  0.00000000000E+00 0. -1.
         21   -1    0    0  501  502 -0.00000000000E+00 -0.00000000000E+00 -0.60363550165E+03  0.60363550165E+03  0.00000000000E+00 0. -1.
         25    1    1    2    0    0 -0.12887678938E+03  0.51618350186E+02  0.16794288865E+02  0.18756526612E+03  0.12500000000E+03 0.  0.
         25    1    1    2    0    0  0.26833386139E+03 -0.11029977575E+03 -0.20738875119E+03  0.37789442418E+03  0.12500000000E+03 0.  0.
         25    1    1    2    0    0 -0.13945707202E+03  0.58681425562E+02 -0.18292741223E+03  0.26828943845E+03  0.12500000000E+03 0.  0.
</event>
<event>
 5    0  0.5660959E-005  0.5514057E+03  0.7546771E-02  0.1001169E+00
         21   -1    0    0  502  501  0.00000000000E+00  0.00000000000E+00  0.70077413671E+03  0.70077413671E+03  0.00000000000E+00 0. -1.
         21   -1    0    0  501  502 -0.00000000000E+00 -0.00000000000E+00 -0.43387476446E+03  0.43387476446E+03  0.00000000000E+00 0. -1.
         25    1    1    2    0    0  0.18668302895E+03 -0.46742105070E+03  0.21869766992E+03  0.56283804310E+03  0.12500000000E+03 0.  0.
         25    1    1    2    0    0 -0.13800755828E+03  0.31779337821E+03  0.19779429516E+02  0.36885626361E+03  0.12500000000E+03 0.  0.
         25    1    1    2    0    0 -0.48675470673E+02  0.14962767249E+03  0.28422272819E+02  0.20295459446E+03  0.12500000000E+03 0.  0.
</event>
<event>
 5    0  0.5660959E-005  0.3320194E+03  0.7546771E-02  0.1070247E+00
         21   -1    0    0  502  501  0.00000000000E+00  0.00000000000E+00  0.21043875453E+03  0.21043875453E+03  0.00000000000E+00 0. -1.
         21   -1    0    0  501  502 -0.00000000000E+00 -0.00000000000E+00 -0.52384302459E+03  0.52384302459E+03  0.00000000000E+00 0. -1.
         25    1    1    2    0    0  0.44610686848E+02 -0.27656438000E+02 -0.78998446975E+02  0.15690999512E+03  0.12500000000E+03 0.  0.
         25    1    1    2    0    0 -0.18421958427E+03 -0.14533836100E+03 -0.16558346307E+03  0.31321394868E+03  0.12500000000E+03 0.  0.
         25    1    1    2    0    0  0.13960889742E+03  0.17299479900E+03 -0.68822360018E+02  0.26415783532E+03  0.12500000000E+03 0.  0.
</event>
<event>
 5    0  0.5660959E-005  0.2334369E+03  0.7546771E-02  0.1124244E+00
         21   -1    0    0  502  501  0.00000000000E+00  0.00000000000E+00  0.40686851379E+03  0.40686851379E+03  0.00000000000E+00 0.  1.
         21   -1    0    0  501  502 -0.00000000000E+00 -0.00000000000E+00 -0.13393215150E+03  0.13393215150E+03  0.00000000000E+00 0.  1.
         25    1    1    2    0    0  0.12189966976E+02  0.21374119111E+02  0.12431543552E+03  0.17800217912E+03  0.12500000000E+03 0.  0.
         25    1    1    2    0    0 -0.76345116412E+02 -0.25421434789E+02  0.16405778689E+03  0.22139282641E+03  0.12500000000E+03 0.  0.
         25    1    1    2    0    0  0.64155149435E+02  0.40473156781E+01 -0.15436860108E+02  0.14140565976E+03  0.12500000000E+03 0.  0.
</event>
<event>
 5    0  0.5660959E-005  0.4718934E+03  0.7546771E-02  0.1021387E+00
         21   -1    0    0  502  501  0.00000000000E+00  0.00000000000E+00  0.43772135013E+03  0.43772135013E+03  0.00000000000E+00 0.  1.
         21   -1    0    0  501  502 -0.00000000000E+00 -0.00000000000E+00 -0.50873321791E+03  0.50873321791E+03  0.00000000000E+00 0.  1.
         25    1    1    2    0    0  0.50778636147E+02  0.29521279884E+03 -0.17194261685E+03  0.36731230578E+03  0.12500000000E+03 0.  0.
         25    1    1    2    0    0 -0.56963306410E+00 -0.17679632563E+03  0.26073816251E+03  0.33891983510E+03  0.12500000000E+03 0.  0.
         25    1    1    2    0    0 -0.50209003083E+02 -0.11841647321E+03 -0.15980741344E+03  0.24022242716E+03  0.12500000000E+03 0.  0.
</event>
<event>
 5    0  0.5660959E-005  0.3088906E+03  0.7546771E-02  0.1080879E+00
         21   -1    0    0  502  501  0.00000000000E+00  0.00000000000E+00  0.26402231997E+03  0.26402231997E+03  0.00000000000E+00 0.  1.
         21   -1    0    0  501  502 -0.00000000000E+00 -0.00000000000E+00 -0.36138387987E+03  0.36138387987E+03  0.00000000000E+00 0.  1.
         25    1    1    2    0    0 -0.41799428880E+02  0.14650885261E+03 -0.78642442232E+02  0.21218310458E+03  0.12500000000E+03 0.  0.
         25    1    1    2    0    0  0.71211511449E+02 -0.18564168391E+03 -0.10112392887E+03  0.25570483601E+03  0.12500000000E+03 0.  0.
         25    1    1    2    0    0 -0.29412082569E+02  0.39132831305E+02  0.82404811212E+02  0.15751825925E+03  0.12500000000E+03 0.  0.
</event>
<event>
 5    0  0.6997070E-005  0.5497780E+03  0.7546771E-02  0.1001545E+00
         21   -1    0    0  502  501  0.00000000000E+00  0.00000000000E+00  0.41520713645E+03  0.41520713645E+03  0.00000000000E+00 0. -1.
         21   -1    0    0  501  502 -0.00000000000E+00 -0.00000000000E+00 -0.72796398580E+03  0.72796398580E+03  0.00000000000E+00 0. -1.
         25    1    1    2    0    0 -0.22636827753E+03 -0.69376575168E+01 -0.39542063653E+03  0.47251794459E+03  0.12500000000E+03 0.  0.
         25    1    1    2    0    0  0.31394380448E+03 -0.21132686668E+03  0.64075160488E+02  0.40367113242E+03  0.12500000000E+03 0.  0.
         25    1    1    2    0    0 -0.87575526956E+02  0.21826452420E+03  0.18588626691E+02  0.26698204525E+03  0.12500000000E+03 0.  0.
</event>
<event>
 5    0  0.5660959E-005  0.2654666E+03  0.7546771E-02  0.1103903E+00
         21   -1    0    0  502  501  0.00000000000E+00  0.00000000000E+00  0.66182477473E+03  0.66182477473E+03  0.00000000000E+00 0.  1.
         21   -1    0    0  501  502 -0.00000000000E+00 -0.00000000000E+00 -0.10648216277E+03  0.10648216277E+03  0.00000000000E+00 0.  1.
         25    1    1    2    0    0  0.62546289722E+02  0.10104953577E+03  0.34975533091E+03  0.38997030469E+03  0.12500000000E+03 0.  0.
         25    1    1    2    0    0 -0.24426773764E+02 -0.13176475177E+03  0.11392308804E+03  0.21578249946E+03  0.12500000000E+03 0.  0.
         25    1    1    2    0    0 -0.38119515959E+02  0.30715215999E+02  0.91664193017E+02  0.16255413336E+03  0.12500000000E+03 0.  0.
</event>
<event>
 5    0  0.5660959E-005  0.3223908E+03  0.7546771E-02  0.1074554E+00
         21   -1    0    0  502  501  0.00000000000E+00  0.00000000000E+00  0.50287908708E+03  0.50287908708E+03  0.00000000000E+00 0. -1.
         21   -1    0    0  501  502 -0.00000000000E+00 -0.00000000000E+00 -0.20668159909E+03  0.20668159909E+03  0.00000000000E+00 0. -1.
         25    1    1    2    0    0  0.21053224285E+03  0.32358825958E+02  0.14541451592E+03  0.28660303616E+03  0.12500000000E+03 0.  0.
         25    1    1    2    0    0 -0.44790626825E+02 -0.11108011003E+03  0.63446111182E+02  0.18437841555E+03  0.12500000000E+03 0.  0.
         25    1    1    2    0    0 -0.16574161602E+03  0.78721284076E+02  0.87336860880E+02  0.23857923446E+03  0.12500000000E+03 0.  0.
</event>
<event>
 5    0  0.5660959E-005  0.3336693E+03  0.7546771E-02  0.1069525E+00
         21   -1    0    0  502  501  0.00000000000E+00  0.00000000000E+00  0.19445172335E+03  0.19445172335E+03  0.00000000000E+00 0.  1.
         21   -1    0    0  501  502 -0.00000000000E+00 -0.00000000000E+00 -0.57255948030E+03  0.57255948030E+03  0.00000000000E+00 0.  1.
         25    1    1    2    0    0 -0.35432791421E+02 -0.47724363614E+02 -0.35560432897E+03  0.38159210732E+03  0.12500000000E+03 0.  0.
         25    1    1    2    0    0  0.10565501016E+03 -0.83256951985E+02 -0.47360138679E+02  0.18963829772E+03  0.12500000000E+03 0.  0.
         25    1    1    2    0    0 -0.70222218739E+02  0.13098131560E+03  0.24856710695E+02  0.19578079862E+03  0.12500000000E+03 0.  0.
</event>
<event>
 5    0  0.5660959E-005  0.2435317E+03  0.7546771E-02  0.1117462E+00
         21   -1    0    0  502  501  0.00000000000E+00  0.00000000000E+00  0.18942797285E+04  0.18942797285E+04  0.00000000000E+00 0.  1.
         21   -1    0    0  501  502 -0.00000000000E+00 -0.00000000000E+00 -0.31308829430E+02  0.31308829430E+02  0.00000000000E+00 0.  1.
         25    1    1    2    0    0 -0.42560965217E+02 -0.17848293203E+02  0.60840175285E+03  0.62282235846E+03  0.12500000000E+03 0.  0.
         25    1    1    2    0    0  0.12354017580E+03 -0.56144166794E+02  0.63400503353E+03  0.66030426702E+03  0.12500000000E+03 0.  0.
         25    1    1    2    0    0 -0.80979210587E+02  0.73992459997E+02  0.62056411267E+03  0.64246193243E+03  0.12500000000E+03 0.  0.
</event>
<event>
 5    0  0.5660959E-005  0.3355775E+03  0.7546771E-02  0.1068695E+00
         21   -1    0    0  502  501  0.00000000000E+00  0.00000000000E+00  0.15720372715E+03  0.15720372715E+03  0.00000000000E+00 0. -1.
         21   -1    0    0  501  502 -0.00000000000E+00 -0.00000000000E+00 -0.71634578192E+03  0.71634578192E+03  0.00000000000E+00 0. -1.
         25    1    1    2    0    0 -0.35299117345E+01 -0.95719201642E+02 -0.30046299454E+03  0.33923094925E+03  0.12500000000E+03 0.  0.
         25    1    1    2    0    0 -0.16419723036E+03  0.13125448516E+03 -0.19499396602E+03  0.31278765499E+03  0.12500000000E+03 0.  0.
         25    1    1    2    0    0  0.16772714209E+03 -0.35535283519E+02 -0.63685094210E+02  0.22153090483E+03  0.12500000000E+03 0.  0.
</event>
<event>
 5    0  0.5660959E-005  0.2870612E+03  0.7546771E-02  0.1091894E+00
         21   -1    0    0  502  501  0.00000000000E+00  0.00000000000E+00  0.20736607987E+03  0.20736607987E+03  0.00000000000E+00 0.  1.
         21   -1    0    0  501  502 -0.00000000000E+00 -0.00000000000E+00 -0.39738484349E+03  0.39738484349E+03  0.00000000000E+00 0.  1.
         25    1    1    2    0    0  0.28747296799E+02  0.11749941228E+03 -0.13509819142E+02  0.17447072583E+03  0.12500000000E+03 0.  0.
         25    1    1    2    0    0 -0.45796262369E+02  0.41958218766E+01  0.51395579097E+02  0.14276346913E+03  0.12500000000E+03 0.  0.
         25    1    1    2    0    0  0.17048965570E+02 -0.12169523416E+03 -0.22790452357E+03  0.28751672839E+03  0.12500000000E+03 0.  0.
</event>
